Title
81371
    1CHL1    C3    1   3.786   3.412   9.851 -0.0212 -0.4699 -0.3476
    1CHL1    H3    2   3.703   3.479   9.880  0.9062  0.1033  1.0438
    1CHL1    O3    3   3.848   3.370   9.974  0.4413  0.6310 -0.3031
    1CHL1   H3'    4   3.936   3.342   9.949  0.8981  0.5468  1.2872
    1CHL1    C4    5   3.755   3.287   9.770 -0.4802  0.3362 -0.1474
    1CHL1   H4A    6   3.852   3.233   9.769 -0.4262  0.4346 -0.2650
    1CHL1   H4B    7   3.683   3.226   9.829 -2.4467  1.2077 -1.5226
    1CHL1    C5    8   3.704   3.306   9.630  0.3471 -0.4225 -0.3540
    1CHL1    C6    9   3.597   3.247   9.579  0.0281 -0.5440 -1.1270
    1CHL1    H6   10   3.550   3.169   9.640 -0.2049  0.1684 -0.3829
    1CHL1    C7   11   3.561   3.252   9.433  0.7796 -0.6332  0.3639
    1CHL1   H7A   12   3.553   3.151   9.388  2.7592 -0.0024 -1.5028
    1CHL1   H7B   13   3.464   3.306   9.420  0.9057 -0.5076 -0.0369
    1CHL1    C8   14   3.658   3.328   9.341  0.0569  0.3934  0.0068
    1CHL1    H8   15   3.741   3.258   9.315 -1.6068 -1.0880 -1.5962
    1CHL1   C14   16   3.593   3.360   9.208 -0.2302  0.4188  0.0569
    1CHL1   H14   17   3.515   3.437   9.228  0.9009  1.4114  0.7116
    1CHL1   C15   18   3.513   3.258   9.124  0.0141 -0.1110 -0.2195
    1CHL1  H15A   19   3.572   3.166   9.109 -1.6065 -1.1765 -0.3548
    1CHL1  H15B   20   3.419   3.230   9.176  0.9020  0.4232  1.7617
    1CHL1   C16   21   3.488   3.323   8.990 -0.0937 -0.4378 -0.1888
    1CHL1  H16A   22   3.504   3.255   8.903 -1.0259 -0.4171 -0.3910
    1CHL1  H16B   23   3.390   3.374   8.977  0.4892  0.2687 -2.1934
    1CHL1   C17   24   3.593   3.441   8.984  0.2640  0.0902 -0.0961
    1CHL1   H17   25   3.528   3.530   9.000 -3.0535 -1.8834 -1.4418
    1CHL1   C13   26   3.680   3.435   9.114  0.0875 -0.4617 -0.0039
    1CHL1   C18   27   3.808   3.350   9.078 -0.1036  0.0356  0.6807
    1CHL1  H18A   28   3.771   3.268   9.014  0.6560  0.4577 -0.3167
    1CHL1  H18B   29   3.876   3.422   9.027 -2.0311  2.3417  1.1547
    1CHL1  H18C   30   3.859   3.298   9.162 -0.5686 -2.0531 -0.2797
    1CHL1   C12   31   3.728   3.571   9.185 -0.0093 -0.9137 -0.6368
    1CHL1  H12A   32   3.799   3.616   9.112 -0.8737  0.4500 -0.6700
    1CHL1  H12B   33   3.629   3.619   9.197  1.1828  1.7678 -0.7910
    1CHL1   C11   34   3.798   3.537   9.317 -0.1981  0.5615 -0.2430
    1CHL1  H11A   35   3.889   3.476   9.299 -0.3714  0.1790  0.1599
    1CHL1  H11B   36   3.836   3.631   9.362 -0.1529 -0.1864  1.3558
    1CHL1    C9   37   3.711   3.452   9.415  0.1778 -0.5088 -0.4042
    1CHL1    H9   38   3.617   3.503   9.443 -0.0526 -1.0242 -0.2388
    1CHL1   C10   39   3.783   3.410   9.541  0.0326  0.4399 -0.5180
    1CHL1   C19   40   3.925   3.348   9.514 -0.5601  0.5946 -0.0016
    1CHL1  H19A   41   3.933   3.277   9.429 -2.1433  0.3009  0.0651
    1CHL1  H19B   42   3.992   3.433   9.490  0.1274 -0.1707 -0.8670
    1CHL1  H19C   43   3.967   3.298   9.604  0.7532 -0.8515 -1.3322
    1CHL1    C1   44   3.809   3.537   9.626 -0.3878  0.8986 -0.2025
    1CHL1   H1A   45   3.869   3.607   9.563  1.9778  0.2659  1.1916
    1CHL1   H1B   46   3.709   3.580   9.647 -1.4852 -1.3826 -0.3788
    1CHL1    C2   47   3.871   3.511   9.762  0.1944  0.7057  0.7017
    1CHL1   H2A   48   3.896   3.610   9.806  0.4975  0.9918 -0.1062
    1CHL1   H2B   49   3.972   3.466   9.762 -0.0854  0.0157 -0.6608
    1CHL1   C20   50   3.652   3.463   8.846  0.7156  0.1684 -0.4674
    1CHL1   H20   51   3.714   3.373   8.824  0.8769  0.1396  0.0939
    1CHL1   C21   52   3.737   3.591   8.850  0.6385 -0.2328 -0.1729
    1CHL1  H21A   53   3.797   3.611   8.758 -0.7079  0.5228 -0.9140
    1CHL1  H21B   54   3.814   3.597   8.930 -0.7855 -0.3356  1.2496
    1CHL1  H21C   55   3.679   3.684   8.868  1.5839  0.1446  1.0590
    1CHL1   C22   56   3.541   3.481   8.744  1.0540 -0.0235 -0.4746
    1CHL1  H22A   57   3.462   3.404   8.759  0.9673 -0.6076 -3.4209
    1CHL1  H22B   58   3.496   3.582   8.752  0.4849 -0.2730 -0.4786
    1CHL1   C23   59   3.579   3.460   8.598  0.0840  0.2065  0.0131
    1CHL1  H23A   60   3.485   3.471   8.540  0.2864 -1.7119 -0.7525
    1CHL1  H23B   61   3.652   3.541   8.574 -0.2495  0.1899 -1.1116
    1CHL1   C24   62   3.645   3.325   8.569  0.6430 -0.0885 -0.2418
    1CHL1  H24A   63   3.751   3.328   8.601  0.1252  2.0839  1.5709
    1CHL1  H24B   64   3.591   3.247   8.627 -0.6585 -0.0383 -1.3429
    1CHL1   C25   65   3.628   3.296   8.417 -0.7522  0.0741  0.3421
    1CHL1   H25   66   3.540   3.344   8.371  0.0198  0.2999 -0.9395
    1CHL1   C26   67   3.744   3.364   8.347 -0.2698  0.6425 -0.6588
    1CHL1  H26A   68   3.742   3.475   8.353  1.4592  0.7132 -0.8119
    1CHL1  H26B   69   3.842   3.334   8.390 -2.1128 -0.8751  2.8538
    1CHL1  H26C   70   3.740   3.337   8.239 -2.3748 -3.5720  0.2580
    1CHL1   C27   71   3.622   3.142   8.382 -0.3541 -0.0504  0.1790
    1CHL1  H27A   72   3.704   3.090   8.436  0.1989  1.4860  0.8782
    1CHL1  H27B   73   3.519   3.103   8.400  0.2165 -1.7628 -0.0759
    1CHL1  H27C   74   3.641   3.128   8.273 -0.8157 -1.0944  0.2226
    2CHL1    C3   75   5.190   2.941  10.165 -0.1720  0.5139  0.3605
    2CHL1    H3   76   5.227   3.045  10.151  2.0734 -0.3709 -1.0076
    2CHL1    O3   77   5.188   2.914  10.305  0.1609  0.3110  0.7758
    2CHL1   H3'   78   5.167   2.821  10.318 -1.8243  0.4756 -0.7362
    2CHL1    C4   79   5.052   2.906  10.110 -0.4984 -0.6070  0.3335
    2CHL1   H4A   80   5.026   2.801  10.134 -2.7799 -1.1086 -3.5025
    2CHL1   H4B   81   4.969   2.965  10.156 -0.2997  1.2061 -1.4772
    2CHL1    C5   82   5.046   2.918   9.957  0.3270 -0.2140 -0.4994
    2CHL1    C6   83   4.957   2.991   9.896  0.1018 -1.1814 -0.4746
    2CHL1    H6   84   4.885   3.039   9.965  0.6668  0.9206 -1.2739
    2CHL1    C7   85   4.944   3.024   9.751 -0.2999 -0.0401  0.3770
    2CHL1   H7A   86   4.838   3.016   9.717 -0.3832  0.2041  0.5738
    2CHL1   H7B   87   4.967   3.132   9.750  0.7097 -0.2436 -0.5456
    2CHL1    C8   88   5.038   2.934   9.666 -0.1735 -0.1342 -0.4949
    2CHL1    H8   89   5.004   2.828   9.659  0.8293 -0.8940  3.6867
    2CHL1   C14   90   5.051   2.995   9.519  0.6192  0.3570 -0.7592
    2CHL1   H14   91   5.091   3.098   9.532 -1.4197  0.9729  1.3503
    2CHL1   C15   92   4.926   3.008   9.434  0.2876  0.2526 -0.2946
    2CHL1  H15A   93   4.864   2.918   9.449 -1.0169  1.0553 -0.6783
    2CHL1  H15B   94   4.866   3.097   9.463  0.8069  0.7749 -0.7859
    2CHL1   C16   95   4.975   3.013   9.293  0.1777 -0.5184  0.2612
    2CHL1  H16A   96   4.939   2.932   9.227 -1.1785  0.4162 -0.1810
    2CHL1  H16B   97   4.959   3.112   9.246 -0.7862 -0.8764 -0.1747
    2CHL1   C17   98   5.130   2.998   9.301  0.7602  0.4550  0.1784
    2CHL1   H17   99   5.166   3.103   9.315 -1.0675  1.0558  0.6864
    2CHL1   C13  100   5.152   2.918   9.433  0.5011 -0.5322  0.1358
    2CHL1   C18  101   5.117   2.766   9.409 -0.5260 -0.7559  0.1042
    2CHL1  H18A  102   5.033   2.760   9.336  1.6925 -2.2419 -2.5080
    2CHL1  H18B  103   5.197   2.714   9.353  0.5168 -0.3219  1.1557
    2CHL1  H18C  104   5.094   2.712   9.504 -0.2102 -0.2821  0.4498
    2CHL1   C12  105   5.289   2.930   9.498  0.1708  0.0598 -0.1206
    2CHL1  H12A  106   5.353   2.870   9.429  1.7076  0.2582  1.0701
    2CHL1  H12B  107   5.323   3.035   9.488 -1.2119  0.4734 -0.6808
    2CHL1   C11  108   5.287   2.856   9.628 -0.2828 -1.0879 -0.0545
    2CHL1  H11A  109   5.271   2.747   9.615 -0.9071 -1.0837  0.5740
    2CHL1  H11B  110   5.387   2.862   9.676 -1.0641  0.2089  1.5221
    2CHL1    C9  111   5.180   2.920   9.726 -0.7861  0.1638 -0.4120
    2CHL1    H9  112   5.211   3.027   9.732  0.3994 -0.0920 -1.5074
    2CHL1   C10  113   5.173   2.864   9.874 -0.1044  0.2011 -0.2586
    2CHL1   C19  114   5.157   2.712   9.863  0.2088 -0.4866 -0.3920
    2CHL1  H19A  115   5.107   2.659   9.947 -2.6347  0.0649 -1.6119
    2CHL1  H19B  116   5.085   2.687   9.782  1.0524  1.6074 -1.8740
    2CHL1  H19C  117   5.253   2.660   9.843  0.3303 -1.0745  1.4934
    2CHL1    C1  118   5.305   2.892   9.947 -0.4053 -0.1514 -0.9545
    2CHL1   H1A  119   5.387   2.835   9.898 -1.5692 -0.9273 -2.0746
    2CHL1   H1B  120   5.336   2.998   9.934  0.4091 -0.6676 -4.1896
    2CHL1    C2  121   5.304   2.851  10.098  0.2810 -0.8620 -0.6488
    2CHL1   H2A  122   5.404   2.852  10.147  0.2964 -0.6960 -0.6800
    2CHL1   H2B  123   5.273   2.746  10.111 -0.2321 -0.5408  0.8601
    2CHL1   C20  124   5.201   2.956   9.172  0.6998  0.0697 -0.2656
    2CHL1   H20  125   5.166   2.852   9.159  1.3059 -0.1430 -0.2640
    2CHL1   C21  126   5.357   2.954   9.176  0.0351 -0.7909 -0.2445
    2CHL1  H21A  127   5.392   2.963   9.071  0.8370 -0.7598  0.0184
    2CHL1  H21B  128   5.383   2.857   9.224 -1.6021 -0.6366  1.0925
    2CHL1  H21C  129   5.394   3.030   9.249 -2.9143  0.0360  0.5315
    2CHL1   C22  130   5.151   3.035   9.045  0.3661  0.7928 -0.5845
    2CHL1  H22A  131   5.040   3.036   9.059  0.2761 -1.5836 -0.6697
    2CHL1  H22B  132   5.185   3.141   9.041  0.3297  0.7725 -1.6981
    2CHL1   C23  133   5.199   2.975   8.911 -0.1983 -0.1326 -0.1447
    2CHL1  H23A  134   5.309   2.991   8.906 -0.0027 -1.2492  0.2807
    2CHL1  H23B  135   5.186   2.865   8.923 -0.3813 -0.0757  0.2224
    2CHL1   C24  136   5.132   3.023   8.777  0.0950  0.0095  0.6380
    2CHL1  H24A  137   5.022   3.007   8.777 -0.2491  1.7139 -2.4227
    2CHL1  H24B  138   5.148   3.132   8.783  1.0467 -0.2075  3.5804
    2CHL1   C25  139   5.198   2.961   8.651  0.7130 -0.1323 -0.1390
    2CHL1   H25  140   5.216   2.852   8.655  1.1492 -0.1619 -2.1207
    2CHL1   C26  141   5.111   2.986   8.524  1.0221  0.8213  0.4329
    2CHL1  H26A  142   5.007   2.961   8.555  0.7914 -0.7004 -1.3750
    2CHL1  H26B  143   5.123   3.091   8.490  0.2204  0.7293 -0.1710
    2CHL1  H26C  144   5.130   2.910   8.446 -0.4281 -0.3002  1.1167
    2CHL1   C27  145   5.336   3.026   8.632 -0.5318 -0.5574  0.4054
    2CHL1  H27A  146   5.413   2.988   8.703 -0.1289  2.5880  1.8058
    2CHL1  H27B  147   5.371   2.990   8.533 -0.3608  1.4538 -0.2942
    2CHL1  H27C  148   5.319   3.134   8.617  1.3729 -0.6924 -4.2475
    3CHL1    C3  149   5.415   1.645  10.134 -0.1651 -0.2485  0.0295
    3CHL1    H3  150   5.339   1.572  10.098  0.6454 -0.2530 -1.7842
    3CHL1    O3  151   5.422   1.621  10.274 -0.5679 -0.1780 -0.3435
    3CHL1   H3'  152   5.504   1.661  10.304 -0.8541 -0.0816  0.3109
    3CHL1    C4  153   5.548   1.610  10.069 -0.5832  0.5521  0.3888
    3CHL1   H4A  154   5.624   1.674  10.118  2.6759 -1.5815 -1.5651
    3CHL1   H4B  155   5.580   1.508  10.097 -0.8335 -0.2584 -2.0558
    3CHL1    C5  156   5.545   1.636   9.918  0.3041 -0.3944 -0.5859
    3CHL1    C6  157   5.561   1.529   9.839  0.0188  0.1210  0.7359
    3CHL1    H6  158   5.583   1.432   9.885  0.2339  0.2571  0.9269
    3CHL1    C7  159   5.555   1.540   9.691  0.5961 -0.2076  0.7335
    3CHL1   H7A  160   5.634   1.481   9.639  1.9826  1.0368  1.3683
    3CHL1   H7B  161   5.457   1.501   9.655  1.2573 -0.2022 -1.2217
    3CHL1    C8  162   5.568   1.681   9.641  0.9849 -0.4574 -0.1173
    3CHL1    H8  163   5.673   1.709   9.663  1.8991 -2.2931 -1.8466
    3CHL1   C14  164   5.547   1.696   9.489  0.3033  0.9703 -1.0738
    3CHL1   H14  165   5.442   1.663   9.473  0.9433 -0.7929 -2.0357
    3CHL1   C15  166   5.632   1.611   9.391  0.3793 -0.7506 -0.3927
    3CHL1  H15A  167   5.738   1.628   9.417 -0.0841 -1.4735  2.1828
    3CHL1  H15B  168   5.590   1.510   9.410 -2.2127  0.7317  2.6006
    3CHL1   C16  169   5.597   1.669   9.248 -0.2964 -0.5970 -0.0484
    3CHL1  H16A  170   5.687   1.697   9.189  0.1958 -2.8209 -0.4564
    3CHL1  H16B  171   5.532   1.605   9.185  0.6128 -0.2332 -1.3917
    3CHL1   C17  172   5.514   1.805   9.284  0.2939 -0.1053  0.2888
    3CHL1   H17  173   5.409   1.778   9.259  0.4938  1.4273 -2.5560
    3CHL1   C13  174   5.542   1.835   9.431 -0.1088  0.2998 -0.1353
    3CHL1   C18  175   5.677   1.911   9.451 -0.4192  0.1133 -0.7208
    3CHL1  H18A  176   5.675   1.994   9.377 -0.7517 -1.4144 -2.5180
    3CHL1  H18B  177   5.700   1.948   9.553  1.3771 -1.1984 -0.6088
    3CHL1  H18C  178   5.767   1.854   9.418  0.7667 -0.4952  3.1111
    3CHL1   C12  179   5.434   1.919   9.503 -0.2864 -0.1829  0.3683
    3CHL1  H12A  180   5.439   2.027   9.475  1.7736  0.0124  1.3443
    3CHL1  H12B  181   5.335   1.878   9.474 -0.0591  0.5071 -1.5795
    3CHL1   C11  182   5.449   1.921   9.655  0.2201 -0.2338 -0.2327
    3CHL1  H11A  183   5.534   1.975   9.702 -0.5704 -1.2037  2.5228
    3CHL1  H11B  184   5.358   1.960   9.706  0.7108  0.0973  0.4063
    3CHL1    C9  185   5.470   1.773   9.713  0.4086 -0.3903 -0.5875
    3CHL1    H9  186   5.378   1.712   9.705  1.2341 -1.7864  0.2604
    3CHL1   C10  187   5.497   1.769   9.866 -0.1371  0.1774  0.2636
    3CHL1   C19  188   5.602   1.871   9.905 -0.2212  1.0264 -0.3645
    3CHL1  H19A  189   5.575   1.977   9.919 -2.1933  0.5894 -0.5395
    3CHL1  H19B  190   5.637   1.843  10.007 -1.3075 -0.1873 -0.2910
    3CHL1  H19C  191   5.687   1.872   9.833  0.0419  1.1407 -0.0550
    3CHL1    C1  192   5.361   1.808   9.947 -0.0742  0.8062  0.1723
    3CHL1   H1A  193   5.314   1.905   9.921 -0.6726  1.2973  2.8136
    3CHL1   H1B  194   5.288   1.731   9.913  0.4905 -0.0692  0.9211
    3CHL1    C2  195   5.369   1.785  10.098 -0.3872  0.2300 -0.0363
    3CHL1   H2A  196   5.267   1.786  10.143 -0.8898 -0.3733 -1.1174
    3CHL1   H2B  197   5.429   1.872  10.132  0.1874  0.4006 -1.4242
    3CHL1   C20  198   5.544   1.916   9.176  0.2267  0.0562 -0.2203
    3CHL1   H20  199   5.652   1.942   9.179 -0.3392  2.6217  2.8102
    3CHL1   C21  200   5.463   2.044   9.204 -0.2755 -0.3844  0.3373
    3CHL1  H21A  201   5.476   2.115   9.120  0.9798  1.3739  1.9319
    3CHL1  H21B  202   5.500   2.104   9.290 -0.6647  2.5893 -1.4135
    3CHL1  H21C  203   5.356   2.020   9.227 -0.6526  0.7044 -0.2131
    3CHL1   C22  204   5.512   1.865   9.034 -0.0510  0.3052 -0.0695
    3CHL1  H22A  205   5.583   1.788   8.997 -1.8584 -1.1168 -0.7135
    3CHL1  H22B  206   5.405   1.835   9.036 -0.3985  1.4614 -0.6334
    3CHL1   C23  207   5.520   1.970   8.918 -0.2114  0.0047 -0.1142
    3CHL1  H23A  208   5.425   2.027   8.912  1.1947  2.5481  0.2825
    3CHL1  H23B  209   5.606   2.036   8.941  0.7498 -1.2183 -0.0905
    3CHL1   C24  210   5.563   1.915   8.782  0.3752  0.3025  0.2204
    3CHL1  H24A  211   5.551   1.988   8.699  1.2536 -1.6115 -1.6894
    3CHL1  H24B  212   5.671   1.891   8.789  0.0440 -1.2400  0.3599
    3CHL1   C25  213   5.500   1.786   8.741 -0.5817  0.1421 -0.1314
    3CHL1   H25  214   5.533   1.708   8.813 -1.3176  0.1875  0.2543
    3CHL1   C26  215   5.351   1.796   8.730  0.8481 -0.5660  0.2292
    3CHL1  H26A  216   5.331   1.878   8.658 -0.6486 -1.5740 -0.5352
    3CHL1  H26B  217   5.303   1.712   8.676  1.1512  0.6725 -2.1212
    3CHL1  H26C  218   5.306   1.816   8.829  0.1143 -2.3283  0.2893
    3CHL1   C27  219   5.550   1.731   8.606  0.0961 -0.1585  0.2996
    3CHL1  H27A  220   5.498   1.778   8.520 -3.0383 -0.8887  1.6658
    3CHL1  H27B  221   5.659   1.744   8.588  0.4092 -3.8351 -1.3342
    3CHL1  H27C  222   5.521   1.624   8.618  0.2671 -0.1579  0.7299
    4CHL1    C3  223   4.631   3.974   9.559 -0.9217  0.4527  0.3497
    4CHL1    H3  224   4.704   3.896   9.589 -0.9002  1.2979  2.7239
    4CHL1    O3  225   4.655   4.097   9.632 -0.5448  0.2009  0.0567
    4CHL1   H3'  226   4.627   4.070   9.720 -0.0585  1.0705  0.4835
    4CHL1    C4  227   4.635   4.003   9.408  0.2701  0.3184  0.3180
    4CHL1   H4A  228   4.567   4.089   9.390  0.1258  0.0918 -0.2073
    4CHL1   H4B  229   4.735   4.044   9.379  1.0896  0.0726  2.5647
    4CHL1    C5  230   4.599   3.894   9.310  0.9050  0.6060 -0.4815
    4CHL1    C6  231   4.688   3.846   9.227  0.1600  0.0065  0.5845
    4CHL1    H6  232   4.785   3.896   9.211  0.6575 -1.3045 -0.7955
    4CHL1    C7  233   4.657   3.728   9.132  0.3868 -0.8348 -0.2135
    4CHL1   H7A  234   4.684   3.765   9.030 -0.3697  0.0998 -0.0829
    4CHL1   H7B  235   4.717   3.638   9.158 -0.4127 -1.0658  0.8909
    4CHL1    C8  236   4.504   3.686   9.142  0.5321 -0.0322 -0.3504
    4CHL1    H8  237   4.460   3.771   9.086  1.5767  0.2454 -0.7809
    4CHL1   C14  238   4.477   3.554   9.065  0.0400 -0.2346  0.0820
    4CHL1   H14  239   4.540   3.485   9.125 -0.2499 -1.2441 -0.7379
    4CHL1   C15  240   4.537   3.532   8.927 -0.6570 -0.7203  0.2667
    4CHL1  H15A  241   4.511   3.620   8.864  0.4166  0.5028  1.4750
    4CHL1  H15B  242   4.647   3.521   8.936 -0.5397  0.7835  1.0024
    4CHL1   C16  243   4.467   3.406   8.874 -0.3318 -0.3698 -0.4273
    4CHL1  H16A  244   4.417   3.430   8.778 -0.1740 -1.0617 -0.6893
    4CHL1  H16B  245   4.539   3.327   8.843  0.6451  0.7676 -1.1535
    4CHL1   C17  246   4.368   3.366   8.979 -0.1050 -0.3413  0.1764
    4CHL1   H17  247   4.423   3.304   9.053  0.0362  0.1006  0.4403
    4CHL1   C13  248   4.337   3.498   9.059 -0.5046 -0.0970  0.2368
    4CHL1   C18  249   4.249   3.593   8.970  0.0610 -0.9336 -0.3594
    4CHL1  H18A  250   4.284   3.603   8.866  0.0080  1.5755 -0.2015
    4CHL1  H18B  251   4.146   3.551   8.973  0.0371 -1.0338 -2.0479
    4CHL1  H18C  252   4.250   3.696   9.011 -1.2511 -0.5022 -1.3652
    4CHL1   C12  253   4.286   3.485   9.211  0.6909  0.1000  1.3125
    4CHL1  H12A  254   4.174   3.482   9.211  0.6231  1.3274  3.1235
    4CHL1  H12B  255   4.316   3.396   9.270 -0.2625  0.1254  1.8533
    4CHL1   C11  256   4.309   3.616   9.293  0.2884  0.1396  0.2732
    4CHL1  H11A  257   4.234   3.681   9.243  2.5377  0.2256 -3.3302
    4CHL1  H11B  258   4.285   3.598   9.401 -0.6407  3.1550  0.6683
    4CHL1    C9  259   4.447   3.682   9.281 -0.1516  0.3143 -0.4243
    4CHL1    H9  260   4.513   3.605   9.328  0.1138  0.6026 -0.3226
    4CHL1   C10  261   4.468   3.821   9.346 -0.3749  0.3714 -0.4743
    4CHL1   C19  262   4.364   3.914   9.291  0.6845  0.4986  0.4602
    4CHL1  H19A  263   4.266   3.873   9.325  1.9674 -0.7516  2.8697
    4CHL1  H19B  264   4.373   4.014   9.337 -0.5700  0.3531  1.0785
    4CHL1  H19C  265   4.371   3.925   9.180 -0.7195  0.9607  0.3999
    4CHL1    C1  266   4.463   3.795   9.503  0.2651  0.1614  0.6178
    4CHL1   H1A  267   4.361   3.767   9.538  0.9216 -1.8444  1.0793
    4CHL1   H1B  268   4.536   3.714   9.524  1.9315  1.3487 -0.4063
    4CHL1    C2  269   4.483   3.917   9.586 -0.4053  0.2381  0.9612
    4CHL1   H2A  270   4.475   3.903   9.696  2.0075 -0.2338  1.1324
    4CHL1   H2B  271   4.411   3.994   9.548  0.7250  1.3192  0.9284
    4CHL1   C20  272   4.241   3.290   8.923  0.1439 -0.2293  1.0564
    4CHL1   H20  273   4.175   3.361   8.869  1.2590  0.6634  0.8365
    4CHL1   C21  274   4.158   3.229   9.040  0.7068  0.1931  0.5218
    4CHL1  H21A  275   4.228   3.175   9.108  0.1513  1.2327  1.9723
    4CHL1  H21B  276   4.093   3.146   9.005  0.2273  1.1706 -0.9657
    4CHL1  H21C  277   4.115   3.311   9.102  1.2481  0.1169  1.0064
    4CHL1   C22  278   4.274   3.179   8.819  0.2861 -0.1194 -0.2771
    4CHL1  H22A  279   4.331   3.225   8.735  0.0271 -0.3096 -0.5594
    4CHL1  H22B  280   4.347   3.102   8.852  0.8798  0.8523  0.7658
    4CHL1   C23  281   4.142   3.120   8.736  0.6216  0.0651 -0.0896
    4CHL1  H23A  282   4.085   3.049   8.798 -1.9516  0.7051 -1.5711
    4CHL1  H23B  283   4.082   3.210   8.712  0.9343 -0.0185 -1.2875
    4CHL1   C24  284   4.200   3.057   8.606  0.0815 -0.6665 -0.0324
    4CHL1  H24A  285   4.266   3.130   8.553  0.3118 -2.2592 -2.0601
    4CHL1  H24B  286   4.267   2.975   8.639  2.5495  1.5180  0.7440
    4CHL1   C25  287   4.089   2.989   8.521 -0.3701  0.5087  0.2194
    4CHL1   H25  288   4.040   2.927   8.598  0.6123  1.1268  1.3920
    4CHL1   C26  289   3.996   3.086   8.464 -0.3054 -0.2013  0.7291
    4CHL1  H26A  290   4.046   3.181   8.434 -1.7770  0.3805  0.0508
    4CHL1  H26B  291   3.941   3.043   8.378  1.2951 -0.3876 -0.2563
    4CHL1  H26C  292   3.911   3.118   8.527 -1.7359  0.5028 -1.4641
    4CHL1   C27  293   4.158   2.893   8.414  0.3680  0.2723 -0.2070
    4CHL1  H27A  294   4.087   2.830   8.356  2.5225  1.1223 -4.1629
    4CHL1  H27B  295   4.221   2.963   8.355  0.8645  1.8777  2.0800
    4CHL1  H27C  296   4.232   2.831   8.469 -1.1844 -1.2353  0.2694
    5CHL1    C3  297   5.354   2.378   9.845 -0.3505 -0.4648 -0.1558
    5CHL1    H3  298   5.269   2.449   9.850  0.5464  0.7531 -1.3527
    5CHL1    O3  299   5.368   2.308   9.971  0.1605  0.0299  0.3122
    5CHL1   H3'  300   5.382   2.217   9.945  3.1726 -0.0310  1.7536
    5CHL1    C4  301   5.344   2.277   9.733  0.2878  0.0204  0.0641
    5CHL1   H4A  302   5.424   2.201   9.749 -0.4412 -0.7349  0.2046
    5CHL1   H4B  303   5.245   2.230   9.753  0.3390 -1.3037 -2.3191
    5CHL1    C5  304   5.353   2.325   9.590  0.1291  0.4694  0.1431
    5CHL1    C6  305   5.265   2.292   9.492  0.2138 -0.0471 -0.7948
    5CHL1    H6  306   5.185   2.219   9.509  0.5603 -0.4219 -0.7398
    5CHL1    C7  307   5.258   2.351   9.355 -0.1650  0.0350 -0.5773
    5CHL1   H7A  308   5.230   2.271   9.283 -0.7816  0.9913 -1.4220
    5CHL1   H7B  309   5.175   2.424   9.347 -0.1663  0.0526 -0.4188
    5CHL1    C8  310   5.398   2.409   9.319  0.9242  0.2856 -0.4023
    5CHL1    H8  311   5.460   2.317   9.316 -1.1979 -1.3229  1.2842
    5CHL1   C14  312   5.386   2.486   9.187 -0.3398 -0.1749  0.2235
    5CHL1   H14  313   5.331   2.579   9.214 -0.5561 -0.8572  2.3524
    5CHL1   C15  314   5.311   2.419   9.078  0.2668 -0.8724 -0.4015
    5CHL1  H15A  315   5.330   2.310   9.075 -2.4306 -1.4109 -2.0718
    5CHL1  H15B  316   5.200   2.432   9.073  0.3635 -0.5018 -2.3475
    5CHL1   C16  317   5.369   2.480   8.950 -0.4260  0.1065  0.3704
    5CHL1  H16A  318   5.402   2.405   8.874 -1.7051 -0.9811  0.8361
    5CHL1  H16B  319   5.288   2.539   8.901  1.1256  1.1290 -1.0538
    5CHL1   C17  320   5.489   2.572   8.993 -0.3156 -0.0236  0.6561
    5CHL1   H17  321   5.439   2.669   9.011 -1.0182 -0.6274  2.1549
    5CHL1   C13  322   5.524   2.517   9.138 -0.3199  0.6386  0.2876
    5CHL1   C18  323   5.617   2.391   9.112 -0.2394 -0.4774 -0.1686
    5CHL1  H18A  324   5.581   2.323   9.032 -2.1317  1.6042 -1.2026
    5CHL1  H18B  325   5.718   2.426   9.083 -0.3836  0.1119  0.0264
    5CHL1  H18C  326   5.621   2.337   9.209 -2.1423 -0.2550  0.0708
    5CHL1   C12  327   5.588   2.617   9.234 -0.1815 -0.3468  0.4476
    5CHL1  H12A  328   5.687   2.655   9.201 -0.5331  0.2161  0.0265
    5CHL1  H12B  329   5.520   2.704   9.239 -2.5426 -2.0801  0.4370
    5CHL1   C11  330   5.598   2.551   9.377  0.6489  0.3276 -0.4133
    5CHL1  H11A  331   5.681   2.477   9.370 -0.0970 -0.4375 -1.4932
    5CHL1  H11B  332   5.632   2.637   9.438 -0.8011  0.0692  0.7846
    5CHL1    C9  333   5.464   2.492   9.431 -0.4066  0.9385  0.5798
    5CHL1    H9  334   5.394   2.578   9.436 -1.7338 -0.1238  0.8889
    5CHL1   C10  335   5.477   2.417   9.567  0.5961  0.2496  0.9415
    5CHL1   C19  336   5.602   2.329   9.569 -0.4336 -0.3258 -0.2967
    5CHL1  H19A  337   5.616   2.256   9.486  0.7820 -1.9578  1.2511
    5CHL1  H19B  338   5.689   2.398   9.570  0.2985 -1.2262  0.6911
    5CHL1  H19C  339   5.603   2.270   9.663 -0.1053 -1.5111 -1.0258
    5CHL1    C1  340   5.487   2.525   9.683 -0.2370  0.4822 -0.0208
    5CHL1   H1A  341   5.578   2.588   9.672  0.3896 -0.2263  0.9506
    5CHL1   H1B  342   5.399   2.590   9.660 -0.7076 -0.9011 -2.4644
    5CHL1    C2  343   5.486   2.464   9.823  0.4234 -0.1188 -0.5448
    5CHL1   H2A  344   5.485   2.549   9.895 -1.0017  0.3496 -1.0759
    5CHL1   H2B  345   5.572   2.398   9.846 -0.4726 -1.1095  0.0728
    5CHL1   C20  346   5.595   2.585   8.879  0.4790  0.4900  0.1732
    5CHL1   H20  347   5.635   2.485   8.851 -0.1490  0.9216 -2.5658
    5CHL1   C21  348   5.696   2.680   8.927 -0.3316 -0.8693 -0.3428
    5CHL1  H21A  349   5.749   2.731   8.845  0.7403  1.0758  1.4530
    5CHL1  H21B  350   5.777   2.643   8.995 -2.1430 -0.7755  2.0099
    5CHL1  H21C  351   5.641   2.762   8.977  0.1359 -1.8453  1.9585
    5CHL1   C22  352   5.524   2.643   8.754 -0.2874 -0.6401  0.6057
    5CHL1  H22A  353   5.441   2.577   8.721 -1.0113  0.5242 -0.0100
    5CHL1  H22B  354   5.486   2.745   8.779  1.5500  0.3139 -0.2705
    5CHL1   C23  355   5.617   2.657   8.629 -0.5329 -0.7977 -0.3670
    5CHL1  H23A  356   5.693   2.738   8.634 -2.5041  1.0657  1.0774
    5CHL1  H23B  357   5.674   2.563   8.613  0.2642  0.0324 -3.0657
    5CHL1   C24  358   5.531   2.678   8.504  0.0433  0.1405 -0.0228
    5CHL1  H24A  359   5.460   2.593   8.495 -0.9728  1.0174 -0.4719
    5CHL1  H24B  360   5.468   2.767   8.523 -0.8502 -0.7216  1.2500
    5CHL1   C25  361   5.608   2.696   8.370  0.2208  0.5402  0.4166
    5CHL1   H25  362   5.661   2.794   8.379  1.3110  0.1264 -0.9889
    5CHL1   C26  363   5.689   2.573   8.348 -0.9285  0.1981 -0.4358
    5CHL1  H26A  364   5.747   2.587   8.254 -0.0061 -0.5646 -0.0072
    5CHL1  H26B  365   5.778   2.568   8.415 -0.6057 -1.3155 -0.9445
    5CHL1  H26C  366   5.628   2.482   8.334  0.1439 -0.7181  0.6078
    5CHL1   C27  367   5.523   2.716   8.252 -0.4765 -0.2425 -0.1342
    5CHL1  H27A  368   5.586   2.704   8.161  0.9683  0.7288  0.6848
    5CHL1  H27B  369   5.441   2.641   8.246 -0.3686 -0.4626  0.8739
    5CHL1  H27C  370   5.465   2.810   8.247 -1.1536 -0.6871 -0.7683
    6CHL1    C3  371   0.784   5.148  10.421 -0.8498 -0.3049 -0.1419
    6CHL1    H3  372   0.691   5.175  10.367  0.0721  1.6878 -0.8368
    6CHL1    O3  373   0.753   5.135  10.554 -0.2246  0.2894  0.4147
    6CHL1   H3'  374   0.824   5.090  10.600  0.3701  1.1281  0.3476
    6CHL1    C4  375   0.831   5.010  10.364  0.3834  0.4440 -0.3782
    6CHL1   H4A  376   0.928   4.986  10.413 -0.2079 -0.3008  0.4370
    6CHL1   H4B  377   0.768   4.926  10.398 -0.3247  1.3986  0.7260
    6CHL1    C5  378   0.850   5.017  10.214  0.3982 -0.1026  0.4479
    6CHL1    C6  379   0.770   4.935  10.133  0.0224 -0.9421  0.0227
    6CHL1    H6  380   0.695   4.869  10.178  0.6860 -0.6073  1.7248
    6CHL1    C7  381   0.777   4.948   9.980 -0.3644  0.6835 -0.5889
    6CHL1   H7A  382   0.785   4.846   9.938 -1.1837 -1.2929  3.5501
    6CHL1   H7B  383   0.685   5.004   9.952 -0.2122  0.8283 -0.7976
    6CHL1    C8  384   0.901   5.034   9.937  0.9640  0.0101  0.3632
    6CHL1    H8  385   0.996   4.979   9.955  1.5504  0.4564 -1.1858
    6CHL1   C14  386   0.885   5.059   9.783  0.2121  0.1657  0.0307
    6CHL1   H14  387   0.790   5.115   9.770  0.4299  0.7984  0.9998
    6CHL1   C15  388   0.874   4.932   9.694  0.5927  0.0752 -0.5420
    6CHL1  H15A  389   0.951   4.856   9.721  1.0081  0.6248 -0.1659
    6CHL1  H15B  390   0.778   4.876   9.704 -1.1974  3.2810  3.4568
    6CHL1   C16  391   0.890   4.990   9.556 -0.1793 -0.4620 -0.0893
    6CHL1  H16A  392   0.961   4.930   9.495 -0.4776 -0.7020 -0.2020
    6CHL1  H16B  393   0.793   4.987   9.501  0.7545 -1.9127 -1.7600
    6CHL1   C17  394   0.956   5.130   9.571  0.0909 -0.0276 -0.4115
    6CHL1   H17  395   0.873   5.203   9.564 -0.6689 -0.7052  0.9845
    6CHL1   C13  396   0.998   5.134   9.720  0.6044 -0.4879  0.5989
    6CHL1   C18  397   1.138   5.075   9.741 -0.2487  0.2624 -0.5268
    6CHL1  H18A  398   1.154   4.982   9.681  0.2126  0.2374 -0.3691
    6CHL1  H18B  399   1.221   5.140   9.708  1.2259 -1.9947 -1.5383
    6CHL1  H18C  400   1.153   5.044   9.847  1.0511 -0.6051 -0.9403
    6CHL1   C12  401   0.987   5.280   9.786 -0.2862  0.4489  0.4994
    6CHL1  H12A  402   1.076   5.337   9.750 -0.6327  2.1856  2.2521
    6CHL1  H12B  403   0.888   5.320   9.754  0.6294  1.7207 -0.8862
    6CHL1   C11  404   1.004   5.273   9.940 -0.2804 -0.3752  0.1133
    6CHL1  H11A  405   1.108   5.238   9.955 -0.0881  0.6115  1.1941
    6CHL1  H11B  406   0.996   5.367   9.998  2.1187  0.7064 -1.1425
    6CHL1    C9  407   0.918   5.164  10.012 -0.1226  0.1632  0.2403
    6CHL1    H9  408   0.815   5.207  10.011  0.5011  1.7426 -1.0645
    6CHL1   C10  409   0.941   5.134  10.163 -0.1074 -0.0857 -0.1949
    6CHL1   C19  410   1.087   5.101  10.194 -0.5537  0.2258 -0.1414
    6CHL1  H19A  411   1.121   5.006  10.146  1.6425  0.2721  1.2052
    6CHL1  H19B  412   1.146   5.187  10.155 -2.1085  1.7044  0.6551
    6CHL1  H19C  413   1.120   5.095  10.300 -1.6611  1.2465  0.2815
    6CHL1    C1  414   0.909   5.269  10.234 -0.1871  0.4534  0.1396
    6CHL1   H1A  415   0.991   5.342  10.218 -0.8227  1.6671  2.0215
    6CHL1   H1B  416   0.809   5.312  10.212 -2.0405 -3.5965 -0.2750
    6CHL1    C2  417   0.890   5.257  10.390 -0.6587  0.5182  0.1099
    6CHL1   H2A  418   0.854   5.353  10.431  2.8230  0.7842  3.0132
    6CHL1   H2B  419   0.980   5.222  10.446  0.4424 -0.8160 -2.3326
    6CHL1   C20  420   1.059   5.160   9.458 -0.2055 -0.5689  0.5663
    6CHL1   H20  421   1.145   5.091   9.466  0.9080  0.6563 -0.2587
    6CHL1   C21  422   1.111   5.306   9.484  0.2287 -1.0058 -0.3554
    6CHL1  H21A  423   1.179   5.343   9.404 -0.7133 -1.5845 -1.4582
    6CHL1  H21B  424   1.170   5.303   9.578 -0.8087  2.0060  0.5327
    6CHL1  H21C  425   1.028   5.379   9.500 -1.8748 -2.4037 -3.6681
    6CHL1   C22  426   1.005   5.133   9.316  0.3282 -0.4249  0.6896
    6CHL1  H22A  427   0.986   5.028   9.285  1.8307 -0.3296 -0.7157
    6CHL1  H22B  428   0.905   5.178   9.301  0.8469  0.1689 -1.3423
    6CHL1   C23  429   1.097   5.162   9.200 -0.3518 -0.4536 -0.2126
    6CHL1  H23A  430   1.117   5.270   9.189 -1.8767 -0.1800 -0.5684
    6CHL1  H23B  431   1.184   5.100   9.230 -0.7912 -1.0133 -0.0641
    6CHL1   C24  432   1.050   5.106   9.070 -0.1876 -0.0700  0.7691
    6CHL1  H24A  433   1.026   4.998   9.077  0.5897 -0.2710  0.3818
    6CHL1  H24B  434   0.959   5.158   9.030  0.4785  1.3205  0.9989
    6CHL1   C25  435   1.160   5.110   8.960  0.0556 -0.3561 -0.4311
    6CHL1   H25  436   1.205   5.212   8.963 -0.8403  0.0133  1.1077
    6CHL1   C26  437   1.268   5.008   8.987 -0.4074  0.0929 -0.0202
    6CHL1  H26A  438   1.311   5.024   9.088 -1.6214  0.8694  0.3977
    6CHL1  H26B  439   1.231   4.903   8.986  0.1661 -0.1146  0.0675
    6CHL1  H26C  440   1.358   5.020   8.924  1.6182 -0.8776  2.4774
    6CHL1   C27  441   1.092   5.092   8.827 -0.4453  0.1888  0.5275
    6CHL1  H27A  442   1.047   4.992   8.812 -0.3506  0.5352 -2.6951
    6CHL1  H27B  443   1.010   5.163   8.800  0.7056  1.6891  0.8726
    6CHL1  H27C  444   1.164   5.108   8.744 -2.3126 -0.6464 -1.3370
    7CHL1    C3  445   6.550   1.544  10.191 -0.3260  0.1122 -0.6119
    7CHL1    H3  446   6.562   1.651  10.164 -0.9322  0.3151 -0.0898
    7CHL1    O3  447   6.529   1.534  10.332  0.3217  0.2983  0.2697
    7CHL1   H3'  448   6.554   1.443  10.349  1.3324 -0.0862 -2.6233
    7CHL1    C4  449   6.441   1.470  10.115  0.0795 -0.9514 -0.5025
    7CHL1   H4A  450   6.413   1.377  10.168 -2.3579  0.0468  0.1063
    7CHL1   H4B  451   6.349   1.528  10.138  2.3813  3.0202 -0.4764
    7CHL1    C5  452   6.467   1.462   9.965 -0.7199 -0.1619  0.1530
    7CHL1    C6  453   6.382   1.515   9.874 -0.7405  0.4920  0.5386
    7CHL1    H6  454   6.290   1.559   9.915 -0.4697  1.6681 -0.0788
    7CHL1    C7  455   6.403   1.493   9.722 -0.7150 -0.3302 -0.3098
    7CHL1   H7A  456   6.308   1.451   9.683 -0.4223 -0.8962 -0.4283
    7CHL1   H7B  457   6.418   1.586   9.663  1.1803 -1.4002 -1.6382
    7CHL1    C8  458   6.520   1.400   9.694  0.6084  0.6379  0.7512
    7CHL1    H8  459   6.494   1.294   9.718 -0.7026  1.0653  1.2803
    7CHL1   C14  460   6.552   1.395   9.537 -0.8065  0.4331  0.2164
    7CHL1   H14  461   6.581   1.499   9.508 -0.7844  0.9335  1.9176
    7CHL1   C15  462   6.449   1.342   9.438  0.2390  0.6291  0.2693
    7CHL1  H15A  463   6.420   1.240   9.470  2.4442  0.1687  0.9681
    7CHL1  H15B  464   6.356   1.399   9.417 -0.2320 -0.7939 -1.8953
    7CHL1   C16  465   6.530   1.334   9.307  0.0012  0.4642 -0.7278
    7CHL1  H16A  466   6.491   1.246   9.251 -1.0344  0.7980 -0.5500
    7CHL1  H16B  467   6.519   1.430   9.253  0.1412  1.2168  0.5537
    7CHL1   C17  468   6.679   1.332   9.352 -0.0042  0.3260 -0.4128
    7CHL1   H17  469   6.721   1.434   9.343  3.0799 -0.5742  1.7575
    7CHL1   C13  470   6.677   1.310   9.505 -0.2129 -0.7591  0.1535
    7CHL1   C18  471   6.668   1.159   9.542  0.3235  0.1281  1.3638
    7CHL1  H18A  472   6.761   1.102   9.563  0.5075 -0.5222 -0.9947
    7CHL1  H18B  473   6.601   1.140   9.629  1.7356 -1.6096  2.1337
    7CHL1  H18C  474   6.619   1.107   9.457 -0.2089 -0.9306  2.2887
    7CHL1   C12  475   6.797   1.376   9.586 -0.1298  0.3036 -0.3638
    7CHL1  H12A  476   6.892   1.326   9.559 -0.6350 -1.3999  0.8405
    7CHL1  H12B  477   6.816   1.484   9.565 -1.8407  0.8437  0.6198
    7CHL1   C11  478   6.776   1.362   9.733  0.7349 -0.6470  0.2857
    7CHL1  H11A  479   6.785   1.253   9.753 -1.6898 -0.6177  1.9427
    7CHL1  H11B  480   6.863   1.401   9.790  1.8370 -1.8213 -0.5236
    7CHL1    C9  481   6.644   1.433   9.782 -0.0009  0.1559  0.7349
    7CHL1    H9  482   6.662   1.539   9.756 -1.1317  0.0872 -0.4720
    7CHL1   C10  483   6.609   1.414   9.931  1.0120 -0.3839 -1.0675
    7CHL1   C19  484   6.619   1.256   9.965  0.1038 -0.4674 -0.6344
    7CHL1  H19A  485   6.607   1.208   9.866  1.9257 -2.2281 -0.0762
    7CHL1  H19B  486   6.720   1.237  10.009 -0.3306  3.1422  2.5511
    7CHL1  H19C  487   6.543   1.226  10.040  0.5110  0.7295  0.3164
    7CHL1    C1  488   6.716   1.483  10.013  0.6446 -0.1716 -0.6501
    7CHL1   H1A  489   6.819   1.446   9.995  0.8324  0.3262 -0.6225
    7CHL1   H1B  490   6.719   1.590   9.984 -3.0650  0.2075 -0.1516
    7CHL1    C2  491   6.685   1.478  10.165 -0.7013  0.4221 -0.1175
    7CHL1   H2A  492   6.759   1.539  10.220 -2.0291  0.1308  2.1456
    7CHL1   H2B  493   6.689   1.373  10.203 -0.0205  0.3173 -0.4816
    7CHL1   C20  494   6.767   1.238   9.262  0.6126  0.4323 -0.1475
    7CHL1   H20  495   6.734   1.133   9.276  1.0265  0.0125 -1.9895
    7CHL1   C21  496   6.917   1.242   9.307 -0.0425 -0.2309 -0.0288
    7CHL1  H21A  497   6.928   1.352   9.301 -1.7089  0.0995  1.7042
    7CHL1  H21B  498   6.983   1.198   9.230  1.3947  0.0318  1.0198
    7CHL1  H21C  499   6.921   1.212   9.414 -0.3730  1.0601  0.3616
    7CHL1   C22  500   6.754   1.265   9.113  0.2857  0.1545  1.0203
    7CHL1  H22A  501   6.648   1.275   9.082  0.7814  0.3113 -0.7288
    7CHL1  H22B  502   6.799   1.362   9.082 -2.2877  0.7728 -1.2142
    7CHL1   C23  503   6.812   1.153   9.024 -0.2064  0.0318  0.3694
    7CHL1  H23A  504   6.922   1.138   9.035  0.2738  1.3996 -1.8357
    7CHL1  H23B  505   6.764   1.059   9.059  0.2132 -0.5368 -0.5129
    7CHL1   C24  506   6.769   1.169   8.872 -0.2884 -0.0942  0.4166
    7CHL1  H24A  507   6.659   1.180   8.866 -0.1695  1.5970  0.8529
    7CHL1  H24B  508   6.805   1.266   8.832 -1.1370 -0.2511 -0.7668
    7CHL1   C25  509   6.816   1.052   8.780  0.6238 -0.9399  0.3081
    7CHL1   H25  510   6.777   0.963   8.835 -0.9813  0.3900  1.4251
    7CHL1   C26  511   6.739   1.074   8.651 -0.2484  0.6131  0.3468
    7CHL1  H26A  512   6.757   1.174   8.608 -2.5368  1.6302  1.5946
    7CHL1  H26B  513   6.752   0.993   8.575 -1.8295  1.0394 -0.4292
    7CHL1  H26C  514   6.629   1.062   8.667  0.0881 -1.1601  1.6878
    7CHL1   C27  515   6.966   1.043   8.761  0.2804 -0.2774 -0.9274
    7CHL1  H27A  516   7.006   1.134   8.712 -0.8498 -0.8184 -2.9919
    7CHL1  H27B  517   7.019   1.023   8.856 -0.4580 -2.1688 -0.8688
    7CHL1  H27C  518   6.979   0.965   8.683  0.1397 -0.6727 -0.5615
    8CHL1    C3  519   5.693   3.186  10.128  0.3596  0.5086 -0.1146
    8CHL1    H3  520   5.719   3.078  10.131 -2.7362 -0.3844 -0.9519
    8CHL1    O3  521   5.669   3.224  10.258 -0.5971  0.2542 -0.0838
    8CHL1   H3'  522   5.594   3.175  10.292 -0.4882  0.7955  0.9847
    8CHL1    C4  523   5.813   3.270  10.074  0.2841 -0.3247 -0.7969
    8CHL1   H4A  524   5.798   3.379  10.091  0.3405 -0.0582 -2.3215
    8CHL1   H4B  525   5.897   3.239  10.139  1.0354  0.3833 -1.4089
    8CHL1    C5  526   5.837   3.234   9.928  0.7815 -0.0718  0.0345
    8CHL1    C6  527   5.953   3.196   9.884 -0.3825  0.3346  0.1567
    8CHL1    H6  528   6.034   3.184   9.957  0.1760 -0.6801 -0.6122
    8CHL1    C7  529   5.995   3.160   9.741  0.5772 -0.3960 -0.4026
    8CHL1   H7A  530   6.080   3.226   9.714  1.1093 -0.8718  0.0888
    8CHL1   H7B  531   6.029   3.055   9.745 -4.8408 -2.5434 -1.3272
    8CHL1    C8  532   5.873   3.204   9.647 -0.6753 -0.1339 -0.0883
    8CHL1    H8  533   5.888   3.310   9.619  0.4696 -0.5252 -1.0723
    8CHL1   C14  534   5.903   3.137   9.515 -0.2686 -0.1852  0.2820
    8CHL1   H14  535   5.894   3.029   9.538 -1.7235  0.0064  0.7763
    8CHL1   C15  536   6.047   3.147   9.451 -0.5669  0.3292 -0.1535
    8CHL1  H15A  537   6.081   3.252   9.439  0.1367 -0.0403 -1.6541
    8CHL1  H15B  538   6.116   3.078   9.505  0.5070 -0.0826 -1.9651
    8CHL1   C16  539   6.027   3.101   9.307  0.0935 -0.0001 -0.1302
    8CHL1  H16A  540   6.069   3.184   9.247  0.8804 -1.1628 -1.2192
    8CHL1  H16B  541   6.073   3.004   9.277 -1.2662 -0.1411 -1.9133
    8CHL1   C17  542   5.874   3.085   9.292  0.1070 -0.1323 -0.2641
    8CHL1   H17  543   5.850   2.978   9.309 -2.4934  0.1396 -1.6035
    8CHL1   C13  544   5.801   3.166   9.406 -0.2895 -0.0175 -0.3270
    8CHL1   C18  545   5.809   3.318   9.373  0.1318  0.0390  0.1796
    8CHL1  H18A  546   5.729   3.335   9.297 -4.6179 -4.1713  3.5304
    8CHL1  H18B  547   5.785   3.373   9.466  2.5157  0.6283  0.5235
    8CHL1  H18C  548   5.907   3.346   9.329  0.0349  0.4655  0.2325
    8CHL1   C12  549   5.666   3.123   9.456 -0.2485  0.3540 -0.7297
    8CHL1  H12A  550   5.585   3.132   9.380 -0.0208 -1.6889 -1.2815
    8CHL1  H12B  551   5.674   3.012   9.464 -2.2724  0.2758  1.5491
    8CHL1   C11  552   5.622   3.183   9.592 -0.5690 -0.0146  0.0667
    8CHL1  H11A  553   5.601   3.291   9.579 -0.0357  0.2849  1.4556
    8CHL1  H11B  554   5.538   3.118   9.625 -0.1632 -1.2092 -1.1747
    8CHL1    C9  555   5.737   3.169   9.699 -0.3680  0.7661 -0.6171
    8CHL1    H9  556   5.730   3.060   9.715 -0.4244  0.8482 -0.0371
    8CHL1   C10  557   5.707   3.236   9.839 -0.1217  0.7859  0.4927
    8CHL1   C19  558   5.681   3.387   9.818  0.4681 -1.0663  0.1908
    8CHL1  H19A  559   5.580   3.408   9.777  0.7111 -0.1626  0.0097
    8CHL1  H19B  560   5.690   3.442   9.914  0.5103 -1.3237  0.3344
    8CHL1  H19C  561   5.758   3.433   9.752  0.1673 -1.1030 -0.1918
    8CHL1    C1  562   5.582   3.171   9.905  0.0537  0.6861 -0.7181
    8CHL1   H1A  563   5.496   3.214   9.849 -0.0043  3.1982  1.1264
    8CHL1   H1B  564   5.564   3.062   9.893  0.5454  0.3855  0.9956
    8CHL1    C2  565   5.563   3.207  10.051  0.1303 -0.2908 -0.4031
    8CHL1   H2A  566   5.480   3.148  10.096  0.6990 -0.1630  0.8546
    8CHL1   H2B  567   5.536   3.314  10.057 -0.7399 -0.3390 -2.6391
    8CHL1   C20  568   5.835   3.128   9.149 -0.4874  0.2190  0.2941
    8CHL1   H20  569   5.877   3.228   9.127  0.9145 -0.4287 -0.0829
    8CHL1   C21  570   5.682   3.139   9.116 -0.3005 -0.6909 -0.2140
    8CHL1  H21A  571   5.679   3.191   9.018 -0.3776  0.0197  0.1595
    8CHL1  H21B  572   5.627   3.204   9.188  0.7274 -0.4423  0.3622
    8CHL1  H21C  573   5.632   3.040   9.120  1.6145 -1.7328 -0.6211
    8CHL1   C22  574   5.903   3.038   9.040  0.4292  0.2372 -0.0205
    8CHL1  H22A  575   5.998   2.987   9.068  0.5577  0.2671 -0.3954
    8CHL1  H22B  576   5.834   2.952   9.030  1.0856 -0.5250  1.6104
    8CHL1   C23  577   5.916   3.097   8.900 -0.1124 -0.2365 -0.2006
    8CHL1  H23A  578   5.815   3.128   8.865  0.7096  3.2832  0.2336
    8CHL1  H23B  579   5.987   3.181   8.892  0.0725 -0.1401  1.8724
    8CHL1   C24  580   5.971   2.993   8.799  0.0355 -0.1613 -0.2833
    8CHL1  H24A  581   6.077   2.966   8.817  0.3873 -0.0751 -2.0476
    8CHL1  H24B  582   5.916   2.897   8.803  1.3008 -0.9681 -1.3475
    8CHL1   C25  583   5.939   3.034   8.649 -0.2881 -0.8896  0.1373
    8CHL1   H25  584   5.836   3.076   8.646  0.5969  1.3615 -0.9061
    8CHL1   C26  585   6.040   3.136   8.602  0.6044 -0.0437  0.1165
    8CHL1  H26A  586   6.062   3.125   8.494 -2.1985  3.4013 -0.9999
    8CHL1  H26B  587   5.991   3.235   8.614 -0.8476 -0.3352 -2.6680
    8CHL1  H26C  588   6.130   3.137   8.667  0.9941 -1.4929 -0.3646
    8CHL1   C27  589   5.954   2.912   8.559 -0.1411  0.3578 -0.4017
    8CHL1  H27A  590   5.875   2.838   8.581  0.5725 -0.6818 -1.2105
    8CHL1  H27B  591   5.940   2.946   8.454  0.4611  3.5054  0.4391
    8CHL1  H27C  592   6.052   2.861   8.568  1.9671  3.6379 -2.3498
    9CHL1    C3  593   2.759   1.150   9.955  0.1471 -0.0216  0.1450
    9CHL1    H3  594   2.795   1.245  10.000 -1.4957  1.0949 -0.7356
    9CHL1    O3  595   2.802   1.043  10.036  0.4749 -1.0605  0.2430
    9CHL1   H3'  596   2.791   0.964   9.983  0.2725 -0.1692 -1.1123
    9CHL1    C4  597   2.603   1.166   9.955 -0.1338  0.4475 -0.6870
    9CHL1   H4A  598   2.569   1.061   9.946 -2.4292  1.0553  0.3907
    9CHL1   H4B  599   2.580   1.200  10.058  0.5083 -0.1074 -0.3493
    9CHL1    C5  600   2.547   1.258   9.845  0.2825  0.4344  0.0375
    9CHL1    C6  601   2.454   1.358   9.873 -0.0886 -0.7731  0.1964
    9CHL1    H6  602   2.427   1.375   9.978 -2.6934 -0.1770 -0.5187
    9CHL1    C7  603   2.380   1.435   9.767 -0.6750 -0.0833  0.0013
    9CHL1   H7A  604   2.270   1.432   9.780 -0.5567 -0.1587  1.1484
    9CHL1   H7B  605   2.418   1.539   9.775 -0.9176 -0.0241  0.3995
    9CHL1    C8  606   2.416   1.382   9.630 -1.0621 -0.2964  0.3091
    9CHL1    H8  607   2.354   1.290   9.615  0.0068 -0.7723 -1.4699
    9CHL1   C14  608   2.372   1.477   9.525 -0.0079  0.0334  0.2955
    9CHL1   H14  609   2.435   1.568   9.533 -1.0894  0.9296 -0.8683
    9CHL1   C15  610   2.227   1.528   9.531 -0.4086  0.8002 -0.1637
    9CHL1  H15A  611   2.149   1.450   9.541 -0.1044  0.2937 -1.6129
    9CHL1  H15B  612   2.210   1.613   9.602 -3.9915 -0.1338  0.2899
    9CHL1   C16  613   2.189   1.579   9.393 -0.0959 -0.0569 -0.8285
    9CHL1  H16A  614   2.105   1.517   9.356  0.0125  0.5815 -2.2173
    9CHL1  H16B  615   2.164   1.687   9.389 -3.4883 -0.5667  1.8923
    9CHL1   C17  616   2.313   1.547   9.302  0.8327 -0.0209  0.0061
    9CHL1   H17  617   2.385   1.632   9.304 -0.2321  0.9018  2.2177
    9CHL1   C13  618   2.393   1.432   9.382  0.8445 -0.0831 -0.0513
    9CHL1   C18  619   2.319   1.302   9.347 -0.1555 -0.1615 -0.0165
    9CHL1  H18A  620   2.208   1.313   9.346 -0.0074  1.7586  0.3146
    9CHL1  H18B  621   2.360   1.277   9.246 -1.2981  0.3716 -0.6347
    9CHL1  H18C  622   2.350   1.225   9.420 -1.1835  0.7172  1.4068
    9CHL1   C12  623   2.539   1.419   9.370  0.1508 -0.1576  0.4714
    9CHL1  H12A  624   2.565   1.370   9.274 -0.0290 -3.1404  1.8103
    9CHL1  H12B  625   2.582   1.521   9.379  1.3215 -0.3057 -2.2898
    9CHL1   C11  626   2.607   1.326   9.467 -0.8381  0.1944  0.7804
    9CHL1  H11A  627   2.586   1.220   9.440 -1.6711  0.6218 -0.3555
    9CHL1  H11B  628   2.712   1.360   9.453 -1.4530  1.7746 -0.3384
    9CHL1    C9  629   2.567   1.355   9.615  0.1722 -0.1282  0.2152
    9CHL1    H9  630   2.611   1.450   9.652  0.0925  0.6823 -1.6303
    9CHL1   C10  631   2.614   1.237   9.707 -0.3523 -0.7020  0.0830
    9CHL1   C19  632   2.556   1.101   9.659 -0.2875 -0.4121 -0.1507
    9CHL1  H19A  633   2.611   1.060   9.572  1.4322 -0.0792  0.7511
    9CHL1  H19B  634   2.574   1.023   9.737 -0.1532  0.7597  1.0191
    9CHL1  H19C  635   2.446   1.108   9.646 -0.1635  1.8950 -0.2781
    9CHL1    C1  636   2.764   1.249   9.725  0.2771  0.4334 -0.4530
    9CHL1   H1A  637   2.817   1.253   9.627  2.0341  1.4376  0.4915
    9CHL1   H1B  638   2.776   1.344   9.781 -0.2571  1.7836 -2.5272
    9CHL1    C2  639   2.812   1.137   9.818 -0.2907  0.5321  0.1345
    9CHL1   H2A  640   2.922   1.138   9.828 -0.2012  1.2015 -0.8130
    9CHL1   H2B  641   2.793   1.035   9.779  0.7684  0.4530 -0.1943
    9CHL1   C20  642   2.270   1.523   9.153 -0.6717  0.6598 -0.1240
    9CHL1   H20  643   2.245   1.415   9.148  0.2989  0.4051  0.2053
    9CHL1   C21  644   2.400   1.539   9.076  0.0309 -0.6020  0.1620
    9CHL1  H21A  645   2.426   1.645   9.059  0.0900 -0.7323 -0.5742
    9CHL1  H21B  646   2.401   1.478   8.983 -0.2657 -0.8137  0.2971
    9CHL1  H21C  647   2.488   1.496   9.129 -1.5448 -1.9773  1.8007
    9CHL1   C22  648   2.156   1.617   9.101 -0.4865  0.0999  0.6078
    9CHL1  H22A  649   2.068   1.616   9.170 -0.4814  1.8005  0.6858
    9CHL1  H22B  650   2.188   1.723   9.101 -1.6313  0.4701  0.1643
    9CHL1   C23  651   2.106   1.569   8.962 -0.6139  0.4548  0.3067
    9CHL1  H23A  652   2.200   1.566   8.902  0.1993 -2.8744  1.5507
    9CHL1  H23B  653   2.070   1.465   8.974  2.3165 -0.6194  0.5949
    9CHL1   C24  654   1.999   1.663   8.898 -0.7516  0.3897 -0.3030
    9CHL1  H24A  655   1.919   1.685   8.972 -0.8865 -1.0747  0.0012
    9CHL1  H24B  656   2.067   1.750   8.882  0.2973 -0.2424  0.6704
    9CHL1   C25  657   1.933   1.608   8.772  0.5924  0.2320 -0.8690
    9CHL1   H25  658   1.891   1.511   8.803 -1.2808  0.8109 -1.4770
    9CHL1   C26  659   1.812   1.695   8.726 -0.5395  0.1731 -0.0826
    9CHL1  H26A  660   1.838   1.803   8.720  2.0103 -0.4196 -0.7429
    9CHL1  H26B  661   1.776   1.648   8.632 -0.0657 -3.6215  1.4515
    9CHL1  H26C  662   1.721   1.685   8.789 -2.2330 -0.4965 -2.4920
    9CHL1   C27  663   2.038   1.595   8.659  0.2146  0.6162 -0.2756
    9CHL1  H27A  664   2.093   1.691   8.644 -0.0601  0.6531 -1.0581
    9CHL1  H27B  665   2.110   1.512   8.674 -1.4866 -1.1640 -1.4433
    9CHL1  H27C  666   1.992   1.564   8.563  1.9597 -0.6211 -0.7635
   10CHL1    C3  667   4.091   1.620   9.890 -0.2972 -0.0771 -0.4964
   10CHL1    H3  668   4.094   1.512   9.866 -1.0702 -0.2722  0.2455
   10CHL1    O3  669   4.103   1.651  10.024  0.0728 -0.1990 -0.3280
   10CHL1   H3'  670   4.121   1.745  10.014 -0.2875  0.1659  1.8731
   10CHL1    C4  671   4.210   1.688   9.827  0.3761  0.1789 -0.0470
   10CHL1   H4A  672   4.200   1.796   9.852 -0.3591  0.3116 -0.8603
   10CHL1   H4B  673   4.304   1.648   9.870  0.8458 -0.6021 -1.7481
   10CHL1    C5  674   4.200   1.676   9.676  0.1687  0.7296  0.2677
   10CHL1    C6  675   4.295   1.612   9.605  0.2371 -0.1237 -0.1838
   10CHL1    H6  676   4.391   1.587   9.654 -0.9615  0.2298  2.4837
   10CHL1    C7  677   4.287   1.590   9.454 -0.2663  0.0714 -0.1273
   10CHL1   H7A  678   4.381   1.625   9.408  0.6493 -1.4104  0.5663
   10CHL1   H7B  679   4.273   1.481   9.439 -0.4118  0.0658  0.0445
   10CHL1    C8  680   4.176   1.676   9.381 -0.0057 -0.4743  0.1171
   10CHL1    H8  681   4.214   1.778   9.362  0.2496 -0.8534 -1.6590
   10CHL1   C14  682   4.149   1.623   9.244 -0.1850 -0.4997 -0.3990
   10CHL1   H14  683   4.098   1.524   9.251 -0.8292 -0.0656  1.6961
   10CHL1   C15  684   4.266   1.624   9.152 -0.2557 -0.0418 -0.4184
   10CHL1  H15A  685   4.327   1.717   9.158  1.6291 -1.2414 -0.2544
   10CHL1  H15B  686   4.343   1.547   9.174  2.5629  3.0685  1.7373
   10CHL1   C16  687   4.201   1.612   9.008  0.8854 -0.5328 -0.5454
   10CHL1  H16A  688   4.247   1.677   8.931 -0.3504  0.4153 -0.5071
   10CHL1  H16B  689   4.210   1.510   8.964  1.0372 -0.2421 -1.1883
   10CHL1   C17  690   4.056   1.651   9.027 -0.0210  0.4776 -0.2856
   10CHL1   H17  691   3.990   1.563   9.041 -0.8190  1.4280  2.7619
   10CHL1   C13  692   4.044   1.713   9.165 -0.1730 -0.1402  0.3990
   10CHL1   C18  693   4.089   1.863   9.140 -0.1163 -0.0058  0.6897
   10CHL1  H18A  694   4.108   1.908   9.240  0.0822  0.4796  0.4333
   10CHL1  H18B  695   4.184   1.866   9.084  0.2435 -1.1459  1.2121
   10CHL1  H18C  696   4.005   1.917   9.092 -2.0012 -0.6303  3.0637
   10CHL1   C12  697   3.912   1.697   9.240  0.3575 -0.2879 -0.7162
   10CHL1  H12A  698   3.823   1.745   9.193  0.0605 -1.3440 -1.2611
   10CHL1  H12B  699   3.893   1.588   9.233 -0.0136 -0.3504  0.8776
   10CHL1   C11  700   3.930   1.748   9.394 -0.1916 -0.2655  0.3532
   10CHL1  H11A  701   3.943   1.858   9.386  2.4313 -0.5789 -0.9531
   10CHL1  H11B  702   3.835   1.733   9.451 -0.6287  1.1576  0.0361
   10CHL1    C9  703   4.046   1.673   9.466 -0.9095  0.5631  0.0297
   10CHL1    H9  704   4.017   1.566   9.467  0.2362  0.1619 -2.3816
   10CHL1   C10  705   4.062   1.714   9.610 -0.5183 -0.1834 -0.0701
   10CHL1   C19  706   4.071   1.870   9.615 -0.1093 -0.1752  0.0765
   10CHL1  H19A  707   3.981   1.922   9.574  0.1438  0.5548  0.4353
   10CHL1  H19B  708   4.083   1.900   9.721  1.1459 -2.0034  0.5079
   10CHL1  H19C  709   4.158   1.901   9.554  0.9672 -1.3305  0.9942
   10CHL1    C1  710   3.945   1.650   9.692  0.9089  0.4617  0.4522
   10CHL1   H1A  711   3.851   1.690   9.650 -0.3093 -0.1096  2.4885
   10CHL1   H1B  712   3.939   1.540   9.675  0.2002  0.5388  0.1632
   10CHL1    C2  713   3.958   1.676   9.842  0.3849 -0.3486  0.7681
   10CHL1   H2A  714   3.867   1.633   9.890 -1.1760 -0.1878 -1.7886
   10CHL1   H2B  715   3.944   1.785   9.858  2.9392  0.3917 -1.3868
   10CHL1   C20  716   3.989   1.722   8.906  0.0806 -0.0274 -0.1912
   10CHL1   H20  717   4.047   1.817   8.895  0.0000 -0.0794 -1.2001
   10CHL1   C21  718   3.846   1.761   8.929  0.2756  0.1576  0.3008
   10CHL1  H21A  719   3.793   1.683   8.988  1.9033 -2.1241 -1.0986
   10CHL1  H21B  720   3.798   1.786   8.832  1.2143 -1.4733 -0.6192
   10CHL1  H21C  721   3.847   1.853   8.992 -0.8513  2.4147 -2.7081
   10CHL1   C22  722   4.000   1.651   8.768  0.3449 -0.4285  0.1960
   10CHL1  H22A  723   4.092   1.591   8.761  0.0697 -1.0604  1.7068
   10CHL1  H22B  724   3.910   1.587   8.759 -0.3036  0.1637  1.9464
   10CHL1   C23  725   3.986   1.751   8.644 -0.0266 -0.0691 -0.6347
   10CHL1  H23A  726   3.890   1.806   8.658  0.7028  1.3932 -1.1983
   10CHL1  H23B  727   4.074   1.818   8.638 -1.2307  1.8385  1.4547
   10CHL1   C24  728   3.976   1.678   8.511  0.2544 -0.6445 -0.0191
   10CHL1  H24A  729   4.073   1.638   8.475 -0.1847 -1.9220  0.1672
   10CHL1  H24B  730   3.922   1.581   8.515 -0.5340 -0.1804  1.4168
   10CHL1   C25  731   3.935   1.769   8.394 -0.0864  0.0994 -0.3629
   10CHL1   H25  732   3.988   1.866   8.405 -1.8974  0.9318  1.5658
   10CHL1   C26  733   3.976   1.714   8.256 -0.1981 -0.0013  0.9438
   10CHL1  H26A  734   3.937   1.610   8.246 -2.2840  0.9506 -2.2894
   10CHL1  H26B  735   3.929   1.779   8.179 -2.0405  0.1595  2.1422
   10CHL1  H26C  736   4.086   1.718   8.241  0.0124  0.7352  2.5351
   10CHL1   C27  737   3.778   1.790   8.395 -0.4925 -0.0690 -0.3366
   10CHL1  H27A  738   3.733   1.690   8.380 -1.7413  0.0032  2.3139
   10CHL1  H27B  739   3.750   1.816   8.500 -0.8045 -1.3830 -0.0812
   10CHL1  H27C  740   3.742   1.876   8.334  1.0035 -0.1330 -1.3651
   11CHL1    C3  741   5.474   1.018  10.145  0.5495 -0.2421 -0.1110
   11CHL1    H3  742   5.544   0.938  10.114  0.7660  0.4397 -1.4472
   11CHL1    O3  743   5.491   1.043  10.287  0.0370 -0.0266 -0.6362
   11CHL1   H3'  744   5.440   1.124  10.301 -0.2389 -0.0868 -1.2659
   11CHL1    C4  745   5.503   1.148  10.062 -0.5099 -0.5451  0.3377
   11CHL1   H4A  746   5.449   1.240  10.093  0.8159  1.3293 -2.4603
   11CHL1   H4B  747   5.614   1.158  10.071 -0.3390 -0.1313 -1.6873
   11CHL1    C5  748   5.468   1.140   9.913  0.6691 -0.1251  0.0510
   11CHL1    C6  749   5.566   1.156   9.825  0.0264  0.9817 -0.3527
   11CHL1    H6  750   5.660   1.193   9.869  0.6319 -0.8070 -0.0477
   11CHL1    C7  751   5.538   1.158   9.679  0.3809  0.3448 -1.0035
   11CHL1   H7A  752   5.590   1.242   9.628  0.5578 -0.1752 -1.7062
   11CHL1   H7B  753   5.595   1.077   9.628  2.0075 -0.0983  1.3768
   11CHL1    C8  754   5.386   1.138   9.645  0.9336  0.5508  0.3402
   11CHL1    H8  755   5.335   1.237   9.649  1.4305  0.7825  1.4297
   11CHL1   C14  756   5.379   1.084   9.504 -0.0455  0.4345  0.4148
   11CHL1   H14  757   5.436   0.989   9.512  0.3892  0.6009 -0.6236
   11CHL1   C15  758   5.456   1.156   9.394 -0.9688  0.2119 -0.5420
   11CHL1  H15A  759   5.441   1.266   9.398 -3.8265 -0.1638  1.1421
   11CHL1  H15B  760   5.564   1.130   9.402 -1.2302 -0.4125  1.2755
   11CHL1   C16  761   5.396   1.110   9.259 -0.4637 -0.4552 -0.7101
   11CHL1  H16A  762   5.357   1.190   9.193  0.5737 -0.9257 -1.9282
   11CHL1  H16B  763   5.471   1.052   9.202  2.1898  0.8583  1.2364
   11CHL1   C17  764   5.288   1.006   9.294 -0.2829 -0.5222 -0.5231
   11CHL1   H17  765   5.337   0.909   9.319  0.7693  0.2485  0.4789
   11CHL1   C13  766   5.245   1.057   9.440 -0.0136  0.4333 -0.1589
   11CHL1   C18  767   5.171   1.189   9.417 -0.5074  0.3983 -1.0968
   11CHL1  H18A  768   5.164   1.250   9.510 -0.1912 -1.4744  0.2082
   11CHL1  H18B  769   5.219   1.257   9.343 -0.6290  1.3102 -0.3637
   11CHL1  H18C  770   5.071   1.164   9.377  0.1446 -0.3044 -2.3331
   11CHL1   C12  771   5.173   0.958   9.533  0.1995  0.5114  0.1469
   11CHL1  H12A  772   5.080   0.922   9.483  1.9972 -0.4192 -2.8373
   11CHL1  H12B  773   5.238   0.868   9.531  0.1819  0.5048 -0.3643
   11CHL1   C11  774   5.174   1.010   9.678  0.2191 -0.0508  0.3354
   11CHL1  H11A  775   5.108   1.099   9.684 -0.0350  0.0191 -2.3174
   11CHL1  H11B  776   5.141   0.929   9.746  2.6349 -0.5416  1.0185
   11CHL1    C9  777   5.313   1.045   9.735  0.3670 -0.5494  0.6474
   11CHL1    H9  778   5.370   0.949   9.730  0.6028 -0.3951  0.3054
   11CHL1   C10  779   5.326   1.085   9.885  0.3119  0.3267 -0.7840
   11CHL1   C19  780   5.228   1.204   9.931 -0.3245 -0.1898  0.7757
   11CHL1  H19A  781   5.252   1.301   9.882  0.0876  0.9411  3.1126
   11CHL1  H19B  782   5.121   1.173   9.922 -0.3152 -0.3860  1.3116
   11CHL1  H19C  783   5.237   1.209  10.041 -0.1061  1.2997  0.7079
   11CHL1    C1  784   5.311   0.945   9.963 -0.1125  0.0538 -0.1111
   11CHL1   H1A  785   5.217   0.892   9.937  0.3640 -0.6400 -0.4695
   11CHL1   H1B  786   5.396   0.880   9.933  1.4582  1.9162  0.1018
   11CHL1    C2  787   5.327   0.969  10.115 -0.6544 -0.5025  0.0090
   11CHL1   H2A  788   5.307   0.869  10.159 -1.2419 -1.1284 -1.5744
   11CHL1   H2B  789   5.257   1.048  10.150 -0.0401  0.3484 -0.6314
   11CHL1   C20  790   5.186   0.991   9.182 -0.1302 -0.1718 -0.9964
   11CHL1   H20  791   5.154   1.093   9.151  1.3687  1.5623  2.5384
   11CHL1   C21  792   5.054   0.920   9.227 -0.3107  0.2419 -0.0665
   11CHL1  H21A  793   5.076   0.830   9.290  0.8100  2.3377  2.7729
   11CHL1  H21B  794   4.994   0.896   9.137  0.5554  3.0597 -1.5080
   11CHL1  H21C  795   4.992   0.988   9.290  0.5840  1.9946 -1.0003
   11CHL1   C22  796   5.245   0.930   9.053 -0.0606 -0.2704 -0.6860
   11CHL1  H22A  797   5.183   0.962   8.967 -0.2411  0.3401 -0.3324
   11CHL1  H22B  798   5.342   0.980   9.033  0.5366 -0.7811  0.7985
   11CHL1   C23  799   5.266   0.775   9.056 -0.6537  0.3548  0.3666
   11CHL1  H23A  800   5.331   0.747   9.142  4.2325  1.3821 -2.5826
   11CHL1  H23B  801   5.165   0.731   9.068 -2.3178  2.6566 -3.3316
   11CHL1   C24  802   5.363   0.725   8.937 -0.1500  0.0937 -0.5474
   11CHL1  H24A  803   5.454   0.789   8.935  0.8404 -1.2355 -3.3887
   11CHL1  H24B  804   5.401   0.628   8.976 -0.9893  0.2373  0.6879
   11CHL1   C25  805   5.291   0.725   8.795 -0.1151  0.5989 -0.2757
   11CHL1   H25  806   5.258   0.828   8.770 -0.3326  0.7527  0.6190
   11CHL1   C26  807   5.391   0.673   8.690  0.0060  0.0210 -0.4008
   11CHL1  H26A  808   5.477   0.744   8.699 -1.7029  2.1742 -0.2004
   11CHL1  H26B  809   5.437   0.574   8.711  0.0542  0.5167  2.1558
   11CHL1  H26C  810   5.343   0.677   8.590 -0.5558 -2.8571 -0.3284
   11CHL1   C27  811   5.170   0.631   8.779  0.0458  0.3593  0.1746
   11CHL1  H27A  812   5.129   0.639   8.676  1.1409  1.0915 -0.2110
   11CHL1  H27B  813   5.194   0.526   8.807  0.2630  0.6750  1.2235
   11CHL1  H27C  814   5.089   0.661   8.850  0.1667 -0.1974  0.5593
   12CHL1    C3  815   1.313   2.261   9.609  0.2891 -0.0094  0.3466
   12CHL1    H3  816   1.412   2.291   9.568 -0.0617  1.4540  0.4836
   12CHL1    O3  817   1.273   2.336   9.720  0.0726 -0.9692 -0.0518
   12CHL1   H3'  818   1.354   2.340   9.772 -0.5445  1.3629  0.8578
   12CHL1    C4  819   1.208   2.280   9.500 -0.0309 -0.0131 -0.3570
   12CHL1   H4A  820   1.112   2.250   9.545 -1.0280  1.4891 -1.3652
   12CHL1   H4B  821   1.197   2.390   9.483 -1.4902  0.1759  1.5081
   12CHL1    C5  822   1.241   2.202   9.377 -0.5565 -0.3315 -0.2775
   12CHL1    C6  823   1.259   2.265   9.261  0.2672 -0.0210 -0.0778
   12CHL1    H6  824   1.252   2.375   9.263 -0.1186  0.0207 -2.0302
   12CHL1    C7  825   1.296   2.207   9.136  0.2503  0.3349 -0.3394
   12CHL1   H7A  826   1.240   2.256   9.053  0.2602  0.5184 -0.2371
   12CHL1   H7B  827   1.399   2.228   9.102  0.1811  0.7827 -0.2728
   12CHL1    C8  828   1.267   2.052   9.140 -0.8572  0.0669 -0.5671
   12CHL1    H8  829   1.158   2.029   9.141 -0.6265 -1.0617  0.5310
   12CHL1   C14  830   1.336   1.988   9.024 -0.0794 -0.4047  0.6686
   12CHL1   H14  831   1.446   2.000   9.036  0.1197  0.0109 -1.2442
   12CHL1   C15  832   1.294   2.040   8.886 -0.6053 -0.6215  1.2239
   12CHL1  H15A  833   1.183   2.040   8.883 -0.6157  0.6595  1.1094
   12CHL1  H15B  834   1.333   2.143   8.868 -1.6842 -0.5455 -1.0746
   12CHL1   C16  835   1.355   1.940   8.789  0.1415 -0.2529 -0.1877
   12CHL1  H16A  836   1.276   1.919   8.713 -0.6770  0.2881  0.4885
   12CHL1  H16B  837   1.448   1.975   8.741  2.0928 -1.5122  2.4035
   12CHL1   C17  838   1.392   1.814   8.872 -0.1980  0.1070  0.0296
   12CHL1   H17  839   1.501   1.817   8.892  0.1029 -1.1062 -1.3054
   12CHL1   C13  840   1.324   1.832   9.009 -0.9154 -0.1347 -0.1990
   12CHL1   C18  841   1.174   1.794   8.994 -0.1526  0.2433 -0.7145
   12CHL1  H18A  842   1.115   1.856   8.923  0.4051  0.6759 -0.8021
   12CHL1  H18B  843   1.156   1.689   8.962 -1.5020  0.3515 -0.3482
   12CHL1  H18C  844   1.124   1.800   9.093  0.3517 -0.9808 -0.3550
   12CHL1   C12  845   1.388   1.769   9.133  0.1502  1.1608  0.5750
   12CHL1  H12A  846   1.382   1.658   9.143 -1.0955  1.0620 -0.8616
   12CHL1  H12B  847   1.495   1.799   9.129  0.2430  1.2419  2.7176
   12CHL1   C11  848   1.327   1.830   9.261  0.0197 -0.0666 -0.5056
   12CHL1  H11A  849   1.220   1.803   9.268  0.6000 -2.1112  1.9035
   12CHL1  H11B  850   1.380   1.782   9.346 -1.8589 -2.8861 -0.8059
   12CHL1    C9  851   1.327   1.987   9.269 -0.0641 -0.2921  0.1448
   12CHL1    H9  852   1.432   2.022   9.269 -0.5854  1.5435 -2.2905
   12CHL1   C10  853   1.267   2.047   9.401 -0.2663 -0.1333  0.8241
   12CHL1   C19  854   1.129   1.985   9.441  0.4819  0.0820  0.2299
   12CHL1  H19A  855   1.074   2.039   9.521  1.2554  1.3612 -0.0689
   12CHL1  H19B  856   1.059   1.972   9.355  0.8152  1.3293 -0.2486
   12CHL1  H19C  857   1.143   1.884   9.486 -0.0075 -0.6746 -1.2579
   12CHL1    C1  858   1.361   2.021   9.519  0.2802 -0.7314 -0.9124
   12CHL1   H1A  859   1.346   1.917   9.555 -2.3390  0.4119  1.6733
   12CHL1   H1B  860   1.468   2.042   9.496  1.1257  0.0469  3.0291
   12CHL1    C2  861   1.325   2.109   9.650 -0.0985  0.6720 -0.7190
   12CHL1   H2A  862   1.407   2.105   9.725 -0.9910  0.9739  0.3043
   12CHL1   H2B  863   1.231   2.068   9.694 -0.4195  0.7783 -1.2936
   12CHL1   C20  864   1.363   1.686   8.790  0.4294  0.0002  0.2522
   12CHL1   H20  865   1.252   1.682   8.782  0.3435  2.7433 -1.0484
   12CHL1   C21  866   1.410   1.568   8.869  0.2851 -0.4149 -0.8175
   12CHL1  H21A  867   1.330   1.552   8.944  0.0960  1.3568 -0.5923
   12CHL1  H21B  868   1.509   1.576   8.919  1.2574 -2.1783 -2.3322
   12CHL1  H21C  869   1.415   1.476   8.807  1.2119 -0.5902 -0.4906
   12CHL1   C22  870   1.434   1.675   8.658 -0.0253  0.3878 -0.1423
   12CHL1  H22A  871   1.448   1.779   8.622 -1.1371  0.6440  0.1414
   12CHL1  H22B  872   1.540   1.648   8.679 -0.3099 -1.5254 -1.0192
   12CHL1   C23  873   1.383   1.571   8.560 -0.1062 -0.4391 -0.2207
   12CHL1  H23A  874   1.388   1.470   8.604  0.5770 -0.6179 -0.7061
   12CHL1  H23B  875   1.276   1.600   8.550  0.4596  2.0530  0.3285
   12CHL1   C24  876   1.446   1.571   8.416 -0.1818 -0.3182 -0.3239
   12CHL1  H24A  877   1.399   1.650   8.354 -0.6545  0.4412  0.9678
   12CHL1  H24B  878   1.554   1.593   8.427 -0.5868  1.9873 -0.5755
   12CHL1   C25  879   1.435   1.437   8.342 -0.4143  0.5423 -0.4853
   12CHL1   H25  880   1.467   1.357   8.412 -0.5410  1.5534  0.7810
   12CHL1   C26  881   1.291   1.419   8.296  0.7528 -0.3554 -0.6797
   12CHL1  H26A  882   1.252   1.508   8.244 -2.0978 -0.4635  1.0307
   12CHL1  H26B  883   1.273   1.324   8.241 -2.9719 -0.9881  1.2402
   12CHL1  H26C  884   1.221   1.407   8.382  0.3558  1.6550 -0.6793
   12CHL1   C27  885   1.522   1.440   8.217  1.2106 -0.1562 -0.2066
   12CHL1  H27A  886   1.630   1.456   8.242  1.5484 -0.3020 -1.5111
   12CHL1  H27B  887   1.512   1.341   8.168 -1.7839 -0.0794  0.0661
   12CHL1  H27C  888   1.497   1.528   8.155  1.0226  0.7441  1.0986
   13CHL1    C3  889   2.446   4.119  10.218  0.0574  0.4905 -0.3246
   13CHL1    H3  890   2.474   4.226  10.214 -0.8585  0.7085 -3.0349
   13CHL1    O3  891   2.462   4.073  10.346 -0.1405  0.4421  0.1205
   13CHL1   H3'  892   2.533   4.009  10.339  0.4472  1.1179 -0.1698
   13CHL1    C4  893   2.295   4.113  10.185 -0.0076 -1.2315 -0.1113
   13CHL1   H4A  894   2.258   4.015  10.221  1.4648 -0.6724  3.3247
   13CHL1   H4B  895   2.251   4.185  10.258  0.7550  1.9325 -2.5356
   13CHL1    C5  896   2.254   4.141  10.047 -0.1920  0.8504 -0.4123
   13CHL1    C6  897   2.149   4.219   9.998 -0.3788 -0.0886 -0.0153
   13CHL1    H6  898   2.094   4.278  10.072  3.5260  0.7729  2.5423
   13CHL1    C7  899   2.116   4.240   9.853 -0.0383 -0.3510 -0.1259
   13CHL1   H7A  900   2.006   4.229   9.840 -0.2329 -0.9262  1.7533
   13CHL1   H7B  901   2.151   4.342   9.827 -1.7654  0.6202  1.1755
   13CHL1    C8  902   2.185   4.147   9.756 -1.1764 -0.5061 -0.0889
   13CHL1    H8  903   2.124   4.054   9.757 -2.2342  0.1465 -1.0155
   13CHL1   C14  904   2.179   4.201   9.614 -0.3612 -0.3824  0.3153
   13CHL1   H14  905   2.245   4.289   9.628 -0.1865 -0.5579  0.6047
   13CHL1   C15  906   2.043   4.247   9.563 -0.2114  0.1488  0.0228
   13CHL1  H15A  907   1.965   4.181   9.607 -0.6031  0.8793  0.4361
   13CHL1  H15B  908   2.018   4.345   9.608  3.2005 -0.0446  2.7383
   13CHL1   C16  909   2.059   4.250   9.414  0.0048  0.0469 -0.2762
   13CHL1  H16A  910   1.990   4.179   9.363 -0.0507 -0.9094  1.0923
   13CHL1  H16B  911   2.059   4.352   9.369  1.0877  1.3562  2.4771
   13CHL1   C17  912   2.202   4.198   9.389  0.4736 -0.1617  0.5077
   13CHL1   H17  913   2.271   4.285   9.393  0.1194  0.1244  0.4809
   13CHL1   C13  914   2.248   4.114   9.506 -0.0301 -0.3091  0.6873
   13CHL1   C18  915   2.181   3.973   9.484  0.0936 -0.8361  0.2243
   13CHL1  H18A  916   2.192   3.910   9.574 -2.6813  1.1337  2.0918
   13CHL1  H18B  917   2.072   3.979   9.464 -0.0234  0.4692  1.1053
   13CHL1  H18C  918   2.227   3.910   9.405  1.9155 -1.6975  1.8954
   13CHL1   C12  919   2.396   4.095   9.551  0.3069 -0.0438  0.4427
   13CHL1  H12A  920   2.442   4.030   9.474  1.1599  1.2212 -0.1404
   13CHL1  H12B  921   2.449   4.193   9.549  0.4698 -0.0330  2.7952
   13CHL1   C11  922   2.406   4.037   9.690 -0.0119  1.2476  0.8633
   13CHL1  H11A  923   2.366   3.933   9.692  0.0285  1.2209  0.2848
   13CHL1  H11B  924   2.514   4.038   9.716 -0.2082  0.3845  1.8063
   13CHL1    C9  925   2.336   4.124   9.798 -0.1037 -0.4836 -0.1587
   13CHL1    H9  926   2.390   4.220   9.803  0.1381 -0.6869  1.5240
   13CHL1   C10  927   2.352   4.072   9.944  0.1689  0.1957 -0.4525
   13CHL1   C19  928   2.320   3.916   9.939 -0.3801 -0.0964  0.1636
   13CHL1  H19A  929   2.388   3.861   9.871 -0.9931  1.4896 -1.8351
   13CHL1  H19B  930   2.339   3.872  10.039 -0.2253  0.0673  0.2064
   13CHL1  H19C  931   2.210   3.905   9.924 -0.7648  0.4241  2.2089
   13CHL1    C1  932   2.501   4.089   9.989  0.6427  0.1453 -0.2905
   13CHL1   H1A  933   2.561   4.039   9.910  1.2242  0.3118  0.0365
   13CHL1   H1B  934   2.524   4.198   9.986  0.7338  0.2746  2.7791
   13CHL1    C2  935   2.530   4.036  10.130  0.2177 -0.4841 -0.9438
   13CHL1   H2A  936   2.638   4.054  10.148  0.4257 -1.4043 -1.2587
   13CHL1   H2B  937   2.507   3.927  10.131  2.4159 -1.0258  1.1763
   13CHL1   C20  938   2.227   4.152   9.248 -0.0509  0.8918 -0.8104
   13CHL1   H20  939   2.158   4.069   9.220  2.0058 -0.2896 -2.6039
   13CHL1   C21  940   2.371   4.110   9.218 -0.2862  0.1712  0.5492
   13CHL1  H21A  941   2.404   4.020   9.274  2.8851  0.2343 -1.0159
   13CHL1  H21B  942   2.447   4.188   9.238 -0.5921  0.6311 -0.0650
   13CHL1  H21C  943   2.371   4.077   9.112 -1.5203 -2.6775  1.3305
   13CHL1   C22  944   2.192   4.265   9.147 -0.5402 -0.4647 -0.4047
   13CHL1  H22A  945   2.082   4.279   9.154 -0.3867 -0.1453  2.8193
   13CHL1  H22B  946   2.229   4.365   9.178 -0.9501  0.0926 -1.6262
   13CHL1   C23  947   2.230   4.252   9.004 -0.0345  0.0380 -0.4336
   13CHL1  H23A  948   2.340   4.260   8.994  0.1488 -0.8710  0.6256
   13CHL1  H23B  949   2.200   4.149   8.975  1.5341 -0.0025 -2.1215
   13CHL1   C24  950   2.164   4.351   8.909 -0.6898 -0.4914  0.7963
   13CHL1  H24A  951   2.053   4.351   8.918 -0.6382  1.2810  2.0321
   13CHL1  H24B  952   2.191   4.453   8.946 -0.5003 -0.6092  0.9904
   13CHL1   C25  953   2.228   4.333   8.769  0.1175  0.0516 -0.0487
   13CHL1   H25  954   2.339   4.325   8.777  0.0303 -0.8709  0.3511
   13CHL1   C26  955   2.182   4.201   8.699  0.1007  0.3259 -0.2023
   13CHL1  H26A  956   2.073   4.206   8.675  0.3988  0.0482 -1.6837
   13CHL1  H26B  957   2.231   4.189   8.601 -3.0234  0.2404 -1.8930
   13CHL1  H26C  958   2.204   4.114   8.766  2.0674  0.7684 -0.2200
   13CHL1   C27  959   2.196   4.455   8.681 -0.3348 -0.0110  0.3480
   13CHL1  H27A  960   2.088   4.458   8.654  0.2947  1.7117 -2.3943
   13CHL1  H27B  961   2.241   4.545   8.728 -0.4803  1.1703 -1.6517
   13CHL1  H27C  962   2.251   4.442   8.585 -0.8707  0.5861 -0.0440
   14CHL1    C3  963   5.793   6.711  10.489 -0.3066  0.0378  0.1869
   14CHL1    H3  964   5.800   6.812  10.443 -1.6566  0.4390  0.8215
   14CHL1    O3  965   5.845   6.715  10.615  0.0765  0.1122  0.0387
   14CHL1   H3'  966   5.839   6.805  10.647  1.8420  0.4881 -0.5871
   14CHL1    C4  967   5.650   6.658  10.483 -0.1670 -0.2992 -0.0447
   14CHL1   H4A  968   5.651   6.555  10.524 -0.0109  0.2139  1.2879
   14CHL1   H4B  969   5.585   6.725  10.544 -0.6237  1.4505 -2.3034
   14CHL1    C5  970   5.594   6.656  10.339 -0.2740 -0.1377  0.3057
   14CHL1    C6  971   5.479   6.717  10.302  0.2041  0.1859 -0.6831
   14CHL1    H6  972   5.418   6.768  10.378 -0.6215 -1.3252 -0.2979
   14CHL1    C7  973   5.421   6.728  10.166 -0.6823 -0.1489 -0.4685
   14CHL1   H7A  974   5.315   6.695  10.172 -1.2220  1.4170 -0.8028
   14CHL1   H7B  975   5.421   6.833  10.131 -1.3160 -1.1747 -3.8261
   14CHL1    C8  976   5.490   6.618  10.075  0.4993  0.3343 -0.0875
   14CHL1    H8  977   5.453   6.516  10.100  1.1835  0.1654  0.2779
   14CHL1   C14  978   5.472   6.653   9.930  0.4666  0.0184  0.1092
   14CHL1   H14  979   5.529   6.747   9.910 -0.4635  0.7203  0.6787
   14CHL1   C15  980   5.328   6.679   9.884 -0.4783 -0.1996 -0.6748
   14CHL1  H15A  981   5.265   6.596   9.923  0.9979 -0.4109  1.3875
   14CHL1  H15B  982   5.277   6.761   9.939  0.7102  0.8489 -1.1188
   14CHL1   C16  983   5.346   6.687   9.733  0.6458 -0.0070  0.0342
   14CHL1  H16A  984   5.252   6.655   9.684 -0.5929  3.8238 -0.4215
   14CHL1  H16B  985   5.362   6.792   9.697  0.5727  0.3235  0.9491
   14CHL1   C17  986   5.475   6.613   9.694  0.2122  0.6771  0.0964
   14CHL1   H17  987   5.556   6.688   9.680  1.9640 -1.1505 -0.0273
   14CHL1   C13  988   5.530   6.553   9.817 -0.4054  0.2334 -0.0528
   14CHL1   C18  989   5.462   6.409   9.848  0.3806 -0.5293 -0.5258
   14CHL1  H18A  990   5.354   6.415   9.823  0.2613  4.4861  0.0139
   14CHL1  H18B  991   5.519   6.344   9.779  0.5026  1.9402 -2.9608
   14CHL1  H18C  992   5.478   6.391   9.956  0.4071  0.4250 -0.3585
   14CHL1   C12  993   5.683   6.544   9.847 -0.3305  0.0180  0.1671
   14CHL1  H12A  994   5.737   6.464   9.793 -1.1558 -0.4198 -0.0295
   14CHL1  H12B  995   5.727   6.640   9.813  0.5424 -0.8481 -1.2313
   14CHL1   C11  996   5.718   6.521   9.992  0.4485 -0.0270 -0.6050
   14CHL1  H11A  997   5.684   6.417  10.010  0.0226  0.3300  0.7887
   14CHL1  H11B  998   5.825   6.537  10.019  0.3412 -0.7365  0.2759
   14CHL1    C9  999   5.641   6.610  10.096 -0.3629  0.5967 -0.4466
   14CHL1    H9 1000   5.676   6.715  10.082  1.2317  0.3694  1.4450
   14CHL1   C10 1001   5.686   6.581  10.244  0.0001 -0.0320 -0.5845
   14CHL1   C19 1002   5.682   6.436  10.278 -0.4156  0.7525  0.2674
   14CHL1  H19A 1003   5.589   6.385  10.245 -0.1738 -1.9966  3.2945
   14CHL1  H19B 1004   5.765   6.383  10.227 -1.6537 -1.5354  0.5257
   14CHL1  H19C 1005   5.698   6.407  10.384 -0.9629 -3.1178 -0.5652
   14CHL1    C1 1006   5.833   6.627  10.260  0.0171  0.5719 -0.5496
   14CHL1   H1A 1007   5.907   6.568  10.201  2.0855  1.1491  1.3547
   14CHL1   H1B 1008   5.838   6.734  10.232 -2.4818  0.8500 -0.1187
   14CHL1    C2 1009   5.889   6.626  10.409 -0.1100  0.3264 -0.5115
   14CHL1   H2A 1010   5.994   6.658  10.419  0.0634  0.1864 -1.6773
   14CHL1   H2B 1011   5.895   6.526  10.456  1.5774  0.9444  0.6906
   14CHL1   C20 1012   5.471   6.529   9.565 -0.4380  0.1627  0.6978
   14CHL1   H20 1013   5.412   6.441   9.599  1.0011 -0.9409  0.4108
   14CHL1   C21 1014   5.613   6.486   9.520 -0.2521 -0.1389  0.5326
   14CHL1  H21A 1015   5.605   6.468   9.411 -0.4959  0.2396  0.4841
   14CHL1  H21B 1016   5.652   6.399   9.576  1.3298  0.5706  0.5696
   14CHL1  H21C 1017   5.680   6.571   9.542 -0.1948 -0.3577  1.2205
   14CHL1   C22 1018   5.389   6.603   9.452 -0.6665  0.6292  0.0701
   14CHL1  H22A 1019   5.295   6.654   9.483  1.0308  3.6146  0.7520
   14CHL1  H22B 1020   5.437   6.701   9.428  0.1120  0.3184  0.3237
   14CHL1   C23 1021   5.361   6.530   9.321 -1.3467  0.2345 -0.0373
   14CHL1  H23A 1022   5.450   6.491   9.267 -1.6370 -0.9272  0.2867
   14CHL1  H23B 1023   5.303   6.439   9.348 -0.6136 -0.3627 -0.4375
   14CHL1   C24 1024   5.279   6.617   9.225  0.4537 -0.0854  0.0961
   14CHL1  H24A 1025   5.179   6.640   9.268  0.3014 -0.4493 -0.0561
   14CHL1  H24B 1026   5.338   6.708   9.202  0.3440  0.1870  0.8815
   14CHL1   C25 1027   5.241   6.548   9.085  0.0078 -0.1918 -0.0042
   14CHL1   H25 1028   5.337   6.520   9.036 -0.4778 -0.7049 -0.6938
   14CHL1   C26 1029   5.173   6.413   9.104  0.8606  0.6221 -0.2940
   14CHL1  H26A 1030   5.260   6.352   9.136  1.4315  0.7558 -1.5259
   14CHL1  H26B 1031   5.095   6.408   9.183  3.4103  1.4851  2.4840
   14CHL1  H26C 1032   5.128   6.386   9.007 -1.8969  1.8286  0.5618
   14CHL1   C27 1033   5.182   6.639   8.981  0.2870 -0.0342  0.5139
   14CHL1  H27A 1034   5.149   6.582   8.893 -1.3286 -0.8466  1.6007
   14CHL1  H27B 1035   5.083   6.680   9.009 -1.9873 -3.3328 -1.9076
   14CHL1  H27C 1036   5.240   6.732   8.962  0.2559  0.0327  0.7322
   15CHL1    C3 1037   1.282   0.525  10.161 -0.2866  0.4368 -0.6917
   15CHL1    H3 1038   1.326   0.425  10.178 -0.5610  0.3804 -0.3015
   15CHL1    O3 1039   1.307   0.588  10.286 -0.3591 -0.2790  0.1674
   15CHL1   H3' 1040   1.241   0.658  10.288 -2.8279 -2.2778 -2.1221
   15CHL1    C4 1041   1.351   0.591  10.047 -0.8139 -0.6245  0.5242
   15CHL1   H4A 1042   1.318   0.697  10.050  0.6294  0.0258 -2.3245
   15CHL1   H4B 1043   1.459   0.582  10.070 -1.0518 -0.2499  1.8766
   15CHL1    C5 1044   1.321   0.531   9.908  0.3736 -0.1254  0.1392
   15CHL1    C6 1045   1.417   0.501   9.825  0.2746 -0.2568 -0.3924
   15CHL1    H6 1046   1.521   0.513   9.860  0.3388  0.9160 -0.9184
   15CHL1    C7 1047   1.404   0.443   9.690  0.4443 -0.1898 -0.5690
   15CHL1   H7A 1048   1.470   0.488   9.613  1.6165 -0.6637  0.1411
   15CHL1   H7B 1049   1.427   0.335   9.699  2.8260  0.3809  1.5113
   15CHL1    C8 1050   1.260   0.456   9.637  0.8409  0.2516 -0.4467
   15CHL1    H8 1051   1.246   0.562   9.609  0.2547  0.2975  0.0309
   15CHL1   C14 1052   1.236   0.356   9.520  0.2259 -0.2263 -0.2379
   15CHL1   H14 1053   1.263   0.254   9.555  1.2906 -1.1046 -3.3671
   15CHL1   C15 1054   1.327   0.377   9.395  0.4197  0.3434 -0.1939
   15CHL1  H15A 1055   1.337   0.484   9.367  2.0561 -0.4155 -2.8618
   15CHL1  H15B 1056   1.429   0.334   9.410 -0.2752 -0.8296  1.4916
   15CHL1   C16 1057   1.245   0.302   9.292  0.1182 -0.7023  0.6836
   15CHL1  H16A 1058   1.230   0.378   9.212  1.3119  0.0556  1.1563
   15CHL1  H16B 1059   1.290   0.215   9.239  0.0058  0.1694 -0.9105
   15CHL1   C17 1060   1.104   0.265   9.342  0.6200 -0.3507  0.4478
   15CHL1   H17 1061   1.098   0.158   9.371  0.2908 -0.6526 -0.6671
   15CHL1   C13 1062   1.090   0.352   9.469 -0.2028 -0.2279  0.2883
   15CHL1   C18 1063   1.053   0.496   9.422  0.2060  0.5629 -0.5999
   15CHL1  H18A 1064   1.054   0.553   9.518  1.1476 -1.1380  0.4444
   15CHL1  H18B 1065   1.115   0.554   9.351 -2.1080  1.1117 -2.2824
   15CHL1  H18C 1066   0.951   0.501   9.378 -1.0806 -3.7024  1.3543
   15CHL1   C12 1067   0.996   0.301   9.575 -0.4946 -0.3591  0.1426
   15CHL1  H12A 1068   0.889   0.309   9.544 -0.1217  1.2879 -0.8215
   15CHL1  H12B 1069   1.010   0.195   9.604 -0.9478 -0.5058 -0.1622
   15CHL1   C11 1070   1.008   0.393   9.701  0.5702 -0.0859 -0.0123
   15CHL1  H11A 1071   0.964   0.492   9.679  1.9834  1.0374  1.9416
   15CHL1  H11B 1072   0.965   0.335   9.785  2.2002  0.0760  0.9736
   15CHL1    C9 1073   1.155   0.415   9.746  0.4854  0.8899  0.5019
   15CHL1    H9 1074   1.194   0.316   9.775  0.5246  0.6215 -0.4457
   15CHL1   C10 1075   1.170   0.515   9.876 -0.3766 -0.2804  0.1600
   15CHL1   C19 1076   1.111   0.657   9.845 -0.3785 -0.1723  0.4663
   15CHL1  H19A 1077   1.170   0.711   9.768  0.6998 -2.6211 -0.5333
   15CHL1  H19B 1078   1.007   0.643   9.808 -0.7748 -0.1820  1.5611
   15CHL1  H19C 1079   1.094   0.712   9.939 -0.1234 -3.0305  2.3161
   15CHL1    C1 1080   1.101   0.452   9.997  0.3830  0.1691  0.0446
   15CHL1   H1A 1081   0.991   0.451   9.985  0.3297  2.0332  0.0631
   15CHL1   H1B 1082   1.131   0.345  10.008 -0.6056 -0.0756  0.4220
   15CHL1    C2 1083   1.135   0.520  10.133 -0.0869  0.0888 -0.5818
   15CHL1   H2A 1084   1.089   0.462  10.216  0.7084  1.1461  0.6311
   15CHL1   H2B 1085   1.086   0.619  10.124  1.8311  1.0608 -0.9164
   15CHL1   C20 1086   0.996   0.285   9.229 -0.3521 -0.4300 -0.1334
   15CHL1   H20 1087   0.995   0.392   9.200  1.4302 -0.3156  0.0848
   15CHL1   C21 1088   0.856   0.236   9.273  0.2932 -0.0697 -0.6422
   15CHL1  H21A 1089   0.826   0.306   9.354  1.8481  0.0087 -0.1006
   15CHL1  H21B 1090   0.856   0.133   9.315 -2.3758 -0.7213 -2.0463
   15CHL1  H21C 1091   0.776   0.245   9.197  0.9781  1.0592 -1.2624
   15CHL1   C22 1092   1.033   0.205   9.098  0.6455 -0.0041  0.1121
   15CHL1  H22A 1093   1.143   0.203   9.080  0.4737  0.9464 -1.1487
   15CHL1  H22B 1094   0.995   0.104   9.124 -0.6782  0.7748  1.3550
   15CHL1   C23 1095   0.973   0.271   8.973 -0.4446 -0.6050 -0.1170
   15CHL1  H23A 1096   0.863   0.283   8.984 -0.1838  1.7672  0.3288
   15CHL1  H23B 1097   1.017   0.373   8.972  0.0198 -0.7885  0.4965
   15CHL1   C24 1098   1.012   0.204   8.845 -0.0270  0.3549 -0.3057
   15CHL1  H24A 1099   1.114   0.234   8.813  0.8003 -1.3415  0.6345
   15CHL1  H24B 1100   1.020   0.094   8.856 -2.5185  0.2538  1.6272
   15CHL1   C25 1101   0.917   0.229   8.726 -0.1741  0.2903 -1.0061
   15CHL1   H25 1102   0.818   0.238   8.777  0.3117 -0.4298  0.1009
   15CHL1   C26 1103   0.938   0.364   8.666 -0.3445 -0.4018 -0.0031
   15CHL1  H26A 1104   0.858   0.383   8.591  0.0996 -0.1058 -0.4073
   15CHL1  H26B 1105   0.917   0.436   8.748  0.4008 -1.5693  1.2636
   15CHL1  H26C 1106   1.042   0.376   8.628 -0.2026  1.0893  0.8056
   15CHL1   C27 1107   0.927   0.109   8.627 -0.7468  0.2894  0.3315
   15CHL1  H27A 1108   1.024   0.105   8.572 -1.1425 -1.2320 -0.3312
   15CHL1  H27B 1109   0.916   0.014   8.683 -2.6263 -0.1162 -0.6436
   15CHL1  H27C 1110   0.848   0.110   8.549 -1.5463 -0.2720  1.1138
   16CHL1    C3 1111   1.553   0.963  10.295  0.7282  0.5182  0.5367
   16CHL1    H3 1112   1.496   0.868  10.304  0.5594  0.6688  1.1385
   16CHL1    O3 1113   1.575   1.018  10.424  0.6185 -0.1030 -0.1732
   16CHL1   H3' 1114   1.601   1.108  10.406  0.5769 -0.0508  0.0257
   16CHL1    C4 1115   1.691   0.944  10.225 -0.5746  0.5848 -0.1562
   16CHL1   H4A 1116   1.752   1.037  10.232  0.1620  0.2952 -2.0432
   16CHL1   H4B 1117   1.741   0.874  10.295  0.5936  1.2835 -0.2607
   16CHL1    C5 1118   1.693   0.891  10.084  0.4394 -0.4210 -0.1232
   16CHL1    C6 1119   1.764   0.787  10.044 -0.9482 -0.1957  0.1469
   16CHL1    H6 1120   1.833   0.742  10.117 -0.2064  2.1852  1.0089
   16CHL1    C7 1121   1.757   0.723   9.907  0.9172  0.5832 -0.1998
   16CHL1   H7A 1122   1.861   0.711   9.869  1.7991  1.6540  1.7556
   16CHL1   H7B 1123   1.702   0.627   9.901  1.9131  0.0304 -0.8853
   16CHL1    C8 1124   1.691   0.813   9.804  0.4669 -0.1648 -0.1399
   16CHL1    H8 1125   1.767   0.889   9.777  0.5895 -0.5948 -1.0607
   16CHL1   C14 1126   1.659   0.748   9.671 -0.1389 -0.1204 -0.0438
   16CHL1   H14 1127   1.589   0.664   9.693  0.9378 -0.8446  0.7387
   16CHL1   C15 1128   1.770   0.676   9.591 -0.1040 -0.7841  1.5242
   16CHL1  H15A 1129   1.864   0.733   9.578  0.8504 -2.3914  1.1754
   16CHL1  H15B 1130   1.793   0.570   9.614 -0.6379 -1.2899 -0.1244
   16CHL1   C16 1131   1.704   0.657   9.445  0.4225 -0.7769 -0.6168
   16CHL1  H16A 1132   1.775   0.697   9.370  0.9954 -0.1866  0.2131
   16CHL1  H16B 1133   1.691   0.549   9.421  1.9301 -1.0086 -0.5069
   16CHL1   C17 1134   1.569   0.733   9.448  0.7800  1.5935  0.5327
   16CHL1   H17 1135   1.496   0.652   9.472 -0.6017  2.1292 -1.5071
   16CHL1   C13 1136   1.580   0.830   9.568 -0.3343  0.0305  0.5067
   16CHL1   C18 1137   1.664   0.952   9.528  0.2284 -0.8838  0.5834
   16CHL1  H18A 1138   1.598   1.028   9.481 -1.4520 -1.9975  1.0746
   16CHL1  H18B 1139   1.699   1.012   9.615  0.8410  0.6131 -0.6308
   16CHL1  H18C 1140   1.743   0.920   9.457 -0.7856  0.8713 -1.4401
   16CHL1   C12 1141   1.449   0.873   9.640 -0.2144 -0.3238  0.0680
   16CHL1  H12A 1142   1.391   0.938   9.571 -0.2316 -1.0257 -0.5997
   16CHL1  H12B 1143   1.387   0.787   9.671 -2.2505  1.0366 -0.0459
   16CHL1   C11 1144   1.472   0.960   9.770  1.1139 -0.2009  0.2250
   16CHL1  H11A 1145   1.516   1.059   9.742  0.5181 -0.1826 -0.6846
   16CHL1  H11B 1146   1.375   0.986   9.817  0.9296 -0.6200  0.0724
   16CHL1    C9 1147   1.567   0.884   9.864 -0.0905  0.9440  0.1246
   16CHL1    H9 1148   1.504   0.798   9.896  1.5935 -1.3391 -2.2004
   16CHL1   C10 1149   1.600   0.966   9.991  0.4369 -0.7757 -0.9737
   16CHL1   C19 1150   1.685   1.087   9.948 -0.1241 -0.4040  0.1264
   16CHL1  H19A 1151   1.734   1.123  10.041 -3.6692  1.0336  1.6326
   16CHL1  H19B 1152   1.763   1.062   9.874  1.6553  1.8043  1.1367
   16CHL1  H19C 1153   1.613   1.165   9.916  0.4075 -0.0698 -0.2598
   16CHL1    C1 1154   1.462   0.994  10.059  0.3974 -0.4000 -0.3296
   16CHL1   H1A 1155   1.395   1.052   9.992  2.1160  1.0800 -0.8569
   16CHL1   H1B 1156   1.409   0.899  10.080 -0.2808  0.1553  0.5184
   16CHL1    C2 1157   1.473   1.059  10.201  0.7988 -0.2464 -0.0602
   16CHL1   H2A 1158   1.373   1.088  10.241  0.7165 -0.6741  0.0502
   16CHL1   H2B 1159   1.539   1.147  10.184  0.9870 -0.8850 -3.3173
   16CHL1   C20 1160   1.513   0.790   9.314  0.0187 -0.0905 -0.1316
   16CHL1   H20 1161   1.531   0.900   9.311  0.1089 -0.1148 -0.4804
   16CHL1   C21 1162   1.355   0.781   9.311  0.1693  0.6675 -0.2773
   16CHL1  H21A 1163   1.311   0.837   9.226 -1.6106 -1.8132 -1.1322
   16CHL1  H21B 1164   1.307   0.815   9.405  0.7540  1.5008 -0.2690
   16CHL1  H21C 1165   1.340   0.672   9.291  0.7668  0.7279 -1.1084
   16CHL1   C22 1166   1.586   0.728   9.189 -0.2212  0.1216  0.0236
   16CHL1  H22A 1167   1.689   0.769   9.200 -1.4599  3.5400  0.2439
   16CHL1  H22B 1168   1.589   0.618   9.206 -0.8325 -0.1314 -1.3515
   16CHL1   C23 1169   1.544   0.741   9.038 -0.1014 -0.0257 -0.3467
   16CHL1  H23A 1170   1.437   0.711   9.032  0.5488 -2.6241 -0.2225
   16CHL1  H23B 1171   1.563   0.849   9.019  0.7140  0.0715  0.8881
   16CHL1   C24 1172   1.627   0.657   8.940  0.8096  0.7434 -0.7563
   16CHL1  H24A 1173   1.735   0.657   8.967  0.3237 -0.7267  1.5097
   16CHL1  H24B 1174   1.591   0.554   8.961  2.9456 -0.1087 -0.9410
   16CHL1   C25 1175   1.605   0.688   8.798 -0.6106 -1.1999  0.5520
   16CHL1   H25 1176   1.497   0.712   8.797 -0.4508 -0.3385 -1.6503
   16CHL1   C26 1177   1.686   0.807   8.751 -0.2225  0.2629 -0.3748
   16CHL1  H26A 1178   1.793   0.784   8.769 -0.8090 -4.0769 -1.2016
   16CHL1  H26B 1179   1.673   0.842   8.646  3.9804  1.9242 -0.5232
   16CHL1  H26C 1180   1.673   0.900   8.811  1.6515  0.2238  0.1444
   16CHL1   C27 1181   1.640   0.571   8.706  0.8158  0.0391 -0.0393
   16CHL1  H27A 1182   1.611   0.595   8.602 -4.9889 -2.5449  0.6289
   16CHL1  H27B 1183   1.745   0.538   8.721  0.5642 -0.4940  0.5798
   16CHL1  H27C 1184   1.579   0.482   8.734 -0.0460  0.0673 -1.7365
   17CHL1    C3 1185   0.291   5.776  10.534  0.0054  0.3179  0.4267
   17CHL1    H3 1186   0.217   5.858  10.543 -0.5063 -0.1159  0.2568
   17CHL1    O3 1187   0.322   5.738  10.669  0.6448  0.4029  0.1952
   17CHL1   H3' 1188   0.247   5.756  10.727  1.9971 -1.0873  2.6241
   17CHL1    C4 1189   0.223   5.654  10.456  0.6203 -0.8266 -0.2950
   17CHL1   H4A 1190   0.295   5.570  10.455  0.9656 -0.6090 -3.3272
   17CHL1   H4B 1191   0.126   5.621  10.501  1.0005 -2.9002 -0.9152
   17CHL1    C5 1192   0.204   5.685  10.307 -0.0195 -0.0653  0.0515
   17CHL1    C6 1193   0.088   5.667  10.248 -0.3244 -0.2260 -0.2354
   17CHL1    H6 1194  -0.000   5.631  10.303  1.3183  0.3413  3.0544
   17CHL1    C7 1195   0.058   5.685  10.103  0.3726  0.4354 -0.0611
   17CHL1   H7A 1196  -0.002   5.597  10.068  1.2726 -0.3618  0.3707
   17CHL1   H7B 1197  -0.003   5.777  10.094  0.7523  0.5865 -1.2150
   17CHL1    C8 1198   0.191   5.699  10.025 -0.4689  0.3016 -0.1949
   17CHL1    H8 1199   0.241   5.600  10.019  1.8463  1.3876  0.2269
   17CHL1   C14 1200   0.157   5.749   9.883 -0.1891  0.6853  0.1025
   17CHL1   H14 1201   0.091   5.838   9.891  2.5191  2.7641  1.0323
   17CHL1   C15 1202   0.063   5.656   9.808 -0.3516  0.2676  0.6881
   17CHL1  H15A 1203   0.098   5.554   9.832  3.2481  1.7740  2.8013
   17CHL1  H15B 1204  -0.043   5.663   9.838  0.0467  1.5020  1.9259
   17CHL1   C16 1205   0.095   5.702   9.665  0.8124 -0.4710  0.1533
   17CHL1  H16A 1206   0.123   5.615   9.602 -0.6585 -1.1290  0.3591
   17CHL1  H16B 1207   0.009   5.757   9.621  0.8301 -0.7833 -0.2774
   17CHL1   C17 1208   0.216   5.804   9.670  0.3620  0.4212 -0.4092
   17CHL1   H17 1209   0.165   5.903   9.676 -0.5543  0.0672 -1.7382
   17CHL1   C13 1210   0.286   5.772   9.803  0.5184 -0.1160  0.5810
   17CHL1   C18 1211   0.356   5.642   9.786 -0.6171  0.2427 -0.1842
   17CHL1  H18A 1212   0.436   5.659   9.711 -0.9424 -0.6282 -0.7468
   17CHL1  H18B 1213   0.419   5.604   9.869 -0.1280  0.9805 -0.2176
   17CHL1  H18C 1214   0.296   5.554   9.752 -0.8695  0.2506  0.2317
   17CHL1   C12 1215   0.370   5.887   9.863  0.4267 -0.3207 -0.8328
   17CHL1  H12A 1216   0.467   5.910   9.815  0.2882  2.9508  0.1610
   17CHL1  H12B 1217   0.310   5.980   9.875 -0.6085 -1.0726  0.0969
   17CHL1   C11 1218   0.407   5.850  10.011  0.0528  0.0557 -0.3877
   17CHL1  H11A 1219   0.494   5.780  10.009  0.0959  0.0455  0.9569
   17CHL1  H11B 1220   0.448   5.944  10.053  1.4556  0.9462 -3.4295
   17CHL1    C9 1221   0.283   5.802  10.096  0.2074 -0.2263 -0.0206
   17CHL1    H9 1222   0.231   5.899  10.109 -0.2186 -0.0590 -2.5205
   17CHL1   C10 1223   0.322   5.752  10.235  0.8529  0.7645  0.8220
   17CHL1   C19 1224   0.426   5.641  10.224 -0.2041 -0.0811 -0.5261
   17CHL1  H19A 1225   0.531   5.671  10.201  0.1929  0.0669  1.3280
   17CHL1  H19B 1226   0.425   5.585  10.320 -0.4993  0.1318 -0.4043
   17CHL1  H19C 1227   0.384   5.566  10.155  0.7468 -0.8596 -0.2796
   17CHL1    C1 1228   0.386   5.865  10.322  0.1941  0.2451  0.6832
   17CHL1   H1A 1229   0.479   5.907  10.276  0.7099  0.3631  1.7882
   17CHL1   H1B 1230   0.316   5.951  10.335  1.4067  1.2820  0.6376
   17CHL1    C2 1231   0.423   5.826  10.464 -0.5915 -0.7769 -0.4509
   17CHL1   H2A 1232   0.466   5.913  10.518 -0.2103 -0.4330 -1.3023
   17CHL1   H2B 1233   0.495   5.742  10.477 -1.0386 -0.7672  3.4847
   17CHL1   C20 1234   0.296   5.799   9.537  0.0914  0.4311 -0.9982
   17CHL1   H20 1235   0.328   5.694   9.518 -1.2862  0.2250 -2.3850
   17CHL1   C21 1236   0.422   5.885   9.538  0.5120  0.0439 -0.2922
   17CHL1  H21A 1237   0.476   5.869   9.442  0.6654 -0.7186 -0.0824
   17CHL1  H21B 1238   0.498   5.843   9.606  0.2253  1.1342  0.7400
   17CHL1  H21C 1239   0.404   5.994   9.552  1.4114  0.2128 -0.4558
   17CHL1   C22 1240   0.213   5.831   9.407  0.0424 -0.3737 -0.3811
   17CHL1  H22A 1241   0.285   5.813   9.325  0.3494  1.2934 -0.5103
   17CHL1  H22B 1242   0.132   5.756   9.391 -0.0596 -0.0510 -1.3901
   17CHL1   C23 1243   0.151   5.970   9.400 -0.1934 -0.6270  0.1905
   17CHL1  H23A 1244   0.081   5.994   9.483 -0.0415  2.5965 -0.4920
   17CHL1  H23B 1245   0.228   6.049   9.414 -0.5982 -0.5784  2.6048
   17CHL1   C24 1246   0.087   5.989   9.264  0.5404 -0.7579 -0.3040
   17CHL1  H24A 1247   0.157   5.951   9.187  0.6230  0.7906 -1.0156
   17CHL1  H24B 1248  -0.008   5.930   9.265  1.9701 -3.2168 -1.7766
   17CHL1   C25 1249   0.058   6.133   9.219  0.4135  0.6364 -0.6531
   17CHL1   H25 1250   0.147   6.198   9.229 -0.5373  1.8804 -0.0504
   17CHL1   C26 1251   0.019   6.149   9.065 -0.1066 -0.1973 -0.1753
   17CHL1  H26A 1252   0.002   6.257   9.046 -0.1258 -0.3102 -0.8014
   17CHL1  H26B 1253   0.093   6.106   8.995  1.0167 -0.8523  1.3569
   17CHL1  H26C 1254  -0.077   6.097   9.047  0.3450 -1.9338  1.9970
   17CHL1   C27 1255  -0.047   6.196   9.311  0.3350 -0.2596 -0.5574
   17CHL1  H27A 1256  -0.087   6.292   9.270 -0.2636  0.3860  1.4319
   17CHL1  H27B 1257  -0.129   6.125   9.329  1.0862 -1.6795 -2.3954
   17CHL1  H27C 1258  -0.006   6.215   9.412 -1.6483  1.4915 -0.0035
   18CHL1    C3 1259   3.090   2.191  10.254 -0.1543  0.0014 -0.3506
   18CHL1    H3 1260   3.006   2.122  10.236  0.7002 -0.3287 -3.6630
   18CHL1    O3 1261   3.136   2.209  10.394  0.3786 -0.3385  0.0969
   18CHL1   H3' 1262   3.124   2.129  10.446 -1.8207  0.5760  1.1363
   18CHL1    C4 1263   3.204   2.141  10.180  0.0104 -0.1761 -0.3978
   18CHL1   H4A 1264   3.293   2.202  10.204  0.8384 -1.4332 -0.2029
   18CHL1   H4B 1265   3.232   2.047  10.231 -0.4173 -0.2132 -0.2243
   18CHL1    C5 1266   3.179   2.123  10.033 -0.2065  0.0739  0.5065
   18CHL1    C6 1267   3.191   2.003   9.976  0.0047 -0.1513 -0.0748
   18CHL1    H6 1268   3.218   1.911  10.031 -1.9927 -0.8391 -0.1821
   18CHL1    C7 1269   3.169   1.979   9.830  0.4729 -0.5524 -0.0620
   18CHL1   H7A 1270   3.255   1.921   9.791  1.5960 -0.0454  1.5871
   18CHL1   H7B 1271   3.075   1.924   9.808  0.2141  0.3975 -1.4715
   18CHL1    C8 1272   3.157   2.115   9.745  0.8021  0.7113 -0.2176
   18CHL1    H8 1273   3.258   2.159   9.734  2.3049 -2.5059 -0.3908
   18CHL1   C14 1274   3.091   2.075   9.610 -0.5972  0.3809  0.7734
   18CHL1   H14 1275   2.989   2.038   9.630 -1.3827  0.3060 -2.7191
   18CHL1   C15 1276   3.160   1.970   9.518 -0.3940 -0.3308  0.0557
   18CHL1  H15A 1277   3.270   1.980   9.507 -0.5959  0.3508 -1.7492
   18CHL1  H15B 1278   3.144   1.873   9.568  1.5880  0.2962  2.0670
   18CHL1   C16 1279   3.094   1.991   9.385 -0.5148  0.2412  0.0416
   18CHL1  H16A 1280   3.179   1.995   9.313 -1.2727 -0.0617 -0.8925
   18CHL1  H16B 1281   3.033   1.904   9.350  0.7645  0.3862 -2.8414
   18CHL1   C17 1282   3.019   2.124   9.393 -0.5825 -0.1207  0.4643
   18CHL1   H17 1283   2.918   2.092   9.427 -1.0293 -1.0063 -1.5670
   18CHL1   C13 1284   3.072   2.194   9.516  0.5285 -0.8699 -0.1661
   18CHL1   C18 1285   3.204   2.271   9.484  0.8477 -0.0861 -0.7399
   18CHL1  H18A 1286   3.255   2.317   9.571  1.4559 -0.1183 -1.0675
   18CHL1  H18B 1287   3.274   2.198   9.436  0.5562  0.3138 -1.8124
   18CHL1  H18C 1288   3.182   2.349   9.408 -3.3097  0.6581  0.9635
   18CHL1   C12 1289   2.979   2.284   9.598  0.5183  0.0778 -1.0963
   18CHL1  H12A 1290   2.959   2.368   9.528  1.9558  1.5535  0.1902
   18CHL1  H12B 1291   2.883   2.235   9.625  1.3719 -2.4488 -2.3049
   18CHL1   C11 1292   3.028   2.323   9.736  0.1999 -0.5558  0.2094
   18CHL1  H11A 1293   3.113   2.393   9.725 -1.6442  1.6123 -0.9234
   18CHL1  H11B 1294   2.950   2.382   9.787 -2.3691 -2.9414 -0.7057
   18CHL1    C9 1295   3.061   2.206   9.825 -0.1182  0.0617  0.1340
   18CHL1    H9 1296   2.970   2.152   9.859 -0.9746  2.2524  1.5691
   18CHL1   C10 1297   3.122   2.246   9.965  0.0568 -0.6335  1.3202
   18CHL1   C19 1298   3.237   2.348   9.947 -1.0463  0.3788  0.1746
   18CHL1  H19A 1299   3.293   2.359  10.042 -0.5510 -1.3184  0.1073
   18CHL1  H19B 1300   3.308   2.329   9.864 -1.2632  1.7081 -0.3404
   18CHL1  H19C 1301   3.204   2.452   9.928  1.3618  1.2297  0.3019
   18CHL1    C1 1302   3.001   2.308  10.048 -0.6255 -0.3139 -0.1133
   18CHL1   H1A 1303   2.978   2.409  10.007  4.0461  0.2036 -2.1030
   18CHL1   H1B 1304   2.911   2.244  10.038 -0.0296 -1.2734  0.5275
   18CHL1    C2 1305   3.042   2.330  10.196  0.3535 -0.0052  0.1763
   18CHL1   H2A 1306   2.954   2.372  10.250 -0.9106 -0.1898 -1.6571
   18CHL1   H2B 1307   3.113   2.412  10.215 -0.2451  0.5590  0.0311
   18CHL1   C20 1308   3.011   2.192   9.253 -0.2254 -0.1703  0.0419
   18CHL1   H20 1309   3.114   2.220   9.222  1.1579 -0.3052  3.9556
   18CHL1   C21 1310   2.935   2.330   9.262 -0.2039 -0.5692  0.7164
   18CHL1  H21A 1311   2.983   2.403   9.331 -0.4458 -0.5911  0.9083
   18CHL1  H21B 1312   2.833   2.296   9.291 -0.8423  0.4097 -0.3248
   18CHL1  H21C 1313   2.928   2.379   9.163 -0.2303  0.8434  1.3919
   18CHL1   C22 1314   2.956   2.098   9.143 -0.2257 -0.4897  0.8048
   18CHL1  H22A 1315   2.990   1.993   9.148  0.6065 -0.4302 -2.1116
   18CHL1  H22B 1316   2.845   2.100   9.137 -0.1313  0.3313 -1.7684
   18CHL1   C23 1317   3.006   2.141   9.007 -0.5209  0.5751  0.4918
   18CHL1  H23A 1318   2.985   2.250   8.998 -1.7713  0.6481  3.2660
   18CHL1  H23B 1319   3.116   2.124   8.998 -0.2178  1.0177  2.7703
   18CHL1   C24 1320   2.950   2.063   8.886 -0.0273  0.1395  0.1644
   18CHL1  H24A 1321   2.959   1.954   8.906 -2.3587  0.2804  2.6310
   18CHL1  H24B 1322   2.842   2.082   8.901 -0.1025 -0.5704  0.5880
   18CHL1   C25 1323   3.000   2.099   8.749 -0.7993 -0.4446 -0.2729
   18CHL1   H25 1324   3.108   2.119   8.766 -0.5153 -0.2529 -2.1097
   18CHL1   C26 1325   2.990   1.994   8.637  0.8397  0.2779  0.1184
   18CHL1  H26A 1326   3.050   1.905   8.665 -0.4387  0.0096  2.1359
   18CHL1  H26B 1327   2.886   1.964   8.614  0.9558  0.8894 -1.3234
   18CHL1  H26C 1328   3.039   2.033   8.545  1.4249 -0.9490 -0.0983
   18CHL1   C27 1329   2.940   2.227   8.683  0.2900 -0.0703  0.4103
   18CHL1  H27A 1330   2.955   2.316   8.748 -0.0891  0.7716 -0.6407
   18CHL1  H27B 1331   2.969   2.236   8.576  0.3490 -0.8339  0.3548
   18CHL1  H27C 1332   2.830   2.212   8.681  0.1327  1.0512 -1.4424
   19CHL1    C3 1333   0.679   0.644  10.360 -0.2426  0.4952  0.2633
   19CHL1    H3 1334   0.590   0.582  10.382 -0.9584  1.4468  0.1219
   19CHL1    O3 1335   0.734   0.668  10.490  0.1260 -0.4816 -0.1369
   19CHL1   H3' 1336   0.815   0.718  10.475 -1.0696  1.5126 -0.3388
   19CHL1    C4 1337   0.774   0.563  10.266 -0.7379 -0.7536  0.6184
   19CHL1   H4A 1338   0.872   0.615  10.261 -0.7996 -0.6320  0.6513
   19CHL1   H4B 1339   0.794   0.473  10.328  4.0005  0.5493  1.4208
   19CHL1    C5 1340   0.715   0.552  10.128  0.1925 -0.8118 -0.2857
   19CHL1    C6 1341   0.703   0.426  10.079  0.1071  0.1258  0.2595
   19CHL1    H6 1342   0.739   0.342  10.139  0.4734  1.1793  1.5686
   19CHL1    C7 1343   0.649   0.401   9.942  0.3254  0.0678 -0.4237
   19CHL1   H7A 1344   0.708   0.318   9.899  1.7735 -0.2694  2.0067
   19CHL1   H7B 1345   0.548   0.354   9.948 -0.0480  0.9314  0.4623
   19CHL1    C8 1346   0.644   0.526   9.852 -0.1587  0.3029 -0.2724
   19CHL1    H8 1347   0.745   0.556   9.816 -0.6158  1.3912 -0.6966
   19CHL1   C14 1348   0.564   0.496   9.720  0.1668 -0.3583  0.9642
   19CHL1   H14 1349   0.463   0.473   9.760  0.1499  0.2075  1.2581
   19CHL1   C15 1350   0.600   0.373   9.633  0.0165 -0.3278  0.5982
   19CHL1  H15A 1351   0.711   0.364   9.636  0.0514 -1.2799 -1.3928
   19CHL1  H15B 1352   0.558   0.280   9.677  0.3942 -0.3719  0.8721
   19CHL1   C16 1353   0.541   0.404   9.496 -0.1840  0.5090  0.6136
   19CHL1  H16A 1354   0.629   0.411   9.430  1.4263  1.5575  2.7411
   19CHL1  H16B 1355   0.473   0.328   9.451 -0.2632 -0.4002  2.1828
   19CHL1   C17 1356   0.482   0.549   9.507  0.4234  0.7031  0.5807
   19CHL1   H17 1357   0.378   0.523   9.534  0.4150  0.7950  0.6371
   19CHL1   C13 1358   0.560   0.609   9.623  0.0965  0.1737 -0.6070
   19CHL1   C18 1359   0.703   0.649   9.574  0.2951  0.1764 -0.4699
   19CHL1  H18A 1360   0.750   0.696   9.663 -3.1502  0.2589  1.5254
   19CHL1  H18B 1361   0.758   0.557   9.545 -0.6459 -0.5158 -0.1205
   19CHL1  H18C 1362   0.703   0.717   9.486 -1.7219 -0.8234 -1.3070
   19CHL1   C12 1363   0.485   0.719   9.702  0.0800 -0.1686 -0.2110
   19CHL1  H12A 1364   0.500   0.802   9.629 -3.5185 -1.2481 -2.4218
   19CHL1  H12B 1365   0.378   0.688   9.703 -0.2650  0.9153 -1.0173
   19CHL1   C11 1366   0.554   0.763   9.828 -0.1676 -0.0024  0.2322
   19CHL1  H11A 1367   0.646   0.818   9.799 -1.1611  0.2063 -2.9121
   19CHL1  H11B 1368   0.485   0.836   9.876 -2.7943 -0.0817 -3.0731
   19CHL1    C9 1369   0.584   0.645   9.926  0.2896  0.0384  0.8870
   19CHL1    H9 1370   0.482   0.608   9.946 -0.6578  0.4484 -2.6180
   19CHL1   C10 1371   0.656   0.680  10.058 -0.0469  0.0830  0.4939
   19CHL1   C19 1372   0.775   0.771  10.024 -0.0936 -0.0228 -0.2933
   19CHL1  H19A 1373   0.729   0.870  10.001 -0.1094  0.2617  0.9042
   19CHL1  H19B 1374   0.847   0.786  10.108  0.2157 -1.3311 -0.3097
   19CHL1  H19C 1375   0.829   0.743   9.931  0.5658 -1.7043  0.5469
   19CHL1    C1 1376   0.563   0.760  10.159  0.6797  0.0841  0.0171
   19CHL1   H1A 1377   0.531   0.861  10.126  0.4282 -0.2287 -0.7471
   19CHL1   H1B 1378   0.464   0.709  10.154  0.5683  0.3712 -0.9787
   19CHL1    C2 1379   0.624   0.778  10.301  0.3547 -0.0995  0.0736
   19CHL1   H2A 1380   0.553   0.825  10.372  1.6265 -0.5595  1.7106
   19CHL1   H2B 1381   0.715   0.841  10.291  0.1892 -0.1071 -1.9475
   19CHL1   C20 1382   0.478   0.623   9.375  0.0154  0.0470 -0.5829
   19CHL1   H20 1383   0.581   0.641   9.338 -0.5897  1.1561 -1.8203
   19CHL1   C21 1384   0.426   0.766   9.382 -0.0885  0.5815 -1.1578
   19CHL1  H21A 1385   0.499   0.832   9.433  1.9955 -1.6798 -1.0263
   19CHL1  H21B 1386   0.342   0.755   9.453  0.9854  0.2474  0.0977
   19CHL1  H21C 1387   0.388   0.803   9.284 -1.6896  1.9971 -0.0522
   19CHL1   C22 1388   0.411   0.531   9.274  0.1341  0.2654  0.2914
   19CHL1  H22A 1389   0.450   0.427   9.276  0.0894  0.2604  1.1837
   19CHL1  H22B 1390   0.307   0.533   9.313  0.1267  0.6243  0.2523
   19CHL1   C23 1391   0.418   0.574   9.130  0.4045 -0.1775 -0.3031
   19CHL1  H23A 1392   0.348   0.510   9.072  2.0587 -1.6842 -0.7524
   19CHL1  H23B 1393   0.389   0.680   9.121 -0.4135 -0.2593  1.0832
   19CHL1   C24 1394   0.563   0.565   9.075  0.9105  0.5306 -0.0370
   19CHL1  H24A 1395   0.635   0.643   9.106 -1.3891  2.5864  0.4600
   19CHL1  H24B 1396   0.602   0.465   9.105 -0.8528 -0.4791 -0.9013
   19CHL1   C25 1397   0.559   0.568   8.917 -0.7673  0.3482 -0.1612
   19CHL1   H25 1398   0.488   0.485   8.894 -0.2172 -0.5035  1.1124
   19CHL1   C26 1399   0.498   0.698   8.861  0.6956 -0.6758 -0.0574
   19CHL1  H26A 1400   0.555   0.777   8.915 -1.4685 -0.5872  2.2975
   19CHL1  H26B 1401   0.502   0.721   8.752  0.3834  0.6083  0.1801
   19CHL1  H26C 1402   0.393   0.714   8.896  0.6951  0.2296 -0.4302
   19CHL1   C27 1403   0.700   0.541   8.855 -0.6221 -0.5373 -0.3346
   19CHL1  H27A 1404   0.759   0.476   8.922 -0.4608 -0.6647 -0.5983
   19CHL1  H27B 1405   0.693   0.487   8.758  0.1891  3.4267 -2.8310
   19CHL1  H27C 1406   0.742   0.642   8.834 -1.5746 -0.4771 -2.2323
   20CHL1    C3 1407   2.329   6.237  10.267  0.1871  0.1415 -0.6400
   20CHL1    H3 1408   2.266   6.146  10.257  0.1882  0.1444 -0.6726
   20CHL1    O3 1409   2.363   6.263  10.401  0.5807 -0.2684 -0.1052
   20CHL1   H3' 1410   2.424   6.193  10.428  1.0187 -0.1239 -0.6826
   20CHL1    C4 1411   2.458   6.215  10.188 -0.3703 -0.0783  0.7002
   20CHL1   H4A 1412   2.524   6.301  10.210  1.1121 -0.8656 -0.4560
   20CHL1   H4B 1413   2.518   6.126  10.218  0.6279  0.2455 -0.2968
   20CHL1    C5 1414   2.442   6.212  10.036 -0.2243  0.3027 -0.2477
   20CHL1    C6 1415   2.515   6.119   9.965 -0.2224  0.6644  0.3475
   20CHL1    H6 1416   2.590   6.057  10.016 -0.2438  0.7220  0.4505
   20CHL1    C7 1417   2.500   6.097   9.815  0.3128  0.0076  0.0618
   20CHL1   H7A 1418   2.601   6.077   9.773  1.0005 -0.9386  2.0468
   20CHL1   H7B 1419   2.441   6.004   9.797  0.4147  0.0569 -0.5502
   20CHL1    C8 1420   2.417   6.205   9.753  0.6559 -0.3455  0.3600
   20CHL1    H8 1421   2.475   6.296   9.724 -1.9042  0.8116 -1.5793
   20CHL1   C14 1422   2.370   6.148   9.615 -0.2870 -0.5445  0.1148
   20CHL1   H14 1423   2.306   6.062   9.643 -1.7919  0.3234 -0.5306
   20CHL1   C15 1424   2.481   6.106   9.519  0.6724  0.2882  0.3956
   20CHL1  H15A 1425   2.561   6.183   9.519 -0.2274  1.3209  2.5729
   20CHL1  H15B 1426   2.518   6.008   9.555  0.1768 -0.3915 -0.9066
   20CHL1   C16 1427   2.413   6.096   9.388  0.7267  0.3454  0.6257
   20CHL1  H16A 1428   2.485   6.140   9.316  2.5977 -1.9649  0.9810
   20CHL1  H16B 1429   2.400   5.992   9.350 -1.0548  0.7008  0.1839
   20CHL1   C17 1430   2.268   6.151   9.407 -0.0585 -0.5785  1.3722
   20CHL1   H17 1431   2.197   6.076   9.447  0.0503 -0.7953  1.1565
   20CHL1   C13 1432   2.280   6.235   9.534  0.0897 -0.2905  0.4798
   20CHL1   C18 1433   2.352   6.370   9.497 -0.2823  0.4920 -0.3685
   20CHL1  H18A 1434   2.392   6.423   9.586  2.2235  1.8295 -2.1699
   20CHL1  H18B 1435   2.437   6.350   9.428 -1.2010 -0.5562 -1.2354
   20CHL1  H18C 1436   2.277   6.429   9.440 -0.3964 -0.7020 -1.5061
   20CHL1   C12 1437   2.149   6.260   9.623  0.7129  0.2211  0.3452
   20CHL1  H12A 1438   2.073   6.330   9.581  0.7419  0.6224  0.9453
   20CHL1  H12B 1439   2.105   6.159   9.639  0.2741  0.3646  0.0404
   20CHL1   C11 1440   2.187   6.324   9.761 -0.5079  0.4826  0.1819
   20CHL1  H11A 1441   2.226   6.424   9.732 -2.9279  0.6424 -2.9849
   20CHL1  H11B 1442   2.099   6.343   9.826 -1.6940 -2.5997 -0.3361
   20CHL1    C9 1443   2.295   6.238   9.837 -0.0747  0.7480  0.5306
   20CHL1    H9 1444   2.240   6.145   9.863 -0.2745  0.5290 -0.6377
   20CHL1   C10 1445   2.336   6.297   9.978 -0.1881  0.1865  0.3103
   20CHL1   C19 1446   2.391   6.440   9.959 -0.6352 -0.2754  0.5957
   20CHL1  H19A 1447   2.309   6.512   9.938 -2.2805 -1.2908  3.1436
   20CHL1  H19B 1448   2.454   6.470  10.045  3.6096  1.6314 -2.7493
   20CHL1  H19C 1449   2.464   6.451   9.875  0.6211 -2.4159  1.3251
   20CHL1    C1 1450   2.208   6.311  10.060 -0.3622 -0.3998 -0.3080
   20CHL1   H1A 1451   2.140   6.391  10.023  0.4287  0.6645  0.4658
   20CHL1   H1B 1452   2.151   6.215  10.058 -1.2650  0.1001  0.4875
   20CHL1    C2 1453   2.244   6.348  10.206 -0.1609 -0.1038 -0.0886
   20CHL1   H2A 1454   2.159   6.372  10.274  0.4875  1.3133  0.2661
   20CHL1   H2B 1455   2.303   6.443  10.203 -1.5900  0.7860 -2.3921
   20CHL1   C20 1456   2.222   6.227   9.278 -1.3874  0.6494  0.0090
   20CHL1   H20 1457   2.304   6.292   9.242 -0.6052 -0.8802 -1.0861
   20CHL1   C21 1458   2.085   6.284   9.299  0.7241 -0.1271  0.4922
   20CHL1  H21A 1459   2.064   6.371   9.365  0.7669  1.2246 -1.2120
   20CHL1  H21B 1460   2.019   6.197   9.318 -1.2613  0.9413 -1.2157
   20CHL1  H21C 1461   2.052   6.319   9.200 -0.2953  0.8080  1.1414
   20CHL1   C22 1462   2.210   6.121   9.155  0.3613 -0.3587  0.0236
   20CHL1  H22A 1463   2.308   6.070   9.146  0.1110 -0.5236 -2.1183
   20CHL1  H22B 1464   2.137   6.041   9.181 -1.3932  1.5420  1.2437
   20CHL1   C23 1465   2.186   6.185   9.016  0.1558 -0.2368 -0.5447
   20CHL1  H23A 1466   2.091   6.241   9.008  0.4429  0.2897 -0.3178
   20CHL1  H23B 1467   2.264   6.258   8.984 -0.8640  1.2713  0.3036
   20CHL1   C24 1468   2.185   6.077   8.909 -0.1242 -0.3626  0.2763
   20CHL1  H24A 1469   2.281   6.022   8.915  0.5979  0.7855 -0.4022
   20CHL1  H24B 1470   2.108   6.011   8.955  1.0756 -1.7850  0.2932
   20CHL1   C25 1471   2.156   6.119   8.766  0.2279 -1.0180 -0.0423
   20CHL1   H25 1472   2.222   6.202   8.732 -0.5314 -0.2485  0.3302
   20CHL1   C26 1473   2.179   5.999   8.666  0.0912 -0.5092  0.2048
   20CHL1  H26A 1474   2.167   6.032   8.561 -0.1046 -0.6971  0.1668
   20CHL1  H26B 1475   2.279   5.959   8.689  0.6493  0.8952  0.3243
   20CHL1  H26C 1476   2.097   5.926   8.685 -1.5961  1.5061  1.1909
   20CHL1   C27 1477   2.003   6.176   8.741  0.4672  0.3002  0.2237
   20CHL1  H27A 1478   1.992   6.192   8.632  0.2676  1.3194  0.3864
   20CHL1  H27B 1479   1.933   6.098   8.779  0.9104  0.1983  0.8462
   20CHL1  H27C 1480   2.001   6.268   8.803 -1.6515  0.4825 -0.0455
   21CHL1    C3 1481   2.667   2.966   9.682  0.2304 -0.3779  0.1005
   21CHL1    H3 1482   2.774   2.948   9.659  0.3812  0.0906  0.4283
   21CHL1    O3 1483   2.652   2.979   9.817  0.0430  0.5909 -0.3759
   21CHL1   H3' 1484   2.570   2.935   9.843  0.0984  1.2693  1.0281
   21CHL1    C4 1485   2.635   3.101   9.623  0.5515 -0.7910  0.4063
   21CHL1   H4A 1486   2.533   3.134   9.651  0.4173 -0.3963 -0.5247
   21CHL1   H4B 1487   2.711   3.164   9.674 -0.0417  0.3702 -0.1242
   21CHL1    C5 1488   2.641   3.118   9.475 -0.2541 -0.3468 -0.1103
   21CHL1    C6 1489   2.725   3.215   9.427  0.2139 -0.2317  0.2139
   21CHL1    H6 1490   2.777   3.283   9.496 -0.2222 -1.0323  1.3597
   21CHL1    C7 1491   2.742   3.240   9.276  0.2736 -0.0585  0.1893
   21CHL1   H7A 1492   2.748   3.349   9.254 -0.3491 -0.1193 -0.2854
   21CHL1   H7B 1493   2.842   3.199   9.248 -0.1084 -0.1745 -1.0596
   21CHL1    C8 1494   2.639   3.167   9.199  0.4993 -0.6003  0.3947
   21CHL1    H8 1495   2.543   3.223   9.205  0.5311 -0.5754  0.6942
   21CHL1   C14 1496   2.678   3.161   9.056  0.1452 -0.5939  0.6488
   21CHL1   H14 1497   2.769   3.099   9.047  1.4963  1.2913  0.5999
   21CHL1   C15 1498   2.711   3.292   8.977  0.0996  0.2375 -0.4529
   21CHL1  H15A 1499   2.636   3.370   9.003  0.4880  0.4161  0.1601
   21CHL1  H15B 1500   2.808   3.340   9.004  0.0762  0.1433 -0.1978
   21CHL1   C16 1501   2.703   3.260   8.827  0.3613  0.3075 -1.3101
   21CHL1  H16A 1502   2.626   3.327   8.782 -0.8494  1.2384  1.8374
   21CHL1  H16B 1503   2.798   3.278   8.773 -0.8295  1.8899 -3.0073
   21CHL1   C17 1504   2.644   3.114   8.824  0.2799 -0.3256 -0.0326
   21CHL1   H17 1505   2.726   3.040   8.818  0.9257  0.2885  1.0389
   21CHL1   C13 1506   2.576   3.088   8.963 -0.6034  0.2217  0.1833
   21CHL1   C18 1507   2.437   3.160   8.972  0.3224  0.1699  0.2801
   21CHL1  H18A 1508   2.447   3.260   8.923 -0.2227  0.5746  0.9823
   21CHL1  H18B 1509   2.359   3.097   8.926 -1.7852  0.0678  3.6584
   21CHL1  H18C 1510   2.407   3.170   9.078 -0.2868 -0.3328  0.1585
   21CHL1   C12 1511   2.575   2.941   9.010 -0.0485  0.2462  0.2459
   21CHL1  H12A 1512   2.505   2.885   8.944  1.8113 -0.7417 -0.9617
   21CHL1  H12B 1513   2.671   2.888   8.992 -0.8520 -1.9437  1.9680
   21CHL1   C11 1514   2.530   2.929   9.151 -0.1943 -0.0717 -0.8098
   21CHL1  H11A 1515   2.421   2.952   9.157 -0.2072 -0.3056 -0.0926
   21CHL1  H11B 1516   2.543   2.823   9.182  2.1553  0.3363 -0.2179
   21CHL1    C9 1517   2.611   3.022   9.252 -0.2155 -0.3734  0.0201
   21CHL1    H9 1518   2.712   2.976   9.254 -0.3628 -0.6916  0.5938
   21CHL1   C10 1519   2.568   3.009   9.399 -0.1238 -0.3124 -0.0870
   21CHL1   C19 1520   2.417   3.051   9.417  0.1124  0.3296  0.1372
   21CHL1  H19A 1521   2.355   2.962   9.396 -0.1240  0.5826 -0.2340
   21CHL1  H19B 1522   2.390   3.090   9.517  0.8875  2.6627 -0.4977
   21CHL1  H19C 1523   2.395   3.117   9.331  0.3982 -1.9227 -1.7480
   21CHL1    C1 1524   2.594   2.866   9.466  0.0259  0.0298  0.5950
   21CHL1   H1A 1525   2.545   2.778   9.419 -1.3046  0.5117  1.0440
   21CHL1   H1B 1526   2.700   2.847   9.438  0.0286  0.6430  0.1892
   21CHL1    C2 1527   2.582   2.850   9.622 -0.0670 -0.7863  0.3350
   21CHL1   H2A 1528   2.617   2.748   9.649  0.3368 -0.9236 -0.6353
   21CHL1   H2B 1529   2.480   2.853   9.665 -1.1927  1.3841 -2.1852
   21CHL1   C20 1530   2.558   3.090   8.699  0.8055  0.3732 -0.0262
   21CHL1   H20 1531   2.471   3.158   8.710  0.6378  0.0104  0.9941
   21CHL1   C21 1532   2.514   2.945   8.682  0.2339 -0.3567 -0.0975
   21CHL1  H21A 1533   2.476   2.921   8.580 -2.0984 -0.6516  0.7941
   21CHL1  H21B 1534   2.427   2.923   8.747  0.0968  0.6586  0.0657
   21CHL1  H21C 1535   2.599   2.875   8.700 -0.0457 -0.2214  2.0394
   21CHL1   C22 1536   2.638   3.119   8.572  0.0390  0.2012 -0.0327
   21CHL1  H22A 1537   2.738   3.161   8.594  0.2299 -0.1779 -0.1814
   21CHL1  H22B 1538   2.658   3.022   8.522  1.8352  1.0714 -1.1021
   21CHL1   C23 1539   2.559   3.210   8.470 -0.6971  0.4408  0.2297
   21CHL1  H23A 1540   2.463   3.167   8.435  0.4537 -0.3376 -2.1722
   21CHL1  H23B 1541   2.528   3.309   8.510  0.9203  0.7807  0.7017
   21CHL1   C24 1542   2.651   3.237   8.349 -0.4547  0.3142  0.1335
   21CHL1  H24A 1543   2.732   3.307   8.380  2.6464 -1.7948 -2.5169
   21CHL1  H24B 1544   2.706   3.144   8.325 -0.0708  0.4129  0.6228
   21CHL1   C25 1545   2.582   3.296   8.222 -0.7998 -0.3649 -0.0231
   21CHL1   H25 1546   2.512   3.220   8.180  2.0778 -2.7521 -0.8529
   21CHL1   C26 1547   2.510   3.430   8.258  0.2161  0.4967  0.6433
   21CHL1  H26A 1548   2.452   3.461   8.168  2.1217  2.0423 -0.1294
   21CHL1  H26B 1549   2.452   3.420   8.352  0.7685  0.2604  0.9641
   21CHL1  H26C 1550   2.586   3.511   8.270  2.1675 -0.9686 -1.0491
   21CHL1   C27 1551   2.683   3.312   8.104 -0.1284 -0.9587 -0.3536
   21CHL1  H27A 1552   2.734   3.216   8.081  1.9359 -0.2090  0.8195
   21CHL1  H27B 1553   2.648   3.365   8.013  2.1503 -1.1524 -1.4217
   21CHL1  H27C 1554   2.766   3.381   8.129  1.2302 -1.8500 -2.1858
   22CHL1    C3 1555   2.587   4.485  10.069 -0.2358  0.4719 -0.0956
   22CHL1    H3 1556   2.651   4.410  10.019 -2.5329 -1.6473 -0.0578
   22CHL1    O3 1557   2.590   4.461  10.204 -0.7670 -0.8693 -0.3641
   22CHL1   H3' 1558   2.562   4.546  10.240 -0.1880 -0.4587 -0.8676
   22CHL1    C4 1559   2.654   4.623  10.038 -0.7296 -0.7460  0.3343
   22CHL1   H4A 1560   2.598   4.709  10.079 -0.8157 -1.5225  1.9219
   22CHL1   H4B 1561   2.756   4.606  10.079 -0.7701  1.4754  1.4514
   22CHL1    C5 1562   2.665   4.643   9.887 -0.2713  0.3571 -0.3306
   22CHL1    C6 1563   2.782   4.671   9.823  0.4850 -0.5466  0.3777
   22CHL1    H6 1564   2.875   4.680   9.882  0.5220 -1.3952  0.4589
   22CHL1    C7 1565   2.796   4.691   9.680  0.3410  0.5558  0.1138
   22CHL1   H7A 1566   2.850   4.785   9.654  1.4972 -0.4475 -1.2922
   22CHL1   H7B 1567   2.854   4.605   9.641  0.8258  0.8663  0.1414
   22CHL1    C8 1568   2.653   4.698   9.606 -0.0937 -0.6946 -0.4435
   22CHL1    H8 1569   2.616   4.798   9.635  1.0610 -0.7636  1.4581
   22CHL1   C14 1570   2.675   4.671   9.455 -0.2482 -0.4575 -0.5189
   22CHL1   H14 1571   2.710   4.570   9.426  0.4020  0.2381 -2.3217
   22CHL1   C15 1572   2.772   4.763   9.382 -0.2717  0.0651  0.1485
   22CHL1  H15A 1573   2.752   4.867   9.417  1.3230  0.6170 -0.5006
   22CHL1  H15B 1574   2.879   4.742   9.403 -0.1296 -0.1082 -0.7107
   22CHL1   C16 1575   2.746   4.738   9.235  0.2990 -0.6949 -0.2077
   22CHL1  H16A 1576   2.749   4.840   9.190  1.3622  1.0236  3.3580
   22CHL1  H16B 1577   2.819   4.673   9.184  0.0874  0.3452 -1.9013
   22CHL1   C17 1578   2.607   4.677   9.234  0.1314  0.0866  0.1258
   22CHL1   H17 1579   2.628   4.569   9.217  1.1062  0.4817 -1.3651
   22CHL1   C13 1580   2.544   4.673   9.374 -0.4018 -0.0078 -0.4513
   22CHL1   C18 1581   2.469   4.807   9.400 -0.3179 -0.3583  0.0311
   22CHL1  H18A 1582   2.532   4.895   9.375  0.1661 -0.4221  0.9686
   22CHL1  H18B 1583   2.377   4.802   9.337 -1.0109  0.6571  0.9426
   22CHL1  H18C 1584   2.435   4.812   9.505 -1.4486  0.4255 -0.3550
   22CHL1   C12 1585   2.465   4.550   9.423  0.1340  0.7683 -0.3890
   22CHL1  H12A 1586   2.383   4.520   9.355  0.6076 -3.5681  0.6135
   22CHL1  H12B 1587   2.520   4.454   9.426 -0.8776  0.1653 -0.4777
   22CHL1   C11 1588   2.422   4.569   9.570  0.4764 -0.2284 -0.0545
   22CHL1  H11A 1589   2.346   4.651   9.576 -0.9890 -1.6213  1.8825
   22CHL1  H11B 1590   2.378   4.474   9.608 -0.0165  0.6907  1.7987
   22CHL1    C9 1591   2.549   4.591   9.662 -0.7304 -0.2680  0.4393
   22CHL1    H9 1592   2.596   4.490   9.658  0.8414  0.3665  1.8242
   22CHL1   C10 1593   2.530   4.617   9.815 -0.6687 -0.7557 -0.6910
   22CHL1   C19 1594   2.425   4.736   9.845  0.2196 -0.4420 -0.0482
   22CHL1  H19A 1595   2.393   4.739   9.952 -0.6756 -0.4409 -0.3067
   22CHL1  H19B 1596   2.479   4.827   9.812  2.4924 -2.1434 -1.3125
   22CHL1  H19C 1597   2.331   4.716   9.789  0.7179 -2.7698 -0.1709
   22CHL1    C1 1598   2.446   4.500   9.867  0.5082  0.2558 -0.2408
   22CHL1   H1A 1599   2.344   4.495   9.823  1.0760  1.0305 -1.7023
   22CHL1   H1B 1600   2.493   4.408   9.828 -1.3066 -1.3230  1.0723
   22CHL1    C2 1601   2.446   4.483  10.018  1.1535  0.0677 -0.2213
   22CHL1   H2A 1602   2.382   4.394  10.038  1.3275 -0.2083 -0.8541
   22CHL1   H2B 1603   2.398   4.569  10.069  1.0092  0.1563 -0.5063
   22CHL1   C20 1604   2.519   4.713   9.113 -0.8624 -0.3448  0.4596
   22CHL1   H20 1605   2.497   4.821   9.124 -1.9349 -0.5750  0.7169
   22CHL1   C21 1606   2.387   4.631   9.103  0.5319 -0.3438  0.1603
   22CHL1  H21A 1607   2.338   4.672   9.013  1.8040  1.7682  0.3716
   22CHL1  H21B 1608   2.324   4.668   9.187 -1.3253 -1.0520 -0.8791
   22CHL1  H21C 1609   2.417   4.524   9.107  1.4751 -0.0714  0.8498
   22CHL1   C22 1610   2.599   4.694   8.979  0.3248  0.0840 -0.6085
   22CHL1  H22A 1611   2.682   4.622   8.996  0.7514  0.4248 -1.2282
   22CHL1  H22B 1612   2.533   4.653   8.901 -0.5880  2.5412 -1.2044
   22CHL1   C23 1613   2.649   4.833   8.927 -0.0935 -0.4947  0.0846
   22CHL1  H23A 1614   2.566   4.863   8.860 -0.5341 -0.9337  0.4210
   22CHL1  H23B 1615   2.666   4.903   9.012 -1.2093  1.6475 -1.3620
   22CHL1   C24 1616   2.776   4.817   8.844 -0.1046  0.0524 -0.1686
   22CHL1  H24A 1617   2.840   4.742   8.894 -0.9121  0.3220  1.3074
   22CHL1  H24B 1618   2.740   4.772   8.749 -0.0175 -2.2498  0.8498
   22CHL1   C25 1619   2.849   4.952   8.830 -1.1233  0.6630 -0.2864
   22CHL1   H25 1620   2.919   4.940   8.744 -0.0874 -0.3600  0.6836
   22CHL1   C26 1621   2.761   5.068   8.785  0.1772  0.5921  0.0259
   22CHL1  H26A 1622   2.677   5.085   8.856 -0.4894 -1.6046 -0.1608
   22CHL1  H26B 1623   2.825   5.159   8.790  2.7192 -1.1595  1.3289
   22CHL1  H26C 1624   2.730   5.040   8.683 -0.0654 -0.9862  0.5116
   22CHL1   C27 1625   2.928   4.980   8.958 -0.0029  0.1743  0.9402
   22CHL1  H27A 1626   2.988   4.889   8.980 -0.7244 -0.5745 -0.0897
   22CHL1  H27B 1627   3.003   5.061   8.944 -1.0709  1.5535  2.7144
   22CHL1  H27C 1628   2.869   5.021   9.043 -1.4355  1.0183 -0.4112
   23CHL1    C3 1629   5.002   5.633   9.747 -0.4427  0.5169  0.3165
   23CHL1    H3 1630   4.903   5.674   9.717 -1.6813 -1.0632  2.0527
   23CHL1    O3 1631   5.033   5.684   9.879 -0.5397 -0.0417  0.1553
   23CHL1   H3' 1632   5.024   5.608   9.937  1.0692 -0.8067 -0.5486
   23CHL1    C4 1633   4.988   5.480   9.746 -0.0327  0.0613  0.6983
   23CHL1   H4A 1634   5.080   5.430   9.782  0.3476  0.2867  0.0498
   23CHL1   H4B 1635   4.899   5.455   9.808 -0.7163  0.7014  0.0017
   23CHL1    C5 1636   4.963   5.433   9.599  0.0416 -1.0850 -0.3818
   23CHL1    C6 1637   4.850   5.373   9.570 -0.1493  0.5258  0.4220
   23CHL1    H6 1638   4.779   5.339   9.647  0.9530  1.7456  2.0476
   23CHL1    C7 1639   4.819   5.330   9.434  0.5871 -0.2456  0.0783
   23CHL1   H7A 1640   4.765   5.234   9.449  1.4682 -0.6202  0.9810
   23CHL1   H7B 1641   4.744   5.398   9.389  0.3430 -0.8733 -0.4748
   23CHL1    C8 1642   4.944   5.319   9.339 -0.0843 -0.6649  0.2495
   23CHL1    H8 1643   5.011   5.233   9.360  0.7929  0.1185  0.7334
   23CHL1   C14 1644   4.903   5.301   9.191 -0.6424 -0.5156  0.5375
   23CHL1   H14 1645   4.845   5.391   9.163 -0.4158 -1.3483 -3.1454
   23CHL1   C15 1646   4.809   5.174   9.166 -0.5763  0.5435 -0.6188
   23CHL1  H15A 1647   4.852   5.094   9.229  0.5699  0.7193 -1.1374
   23CHL1  H15B 1648   4.701   5.193   9.185 -0.6527  1.8823 -2.1385
   23CHL1   C16 1649   4.826   5.147   9.017 -0.2750 -0.9049  0.6708
   23CHL1  H16A 1650   4.867   5.045   9.002  1.2725 -0.0879 -1.0750
   23CHL1  H16B 1651   4.729   5.149   8.963 -0.4172  0.7076  0.9408
   23CHL1   C17 1652   4.933   5.253   8.967 -0.3188  0.1577 -0.1580
   23CHL1   H17 1653   4.862   5.333   8.938 -1.5151 -0.5478  0.7603
   23CHL1   C13 1654   5.020   5.294   9.089 -0.3025 -1.5597 -0.0349
   23CHL1   C18 1655   5.116   5.180   9.124  0.3883  0.4223  0.1277
   23CHL1  H18A 1656   5.072   5.080   9.103  0.7362  0.5866 -1.4948
   23CHL1  H18B 1657   5.204   5.203   9.061  1.5986 -2.5492  0.5499
   23CHL1  H18C 1658   5.148   5.172   9.230 -1.1930 -0.7372  0.5675
   23CHL1   C12 1659   5.079   5.431   9.105 -0.3654 -0.1448 -0.4840
   23CHL1  H12A 1660   5.165   5.445   9.036  1.1572 -1.4923  1.0626
   23CHL1  H12B 1661   4.999   5.506   9.087  0.3538  2.1995  4.4212
   23CHL1   C11 1662   5.139   5.444   9.245  0.2852 -0.3527 -0.1926
   23CHL1  H11A 1663   5.217   5.364   9.245  0.3757 -0.2809 -1.0773
   23CHL1  H11B 1664   5.198   5.537   9.262  0.4296 -0.8543  2.3352
   23CHL1    C9 1665   5.026   5.439   9.349  0.1746 -0.0428 -0.4963
   23CHL1    H9 1666   4.949   5.516   9.327 -0.6789 -0.5537  0.5965
   23CHL1   C10 1667   5.069   5.470   9.496 -0.4172  0.4508 -0.3347
   23CHL1   C19 1668   5.199   5.380   9.535 -0.1834 -0.1670  0.0630
   23CHL1  H19A 1669   5.174   5.272   9.531 -3.2585  0.4258  0.9897
   23CHL1  H19B 1670   5.278   5.390   9.457  0.4369 -0.3383  0.6675
   23CHL1  H19C 1671   5.249   5.402   9.631  1.1101 -3.0579  0.1553
   23CHL1    C1 1672   5.092   5.625   9.509  0.2689  0.6013  0.4562
   23CHL1   H1A 1673   5.180   5.651   9.447  0.2946  1.1518  0.7142
   23CHL1   H1B 1674   4.999   5.661   9.462  0.7822  0.6432 -0.5437
   23CHL1    C2 1675   5.116   5.676   9.648  0.1814 -0.3980  0.1055
   23CHL1   H2A 1676   5.124   5.786   9.662 -1.8727 -0.1478 -0.4339
   23CHL1   H2B 1677   5.216   5.634   9.675 -0.3246 -2.2266 -0.6902
   23CHL1   C20 1678   5.007   5.218   8.837  0.0294 -0.8748  0.2747
   23CHL1   H20 1679   5.094   5.151   8.857  0.8557  0.1163  0.0700
   23CHL1   C21 1680   5.057   5.354   8.774 -0.1593  0.0473  0.2044
   23CHL1  H21A 1681   5.110   5.329   8.680 -1.8653  0.2972 -0.8611
   23CHL1  H21B 1682   5.135   5.407   8.834  0.1854 -1.3321  1.0291
   23CHL1  H21C 1683   4.973   5.422   8.751 -1.1543 -0.9896  0.6652
   23CHL1   C22 1684   4.913   5.144   8.738 -0.4590  0.6109  0.6782
   23CHL1  H22A 1685   4.867   5.064   8.800  0.8919 -0.6763  0.0888
   23CHL1  H22B 1686   4.832   5.209   8.700 -0.2230 -0.0627 -1.0798
   23CHL1   C23 1687   4.998   5.076   8.624  0.1078  0.2151  0.0468
   23CHL1  H23A 1688   5.047   5.151   8.557  0.0106  1.4077  1.2635
   23CHL1  H23B 1689   5.077   5.011   8.666  0.2139 -0.7049 -1.5354
   23CHL1   C24 1690   4.912   4.989   8.530 -0.6257 -0.4258 -0.3041
   23CHL1  H24A 1691   4.870   4.904   8.589 -1.2927  0.7556  0.9773
   23CHL1  H24B 1692   4.836   5.054   8.483  0.1294  0.4322 -0.3623
   23CHL1   C25 1693   4.998   4.931   8.414 -0.1506 -0.5462  0.3640
   23CHL1   H25 1694   5.052   5.012   8.361 -0.4557 -0.4635  0.1789
   23CHL1   C26 1695   5.104   4.839   8.449  0.3230 -0.0652 -0.3431
   23CHL1  H26A 1696   5.165   4.805   8.363  1.6849  2.0418 -0.2921
   23CHL1  H26B 1697   5.188   4.888   8.503  1.4501 -1.1586 -1.0653
   23CHL1  H26C 1698   5.067   4.758   8.516 -0.3727  0.7235  0.2521
   23CHL1   C27 1699   4.896   4.876   8.321  0.2247 -0.0066 -0.3681
   23CHL1  H27A 1700   4.950   4.855   8.225  0.6120  2.9191 -0.8877
   23CHL1  H27B 1701   4.858   4.779   8.360  1.4849 -0.5995 -0.5408
   23CHL1  H27C 1702   4.809   4.939   8.292 -1.0609 -2.2863 -1.8295
   24CHL1    C3 1703   5.300   0.419  10.167 -0.9766 -0.1523  0.0536
   24CHL1    H3 1704   5.404   0.411  10.129 -0.7417  2.1842  0.0532
   24CHL1    O3 1705   5.297   0.450  10.301 -0.2682  0.2434  0.3782
   24CHL1   H3' 1706   5.204   0.450  10.323  0.1767  0.0616  2.4417
   24CHL1    C4 1707   5.256   0.557  10.092  0.6055  0.5431 -0.0555
   24CHL1   H4A 1708   5.162   0.582  10.146 -0.5075 -2.8836 -0.1730
   24CHL1   H4B 1709   5.343   0.623  10.109  1.2284  0.1371 -1.5013
   24CHL1    C5 1710   5.239   0.530   9.940 -0.2148 -0.7621 -0.6428
   24CHL1    C6 1711   5.296   0.614   9.851  0.3059  0.4871 -0.0915
   24CHL1    H6 1712   5.342   0.706   9.890  2.9847 -0.1839 -1.4506
   24CHL1    C7 1713   5.291   0.593   9.699 -0.1994  0.0173 -0.1575
   24CHL1   H7A 1714   5.251   0.684   9.649 -1.4008 -0.0280  0.6816
   24CHL1   H7B 1715   5.392   0.561   9.666  0.1655  1.0097 -0.0482
   24CHL1    C8 1716   5.184   0.493   9.659  0.7295  0.6070 -0.0417
   24CHL1    H8 1717   5.090   0.551   9.676  1.3764  2.1111 -1.3530
   24CHL1   C14 1718   5.205   0.459   9.510 -0.4085 -0.0351  0.4693
   24CHL1   H14 1719   5.304   0.409   9.511 -0.1993  0.3741  0.5529
   24CHL1   C15 1720   5.209   0.573   9.413  0.4889  0.1795  0.2996
   24CHL1  H15A 1721   5.125   0.644   9.432 -2.1173 -2.2304 -1.4629
   24CHL1  H15B 1722   5.307   0.624   9.400  0.8717 -0.8775 -1.1845
   24CHL1   C16 1723   5.177   0.497   9.282  0.1696 -0.8347 -0.2797
   24CHL1  H16A 1724   5.087   0.544   9.237  1.3241  0.3407 -1.4481
   24CHL1  H16B 1725   5.258   0.503   9.206  0.9955 -0.0483  0.6345
   24CHL1   C17 1726   5.133   0.352   9.309  0.1928  0.0678  0.1148
   24CHL1   H17 1727   5.218   0.286   9.282 -0.8485 -1.3056  0.0784
   24CHL1   C13 1728   5.105   0.358   9.457 -0.3517 -0.0567 -1.4545
   24CHL1   C18 1729   4.960   0.408   9.488  0.2341 -0.3708  0.1644
   24CHL1  H18A 1730   4.886   0.331   9.457 -0.5143  0.8853 -1.3233
   24CHL1  H18B 1731   4.943   0.438   9.593 -1.6479 -1.4428  0.2010
   24CHL1  H18C 1732   4.938   0.497   9.424  1.7487 -0.3395 -0.3605
   24CHL1   C12 1733   5.117   0.220   9.535 -0.1854 -0.3164 -0.1901
   24CHL1  H12A 1734   5.023   0.167   9.511 -1.9491  2.7496 -0.5910
   24CHL1  H12B 1735   5.208   0.164   9.503  1.7142  1.7744  1.2020
   24CHL1   C11 1736   5.121   0.242   9.686 -0.2333 -0.2656  0.3512
   24CHL1  H11A 1737   5.014   0.253   9.715 -0.6421  1.1064 -1.4607
   24CHL1  H11B 1738   5.160   0.147   9.728 -1.6333  0.0942  2.6433
   24CHL1    C9 1739   5.200   0.368   9.741  0.2105 -0.0559  0.4890
   24CHL1    H9 1740   5.308   0.342   9.736  0.2988  0.0296  1.7354
   24CHL1   C10 1741   5.171   0.399   9.897  1.1878  0.4100  0.3401
   24CHL1   C19 1742   5.013   0.425   9.923  0.1944 -0.4165  0.1994
   24CHL1  H19A 1743   5.001   0.525   9.876 -0.2413 -0.2011  0.7668
   24CHL1  H19B 1744   4.940   0.352   9.882 -0.1700 -0.4344  0.8805
   24CHL1  H19C 1745   4.992   0.445  10.030  3.2391  1.1061  0.6317
   24CHL1    C1 1746   5.206   0.281   9.975  0.2413  0.6332 -0.7973
   24CHL1   H1A 1747   5.146   0.192   9.945 -1.0291  1.3731 -0.5413
   24CHL1   H1B 1748   5.313   0.262   9.954  0.5458  1.6211 -0.2058
   24CHL1    C2 1749   5.206   0.304  10.127 -0.5654  0.6332 -0.8835
   24CHL1   H2A 1750   5.236   0.213  10.183  1.2640  1.8392  0.2003
   24CHL1   H2B 1751   5.104   0.334  10.160 -0.4705  0.0492 -0.0347
   24CHL1   C20 1752   5.021   0.293   9.216  0.1796 -0.3998  0.3058
   24CHL1   H20 1753   4.922   0.305   9.265 -0.4940 -0.5786 -0.9772
   24CHL1   C21 1754   5.052   0.146   9.193 -0.4924  0.4110 -0.4372
   24CHL1  H21A 1755   5.090   0.109   9.290 -2.9299 -1.6248 -0.1712
   24CHL1  H21B 1756   5.145   0.131   9.134 -0.0065 -2.6326  0.9025
   24CHL1  H21C 1757   4.963   0.088   9.160 -0.5402  1.1130 -1.6138
   24CHL1   C22 1758   5.019   0.355   9.076 -0.0496  0.8306  0.1891
   24CHL1  H22A 1759   4.951   0.441   9.096 -0.2129  0.6648  0.3517
   24CHL1  H22B 1760   5.120   0.392   9.048 -0.8438  2.3112 -0.8595
   24CHL1   C23 1761   4.963   0.276   8.957 -0.9919  0.2144  0.2100
   24CHL1  H23A 1762   5.029   0.189   8.934 -0.8114  0.3740  0.1184
   24CHL1  H23B 1763   4.872   0.217   8.981 -0.2569 -1.4760 -0.9246
   24CHL1   C24 1764   4.940   0.366   8.837  0.0355 -0.2435  0.2570
   24CHL1  H24A 1765   4.875   0.450   8.869  1.2020  1.9170 -2.6121
   24CHL1  H24B 1766   5.039   0.405   8.806 -0.6545  1.8206  0.5406
   24CHL1   C25 1767   4.868   0.304   8.706  0.2864  0.2091 -0.2374
   24CHL1   H25 1768   4.770   0.269   8.743  0.2349  1.3922  0.8190
   24CHL1   C26 1769   4.824   0.422   8.616 -0.0937 -0.4390 -0.5481
   24CHL1  H26A 1770   4.768   0.502   8.668  1.7881  0.2872  0.4261
   24CHL1  H26B 1771   4.918   0.470   8.582  0.2574  0.2122  1.2562
   24CHL1  H26C 1772   4.758   0.382   8.535  1.4861 -1.4005 -1.4127
   24CHL1   C27 1773   4.953   0.198   8.642 -0.3371  0.4565 -0.1962
   24CHL1  H27A 1774   4.895   0.151   8.560 -0.0251 -0.2176 -0.0329
   24CHL1  H27B 1775   5.045   0.240   8.598 -0.1966 -1.3189 -1.6835
   24CHL1  H27C 1776   4.979   0.114   8.710 -2.3528 -1.0325 -1.1460
   25CHL1    C3 1777   6.228   0.474  10.056  0.1872 -0.3935  0.4773
   25CHL1    H3 1778   6.268   0.371  10.063  0.6497 -0.1278  1.9546
   25CHL1    O3 1779   6.224   0.526  10.185 -0.5064  0.3097 -0.0684
   25CHL1   H3' 1780   6.155   0.593  10.190 -0.4057  0.3505  0.9025
   25CHL1    C4 1781   6.323   0.558   9.973 -0.0339 -0.3039 -0.0703
   25CHL1   H4A 1782   6.285   0.661   9.992 -0.7166 -1.0747  3.4164
   25CHL1   H4B 1783   6.426   0.560  10.013  0.2532  0.1420 -0.8006
   25CHL1    C5 1784   6.314   0.519   9.826  0.1632  0.2312  0.3709
   25CHL1    C6 1785   6.422   0.476   9.758  0.8136 -0.6395  0.6828
   25CHL1    H6 1786   6.518   0.475   9.812  0.7866 -1.4165  0.7281
   25CHL1    C7 1787   6.431   0.456   9.604 -0.6796 -0.3068 -0.4195
   25CHL1   H7A 1788   6.509   0.512   9.549 -0.5686 -0.6140 -0.5818
   25CHL1   H7B 1789   6.430   0.347   9.580 -1.8503 -0.9258  2.0227
   25CHL1    C8 1790   6.293   0.502   9.538 -0.2586 -0.4703  0.0341
   25CHL1    H8 1791   6.300   0.611   9.516 -0.0836 -0.8695 -2.1830
   25CHL1   C14 1792   6.274   0.433   9.403  0.7479 -1.0734  0.1275
   25CHL1   H14 1793   6.269   0.323   9.418  3.2684 -1.3848 -0.7792
   25CHL1   C15 1794   6.396   0.442   9.310  0.2480 -0.4375  0.0616
   25CHL1  H15A 1795   6.442   0.544   9.304 -1.6092  0.3511 -2.4365
   25CHL1  H15B 1796   6.479   0.375   9.342 -0.4284 -0.7972  1.0677
   25CHL1   C16 1797   6.338   0.406   9.173 -0.3029 -0.4661  0.8610
   25CHL1  H16A 1798   6.354   0.492   9.104 -2.1503 -0.4635  0.3942
   25CHL1  H16B 1799   6.395   0.315   9.144  1.0928  0.5359  0.3156
   25CHL1   C17 1800   6.184   0.388   9.194 -0.2416 -0.6888 -0.4104
   25CHL1   H17 1801   6.170   0.282   9.222  0.8216 -0.2144  2.2466
   25CHL1   C13 1802   6.148   0.469   9.324  0.0107 -0.1490 -0.1419
   25CHL1   C18 1803   6.143   0.614   9.298  0.4444 -0.7515  0.2838
   25CHL1  H18A 1804   6.147   0.679   9.388  0.8562 -1.2354  0.6268
   25CHL1  H18B 1805   6.211   0.644   9.215 -1.1333 -1.2449 -1.2223
   25CHL1  H18C 1806   6.047   0.639   9.248 -0.2593 -0.0344  1.9190
   25CHL1   C12 1807   6.023   0.438   9.415  0.0350  0.4630  0.5548
   25CHL1  H12A 1808   5.930   0.472   9.365  0.3217  0.1927 -0.1678
   25CHL1  H12B 1809   6.014   0.327   9.408 -0.5927  0.5948 -0.9555
   25CHL1   C11 1810   6.042   0.491   9.559 -0.2218 -0.6145  0.6042
   25CHL1  H11A 1811   6.017   0.598   9.547  0.9065 -0.4599 -0.6111
   25CHL1  H11B 1812   5.965   0.438   9.621 -1.4406  0.4638  0.0575
   25CHL1    C9 1813   6.175   0.462   9.626  0.2698 -0.3024 -0.0588
   25CHL1    H9 1814   6.190   0.352   9.629  0.7875 -0.2211  0.5311
   25CHL1   C10 1815   6.182   0.526   9.764  0.5176  0.7392  1.1389
   25CHL1   C19 1816   6.145   0.674   9.755  0.4042 -0.3341 -0.3877
   25CHL1  H19A 1817   6.041   0.696   9.723  0.5453  1.5844  0.3744
   25CHL1  H19B 1818   6.151   0.722   9.855 -0.5973 -0.8875 -0.0506
   25CHL1  H19C 1819   6.222   0.726   9.695  1.4382 -0.1096  1.0744
   25CHL1    C1 1820   6.088   0.452   9.844  0.2312  1.2462  0.2709
   25CHL1   H1A 1821   5.984   0.470   9.809  0.4684  0.3754 -0.9461
   25CHL1   H1B 1822   6.107   0.343   9.833 -3.6270  0.3941  0.5960
   25CHL1    C2 1823   6.093   0.490   9.995  0.2095  0.2606 -0.2666
   25CHL1   H2A 1824   6.026   0.430  10.061 -3.0443  1.2548 -2.3974
   25CHL1   H2B 1825   6.067   0.597  10.010  0.2282  0.2455 -0.1268
   25CHL1   C20 1826   6.110   0.405   9.064 -0.2832 -0.0850  0.3579
   25CHL1   H20 1827   6.122   0.512   9.035  1.6884 -0.2503  0.4239
   25CHL1   C21 1828   5.962   0.373   9.089  0.8688 -0.1392 -0.2072
   25CHL1  H21A 1829   5.911   0.393   8.992  0.9606  0.2010 -0.1847
   25CHL1  H21B 1830   5.910   0.436   9.165  1.2056 -0.4865  0.3180
   25CHL1  H21C 1831   5.946   0.266   9.117 -0.4520 -0.2724 -1.3542
   25CHL1   C22 1832   6.172   0.320   8.953 -0.0609  0.1331  0.0713
   25CHL1  H22A 1833   6.277   0.347   8.931 -0.5111  0.8201 -1.3167
   25CHL1  H22B 1834   6.166   0.214   8.988  2.9684 -0.6839 -1.5036
   25CHL1   C23 1835   6.093   0.337   8.815 -0.1405 -0.5030  0.2052
   25CHL1  H23A 1836   5.996   0.285   8.829 -1.6547  1.4339 -2.2232
   25CHL1  H23B 1837   6.063   0.443   8.807 -0.5876 -0.6243  0.2908
   25CHL1   C24 1838   6.173   0.289   8.697 -0.5324 -0.1613 -0.9216
   25CHL1  H24A 1839   6.272   0.337   8.684 -1.3137  1.1726 -2.1054
   25CHL1  H24B 1840   6.199   0.184   8.723 -1.5742 -0.2494 -0.1649
   25CHL1   C25 1841   6.103   0.283   8.563  0.6219 -0.0827  0.8077
   25CHL1   H25 1842   6.089   0.387   8.528  1.8100  0.2563  1.2805
   25CHL1   C26 1843   6.182   0.202   8.454 -0.3042 -0.0464  0.0658
   25CHL1  H26A 1844   6.288   0.233   8.460 -0.2769 -0.1885  0.3841
   25CHL1  H26B 1845   6.168   0.092   8.459 -0.7884  0.0036 -0.1897
   25CHL1  H26C 1846   6.139   0.226   8.355  3.0950  0.5751 -1.3819
   25CHL1   C27 1847   5.959   0.231   8.561 -0.5514 -0.2339 -1.3489
   25CHL1  H27A 1848   5.956   0.120   8.565  0.6538 -0.3533  4.3648
   25CHL1  H27B 1849   5.907   0.267   8.652  1.6980  1.4783 -0.6642
   25CHL1  H27C 1850   5.898   0.255   8.471 -0.2446 -0.8087 -1.7170
   26CHL1    C3 1851   3.194   4.026  10.175 -0.0547  0.1997 -1.2509
   26CHL1    H3 1852   3.275   4.075  10.116  0.8085 -1.3495 -1.4066
   26CHL1    O3 1853   3.230   4.005  10.309 -0.3194  0.5371 -0.2710
   26CHL1   H3' 1854   3.240   4.095  10.341  1.8885 -0.3469  1.7953
   26CHL1    C4 1855   3.056   4.090  10.175  0.1161 -0.5086  0.4024
   26CHL1   H4A 1856   2.985   4.022  10.227 -1.4936 -0.3066 -1.4450
   26CHL1   H4B 1857   3.058   4.178  10.243 -0.9394  1.1805 -1.6546
   26CHL1    C5 1858   2.998   4.106  10.037 -0.3885 -0.3680 -0.0965
   26CHL1    C6 1859   2.948   4.228  10.003 -0.3950  0.6287  0.7573
   26CHL1    H6 1860   2.946   4.312  10.073 -2.2742 -0.5195  2.1770
   26CHL1    C7 1861   2.892   4.247   9.864  0.2957 -0.5758  0.1245
   26CHL1   H7A 1862   2.798   4.307   9.870 -0.2105 -1.0858 -1.9198
   26CHL1   H7B 1863   2.959   4.323   9.820 -0.4420  1.5167  2.3503
   26CHL1    C8 1864   2.877   4.124   9.776 -0.0988 -0.7547  0.1675
   26CHL1    H8 1865   2.775   4.083   9.792  0.9554 -2.7277  2.3358
   26CHL1   C14 1866   2.884   4.162   9.630  0.2531 -0.8244 -0.7009
   26CHL1   H14 1867   2.986   4.196   9.603 -0.4078  1.5627 -0.4779
   26CHL1   C15 1868   2.798   4.286   9.589  0.7916  0.4137 -0.4959
   26CHL1  H15A 1869   2.701   4.262   9.638  1.3803  1.5194  1.2951
   26CHL1  H15B 1870   2.834   4.388   9.613  1.9689 -0.1374  0.1106
   26CHL1   C16 1871   2.796   4.268   9.435  0.5087 -0.0444 -0.7082
   26CHL1  H16A 1872   2.698   4.287   9.386  0.9374  0.1470 -1.5097
   26CHL1  H16B 1873   2.866   4.341   9.389 -2.1047  3.1633  0.0176
   26CHL1   C17 1874   2.864   4.134   9.398  0.1114  0.2692  0.0306
   26CHL1   H17 1875   2.969   4.153   9.368  0.7891 -2.0978  0.6777
   26CHL1   C13 1876   2.864   4.050   9.528 -0.4037 -0.2055 -0.1927
   26CHL1   C18 1877   2.728   3.989   9.551  0.0692  0.7902  0.4250
   26CHL1  H18A 1878   2.650   4.068   9.546 -0.6703  0.0347 -0.3147
   26CHL1  H18B 1879   2.710   3.906   9.479  1.3519  0.6915  0.1955
   26CHL1  H18C 1880   2.730   3.947   9.654 -0.1355  0.1010  0.1540
   26CHL1   C12 1881   2.980   3.946   9.557 -0.1632  0.0993  0.3443
   26CHL1  H12A 1882   2.985   3.854   9.494  3.7478  0.9396 -0.8506
   26CHL1  H12B 1883   3.078   3.997   9.551 -0.4062  0.9125  2.4833
   26CHL1   C11 1884   2.988   3.902   9.700 -0.0438 -0.1522  0.0374
   26CHL1  H11A 1885   2.902   3.839   9.731 -1.3041  0.0888 -2.6337
   26CHL1  H11B 1886   3.077   3.836   9.711 -0.0734 -0.0837  0.6852
   26CHL1    C9 1887   2.993   4.028   9.798  0.6262 -0.2095 -0.2144
   26CHL1    H9 1888   3.088   4.081   9.776 -0.3934  1.8879  0.1948
   26CHL1   C10 1889   3.005   3.985   9.943  0.1981 -0.3352 -0.0988
   26CHL1   C19 1890   2.893   3.892   9.994 -0.0675 -0.4506 -0.2205
   26CHL1  H19A 1891   2.884   3.791   9.949 -1.3818 -0.0805 -0.8400
   26CHL1  H19B 1892   2.899   3.877  10.104 -1.6698 -0.2496 -0.0828
   26CHL1  H19C 1893   2.801   3.950   9.972  0.1889 -0.5401 -1.6154
   26CHL1    C1 1894   3.143   3.908   9.958  0.4608  0.4300 -0.0116
   26CHL1   H1A 1895   3.125   3.813   9.904 -0.5242  1.0868 -0.8694
   26CHL1   H1B 1896   3.224   3.961   9.904  1.4257 -0.4959  0.4906
   26CHL1    C2 1897   3.190   3.890  10.102 -0.2039  0.0602  0.0372
   26CHL1   H2A 1898   3.288   3.839  10.110 -0.3732 -0.5627 -1.5258
   26CHL1   H2B 1899   3.118   3.827  10.158  1.4178  0.7263  3.0648
   26CHL1   C20 1900   2.794   4.057   9.277 -1.1274  0.2044  0.0593
   26CHL1   H20 1901   2.691   4.021   9.299 -2.1420  2.1848 -1.1056
   26CHL1   C21 1902   2.874   3.928   9.248  0.0927 -0.3509 -0.3308
   26CHL1  H21A 1903   2.859   3.853   9.329  1.1101  0.6883  0.8469
   26CHL1  H21B 1904   2.977   3.959   9.219  0.0678  0.4151  0.3595
   26CHL1  H21C 1905   2.820   3.877   9.166 -2.0991  0.0556  0.7917
   26CHL1   C22 1906   2.784   4.150   9.150 -0.4992  0.2852 -0.5388
   26CHL1  H22A 1907   2.729   4.238   9.190 -0.0299 -0.4883  1.9993
   26CHL1  H22B 1908   2.888   4.177   9.123  0.9048 -3.0439  0.9565
   26CHL1   C23 1909   2.710   4.095   9.028 -0.2857 -0.4133  0.1665
   26CHL1  H23A 1910   2.762   4.017   8.969  1.5287  1.1002 -0.3469
   26CHL1  H23B 1911   2.615   4.053   9.065 -0.7668  2.9248  3.2593
   26CHL1   C24 1912   2.678   4.198   8.924 -0.7504 -0.2198  0.0358
   26CHL1  H24A 1913   2.575   4.169   8.895 -0.7259 -0.5954  0.3185
   26CHL1  H24B 1914   2.680   4.305   8.956  1.2532 -0.0254 -0.5776
   26CHL1   C25 1915   2.777   4.187   8.803  1.0053 -0.4846  0.3439
   26CHL1   H25 1916   2.780   4.080   8.774 -0.4984 -0.7500  1.0600
   26CHL1   C26 1917   2.726   4.270   8.686  0.5899 -0.1153  0.4170
   26CHL1  H26A 1918   2.644   4.208   8.643  1.2883 -0.0359 -1.0756
   26CHL1  H26B 1919   2.691   4.374   8.701  0.5578  0.4032 -2.7020
   26CHL1  H26C 1920   2.816   4.270   8.620  0.2010  0.4006 -0.1198
   26CHL1   C27 1921   2.919   4.225   8.836 -0.2966 -0.4126  0.4835
   26CHL1  H27A 1922   2.969   4.142   8.891 -2.0341 -0.7923  1.5796
   26CHL1  H27B 1923   2.976   4.237   8.742 -1.0958 -0.5594 -0.0295
   26CHL1  H27C 1924   2.913   4.325   8.883 -2.3904 -0.0220 -0.5077
   27CHL1    C3 1925   1.642   0.115  10.348  0.3643  0.3235  0.0050
   27CHL1    H3 1926   1.557   0.045  10.331  1.1134 -0.3710 -0.9588
   27CHL1    O3 1927   1.671   0.135  10.484 -0.6930 -0.4055 -0.1307
   27CHL1   H3' 1928   1.747   0.193  10.480 -0.0519 -1.1512  0.8002
   27CHL1    C4 1929   1.768   0.058  10.290 -0.6246 -0.2075  0.4658
   27CHL1   H4A 1930   1.858   0.115  10.323  0.2949 -0.7027 -1.0931
   27CHL1   H4B 1931   1.778  -0.039  10.344 -0.4753 -0.0569  0.7091
   27CHL1    C5 1932   1.780   0.036  10.140  0.1309 -0.2673  0.0362
   27CHL1    C6 1933   1.799  -0.084  10.084  0.2721  0.4368 -0.3293
   27CHL1    H6 1934   1.816  -0.168  10.153 -0.9343  0.2858 -0.1900
   27CHL1    C7 1935   1.810  -0.123   9.938  0.0573 -0.1317 -0.0153
   27CHL1   H7A 1936   1.889  -0.200   9.925 -0.0908  0.0781 -2.6373
   27CHL1   H7B 1937   1.717  -0.179   9.911 -1.0054  1.4108  0.3347
   27CHL1    C8 1938   1.816   0.011   9.862  0.8189  0.1335  0.7940
   27CHL1    H8 1939   1.921   0.043   9.876  0.5182  1.3187  0.4222
   27CHL1   C14 1940   1.792  -0.018   9.717 -0.5647 -0.3477  0.2531
   27CHL1   H14 1941   1.691  -0.062   9.703 -0.5573 -0.7604  1.3642
   27CHL1   C15 1942   1.873  -0.134   9.655  0.1635  0.0340 -0.4877
   27CHL1  H15A 1943   1.976  -0.145   9.695 -0.6888 -1.7521  1.4335
   27CHL1  H15B 1944   1.817  -0.230   9.660 -0.9631  0.7288  1.1523
   27CHL1   C16 1945   1.871  -0.095   9.507 -0.3609  0.4690  0.3011
   27CHL1  H16A 1946   1.972  -0.068   9.468 -0.0803  0.9031  1.2952
   27CHL1  H16B 1947   1.843  -0.189   9.455  3.3219 -0.1221 -0.9055
   27CHL1   C17 1948   1.779   0.024   9.481  0.2159  0.1370  0.2301
   27CHL1   H17 1949   1.673  -0.008   9.475 -1.0887  4.1160 -1.7196
   27CHL1   C13 1950   1.796   0.094   9.612  0.8125 -0.2331 -0.0431
   27CHL1   C18 1951   1.940   0.157   9.616 -0.3852 -0.0809 -0.0637
   27CHL1  H18A 1952   1.975   0.208   9.708  1.6697  0.1453 -0.9194
   27CHL1  H18B 1953   2.025   0.096   9.579 -0.3335 -0.5494  0.7879
   27CHL1  H18C 1954   1.930   0.238   9.541  1.2895  0.7196  0.5189
   27CHL1   C12 1955   1.691   0.207   9.655  0.7088  0.5935 -0.4479
   27CHL1  H12A 1956   1.720   0.299   9.601 -1.2292  1.9821  0.7634
   27CHL1  H12B 1957   1.588   0.172   9.631  0.9862 -0.9263  0.4004
   27CHL1   C11 1958   1.708   0.245   9.804  0.0445 -0.4960  0.1660
   27CHL1  H11A 1959   1.795   0.315   9.806 -0.4119  0.0851  0.0840
   27CHL1  H11B 1960   1.632   0.317   9.842 -0.7503 -0.0841 -2.0856
   27CHL1    C9 1961   1.721   0.125   9.907 -0.3354  0.7660  0.4662
   27CHL1    H9 1962   1.619   0.081   9.918  0.1142  0.2591  3.8347
   27CHL1   C10 1963   1.746   0.167  10.053 -0.5051  0.1246  0.6563
   27CHL1   C19 1964   1.863   0.264  10.069 -0.6611 -0.1220  0.6814
   27CHL1  H19A 1965   1.895   0.270  10.175 -0.3325 -0.1191  0.5811
   27CHL1  H19B 1966   1.957   0.232  10.019 -1.3026  0.8888 -1.2783
   27CHL1  H19C 1967   1.836   0.366  10.036  1.6168  0.8099  1.5539
   27CHL1    C1 1968   1.614   0.226  10.118  0.3445  0.1087  0.7984
   27CHL1   H1A 1969   1.593   0.322  10.066 -0.7038 -0.9164 -0.7957
   27CHL1   H1B 1970   1.536   0.151  10.093  2.3207 -2.0188  0.7283
   27CHL1    C2 1971   1.619   0.249  10.271 -0.4842  0.4009 -0.5982
   27CHL1   H2A 1972   1.529   0.297  10.313 -0.1740  0.4415  0.0322
   27CHL1   H2B 1973   1.704   0.318  10.293 -2.0550  2.2836 -0.1424
   27CHL1   C20 1974   1.813   0.091   9.351 -0.5060 -0.9719 -0.7204
   27CHL1   H20 1975   1.921   0.113   9.336 -0.6643 -0.9826 -2.0219
   27CHL1   C21 1976   1.728   0.223   9.351 -0.1496 -0.2317 -0.2235
   27CHL1  H21A 1977   1.768   0.302   9.418  1.0504 -2.5092  1.9396
   27CHL1  H21B 1978   1.619   0.209   9.366 -0.1496 -1.5940 -1.2819
   27CHL1  H21C 1979   1.733   0.269   9.251 -0.9615  0.8109  0.1959
   27CHL1   C22 1980   1.780  -0.004   9.233 -0.0490  0.1756  0.7530
   27CHL1  H22A 1981   1.843  -0.095   9.229 -0.4924 -0.1992  1.9072
   27CHL1  H22B 1982   1.679  -0.047   9.245 -0.4860  1.2076  0.8892
   27CHL1   C23 1983   1.797   0.067   9.097  0.3141 -0.1117  0.1412
   27CHL1  H23A 1984   1.720   0.147   9.095  2.3759  1.9805  0.1564
   27CHL1  H23B 1985   1.901   0.105   9.103 -0.2179  1.6075 -0.9402
   27CHL1   C24 1986   1.800  -0.029   8.977  0.1969  0.0671  0.7030
   27CHL1  H24A 1987   1.872  -0.112   8.994  1.4177  0.8401 -0.4824
   27CHL1  H24B 1988   1.700  -0.072   8.957  0.9291 -0.0407 -3.6682
   27CHL1   C25 1989   1.848   0.038   8.846 -0.5249  0.1020 -0.2430
   27CHL1   H25 1990   1.950   0.067   8.879 -0.9491 -0.3805  1.6494
   27CHL1   C26 1991   1.841  -0.054   8.728 -0.5488 -0.3767 -0.7800
   27CHL1  H26A 1992   1.741  -0.100   8.740 -0.9423  0.7229  0.3395
   27CHL1  H26B 1993   1.838   0.002   8.632  3.3279  0.4432 -0.5830
   27CHL1  H26C 1994   1.918  -0.134   8.728  1.4957  1.4799 -1.2776
   27CHL1   C27 1995   1.779   0.174   8.821  0.2380  0.0107 -0.2520
   27CHL1  H27A 1996   1.670   0.153   8.817  0.2310  0.1396 -0.7768
   27CHL1  H27B 1997   1.797   0.233   8.913 -3.2862 -0.6947  1.0700
   27CHL1  H27C 1998   1.824   0.216   8.729  1.3152  0.0800  0.2930
   28CHL1    C3 1999   2.718   0.485  10.191  0.1569 -0.1987  0.4949
   28CHL1    H3 2000   2.800   0.426  10.145 -0.6040 -0.3265 -0.7491
   28CHL1    O3 2001   2.700   0.474  10.332  0.1375 -0.2601  0.6338
   28CHL1   H3' 2002   2.637   0.541  10.359  0.8877 -0.4486  3.1424
   28CHL1    C4 2003   2.741   0.635  10.152  0.8140  0.1175 -0.3635
   28CHL1   H4A 2004   2.668   0.709  10.194  2.6446  1.5257  0.4748
   28CHL1   H4B 2005   2.837   0.667  10.196  1.0782 -0.0356 -0.8264
   28CHL1    C5 2006   2.740   0.653  10.003  0.6169  0.5870  0.0824
   28CHL1    C6 2007   2.849   0.703   9.939  0.1779  0.4240 -0.5079
   28CHL1    H6 2008   2.939   0.727   9.998  1.2232  0.1433 -1.9349
   28CHL1    C7 2009   2.844   0.720   9.787  0.3950  0.3667 -0.1596
   28CHL1   H7A 2010   2.890   0.820   9.773 -2.2811  1.6911 -0.1070
   28CHL1   H7B 2011   2.912   0.642   9.745  0.7888  1.3211 -1.3477
   28CHL1    C8 2012   2.712   0.703   9.715 -0.0081 -0.7573  0.1563
   28CHL1    H8 2013   2.646   0.790   9.735  0.0157 -0.4795 -0.9142
   28CHL1   C14 2014   2.729   0.673   9.567 -0.5858 -0.2415 -0.4404
   28CHL1   H14 2015   2.787   0.580   9.552 -3.7608 -2.2887 -0.9941
   28CHL1   C15 2016   2.808   0.782   9.500  0.4292 -0.3852  0.3408
   28CHL1  H15A 2017   2.790   0.883   9.542  0.9811 -0.3521  0.5034
   28CHL1  H15B 2018   2.915   0.751   9.502  0.8231  0.8732 -0.5076
   28CHL1   C16 2019   2.766   0.776   9.353  0.3591  0.0011 -0.6529
   28CHL1  H16A 2020   2.737   0.874   9.309 -2.7464 -0.9172 -0.8620
   28CHL1  H16B 2021   2.851   0.749   9.288 -0.1557 -0.0835 -1.2932
   28CHL1   C17 2022   2.648   0.674   9.352  0.1093  0.1069 -0.2881
   28CHL1   H17 2023   2.700   0.581   9.318 -1.7882 -1.5484  1.0731
   28CHL1   C13 2024   2.598   0.657   9.495  0.0532 -0.2616  0.7503
   28CHL1   C18 2025   2.494   0.770   9.524 -0.2703 -0.5409 -0.5570
   28CHL1  H18A 2026   2.396   0.761   9.474  0.0629  0.4821 -1.4238
   28CHL1  H18B 2027   2.484   0.765   9.635 -0.2779  1.0726 -0.4626
   28CHL1  H18C 2028   2.532   0.870   9.495 -0.0610 -1.0607 -2.1570
   28CHL1   C12 2029   2.550   0.520   9.545  0.4610  0.5769 -0.3474
   28CHL1  H12A 2030   2.459   0.487   9.490 -0.3034  2.4138 -0.2509
   28CHL1  H12B 2031   2.629   0.443   9.535  1.0991  0.6319  3.0203
   28CHL1   C11 2032   2.524   0.526   9.695 -0.7418  0.6832 -0.0876
   28CHL1  H11A 2033   2.428   0.579   9.710 -1.7774 -0.7315 -1.3147
   28CHL1  H11B 2034   2.509   0.423   9.736  1.0240  1.2656  2.2155
   28CHL1    C9 2035   2.646   0.580   9.775 -0.4135 -0.2788  0.3876
   28CHL1    H9 2036   2.726   0.505   9.758 -0.0501 -0.0541  1.0809
   28CHL1   C10 2037   2.612   0.592   9.926  0.2164 -0.3490  0.0963
   28CHL1   C19 2038   2.492   0.688   9.959 -0.0434  0.2133 -0.2004
   28CHL1  H19A 2039   2.517   0.790   9.923  0.2225  0.1714 -0.1330
   28CHL1  H19B 2040   2.398   0.647   9.916 -0.0858  0.8615 -0.7413
   28CHL1  H19C 2041   2.485   0.702  10.069 -2.2148  0.1788 -0.2916
   28CHL1    C1 2042   2.585   0.444   9.981  0.5259 -0.0804  0.6506
   28CHL1   H1A 2043   2.494   0.402   9.934  1.2297 -0.9658  0.0705
   28CHL1   H1B 2044   2.671   0.380   9.952 -0.6804 -2.0898  1.2915
   28CHL1    C2 2045   2.588   0.436  10.135  0.4105 -0.0316  0.0365
   28CHL1   H2A 2046   2.589   0.328  10.159  0.8789  0.0174  0.2504
   28CHL1   H2B 2047   2.503   0.493  10.178  1.6380  2.2807 -0.4273
   28CHL1   C20 2048   2.540   0.702   9.242 -0.5308  0.2750 -0.4055
   28CHL1   H20 2049   2.479   0.793   9.261 -3.3916 -1.4883 -0.6461
   28CHL1   C21 2050   2.445   0.584   9.227  0.5357  0.2818 -0.8003
   28CHL1  H21A 2051   2.364   0.597   9.152  0.0528 -1.3605 -0.6197
   28CHL1  H21B 2052   2.394   0.569   9.324 -0.3335 -0.0162 -1.2932
   28CHL1  H21C 2053   2.503   0.489   9.218 -2.0314 -1.4410 -0.4577
   28CHL1   C22 2054   2.611   0.717   9.109 -0.6811 -0.1175 -0.5401
   28CHL1  H22A 2055   2.707   0.772   9.111  0.7496 -2.4816  0.1584
   28CHL1  H22B 2056   2.643   0.616   9.075  0.9845 -0.3494  1.5344
   28CHL1   C23 2057   2.539   0.800   8.999  0.7740  0.5070 -0.4305
   28CHL1  H23A 2058   2.575   0.769   8.899  0.2239  0.5008 -0.6265
   28CHL1  H23B 2059   2.431   0.772   8.996  0.7107  0.6845  0.1341
   28CHL1   C24 2060   2.557   0.958   9.025 -0.0666  0.5726 -0.6194
   28CHL1  H24A 2061   2.519   0.977   9.128  0.1653 -0.2060 -0.3840
   28CHL1  H24B 2062   2.668   0.970   9.025 -0.1006  0.8900 -0.2591
   28CHL1   C25 2063   2.487   1.047   8.924  0.5661 -0.2179  0.0754
   28CHL1   H25 2064   2.529   1.027   8.823 -0.3568  1.6659 -0.7252
   28CHL1   C26 2065   2.333   1.034   8.906 -0.5226 -0.2971  0.9208
   28CHL1  H26A 2066   2.296   1.109   8.833  1.2887 -0.6463 -0.4021
   28CHL1  H26B 2067   2.303   0.936   8.864 -1.0547 -0.3147  1.3259
   28CHL1  H26C 2068   2.269   1.053   8.995 -2.0191 -0.1543 -0.1539
   28CHL1   C27 2069   2.513   1.191   8.955 -0.4984 -0.0390 -0.3821
   28CHL1  H27A 2070   2.619   1.224   8.951 -0.4365 -0.3421 -1.4634
   28CHL1  H27B 2071   2.462   1.256   8.882  0.2940  1.8044  0.6535
   28CHL1  H27C 2072   2.473   1.223   9.054  1.4210 -2.3687  1.2784
   29CHL1    C3 2073   4.198   6.071   6.894  0.1031 -0.2349 -0.4017
   29CHL1    H3 2074   4.234   6.176   6.890  1.9125 -0.8596 -2.0024
   29CHL1    O3 2075   4.205   6.021   6.758 -0.4478  0.4991  0.6276
   29CHL1   H3' 2076   4.166   6.092   6.707  0.7324  0.5108 -0.2969
   29CHL1    C4 2077   4.285   5.988   6.985  0.2954  0.1374  0.6567
   29CHL1   H4A 2078   4.254   5.881   6.979 -2.5104  0.9567 -1.2901
   29CHL1   H4B 2079   4.388   6.004   6.947 -1.0921  3.6562 -2.1708
   29CHL1    C5 2080   4.277   6.017   7.131  0.0651 -0.6182 -0.5473
   29CHL1    C6 2081   4.384   6.035   7.212 -0.1403  0.2698 -0.4576
   29CHL1    H6 2082   4.488   6.016   7.181  0.3225  1.7242  0.1236
   29CHL1    C7 2083   4.369   6.051   7.359 -0.7752 -0.2869 -1.1074
   29CHL1   H7A 2084   4.425   5.970   7.410 -0.8264  0.0679 -0.4692
   29CHL1   H7B 2085   4.416   6.148   7.388  0.8844 -1.2340 -0.5141
   29CHL1    C8 2086   4.216   6.046   7.414 -0.4232  0.0411 -0.5647
   29CHL1    H8 2087   4.195   5.939   7.438  0.9728  0.0452  0.9091
   29CHL1   C14 2088   4.216   6.110   7.552 -0.2391  0.5340  0.4828
   29CHL1   H14 2089   4.244   6.217   7.538  2.0782 -0.1572 -0.6384
   29CHL1   C15 2090   4.304   6.050   7.666  0.2143  0.3017  0.2226
   29CHL1  H15A 2091   4.289   5.943   7.643  0.7480  0.0439  1.0538
   29CHL1  H15B 2092   4.412   6.077   7.666  0.0703  0.8945  0.1732
   29CHL1   C16 2093   4.241   6.099   7.793 -0.2498  0.4092 -0.2397
   29CHL1  H16A 2094   4.211   6.013   7.857  1.9286 -1.1546 -1.1930
   29CHL1  H16B 2095   4.301   6.172   7.851 -1.6616  0.1769  1.6011
   29CHL1   C17 2096   4.110   6.165   7.754  0.2628 -0.1587  0.3544
   29CHL1   H17 2097   4.141   6.270   7.738  1.6640 -0.6428 -0.2817
   29CHL1   C13 2098   4.077   6.113   7.613 -0.1745  0.7788  0.9687
   29CHL1   C18 2099   4.013   5.966   7.617  0.3946 -0.4059 -0.0183
   29CHL1  H18A 2100   3.905   5.962   7.644  0.4691  0.7507  0.5090
   29CHL1  H18B 2101   4.027   5.921   7.517  1.5543 -0.8748  0.3379
   29CHL1  H18C 2102   4.061   5.899   7.691 -0.2761 -0.8301  0.0490
   29CHL1   C12 2103   3.987   6.201   7.521  0.1475 -0.4040  0.1429
   29CHL1  H12A 2104   3.882   6.201   7.556  0.9198  0.3974  2.7222
   29CHL1  H12B 2105   4.025   6.305   7.529 -0.8407  0.1127 -1.4036
   29CHL1   C11 2106   3.987   6.152   7.378  0.0698 -0.4205  1.1468
   29CHL1  H11A 2107   3.921   6.066   7.357 -1.1220  0.6091  0.5596
   29CHL1  H11B 2108   3.935   6.229   7.318 -0.2811 -0.8051  0.9597
   29CHL1    C9 2109   4.126   6.120   7.318 -0.6626 -0.6435  0.3692
   29CHL1    H9 2110   4.169   6.221   7.300 -1.5910 -0.4260 -0.7359
   29CHL1   C10 2111   4.131   6.041   7.178  0.4264  0.0242  0.1701
   29CHL1   C19 2112   4.066   5.902   7.200  0.4126 -0.0100  0.5098
   29CHL1  H19A 2113   4.114   5.848   7.284 -0.0482  2.7160  2.6571
   29CHL1  H19B 2114   3.958   5.911   7.224  0.4931 -0.1731  0.9477
   29CHL1  H19C 2115   4.058   5.841   7.107  0.9202 -1.2689  1.2606
   29CHL1    C1 2116   4.038   6.124   7.086  0.0702 -0.2038 -0.1159
   29CHL1   H1A 2117   3.930   6.116   7.112  0.3248 -0.4873  0.8908
   29CHL1   H1B 2118   4.071   6.230   7.076  0.9058 -0.5782 -1.5425
   29CHL1    C2 2119   4.048   6.073   6.938  0.2037 -0.1143  0.0702
   29CHL1   H2A 2120   3.991   6.143   6.872  0.6317  0.0224 -0.1570
   29CHL1   H2B 2121   4.002   5.972   6.941  1.2464 -0.5857  0.6639
   29CHL1   C20 2122   4.007   6.155   7.865 -0.1154  0.7159  0.3919
   29CHL1   H20 2123   3.984   6.047   7.877  3.4893 -0.1747  0.3435
   29CHL1   C21 2124   3.878   6.236   7.824  0.1675 -0.4523  0.1103
   29CHL1  H21A 2125   3.814   6.253   7.913  2.3592  1.1530  1.4970
   29CHL1  H21B 2126   3.815   6.179   7.752 -0.0316  0.4920 -0.4701
   29CHL1  H21C 2127   3.908   6.332   7.777  0.5591 -1.0042 -0.8091
   29CHL1   C22 2128   4.058   6.209   8.006 -0.0594 -0.1053 -0.8261
   29CHL1  H22A 2129   4.155   6.157   8.021 -0.6556 -1.5392 -1.7286
   29CHL1  H22B 2130   4.084   6.316   7.993  3.3343 -0.8689 -1.2190
   29CHL1   C23 2131   3.982   6.181   8.131  0.4869  0.0709 -0.9343
   29CHL1  H23A 2132   3.883   6.229   8.114  0.0381 -0.9513 -1.3472
   29CHL1  H23B 2133   3.945   6.076   8.140  0.5990  0.1465  0.5882
   29CHL1   C24 2134   4.053   6.228   8.260  0.4249  0.7537 -0.1183
   29CHL1  H24A 2135   4.156   6.190   8.273  1.3708  3.0795 -0.2433
   29CHL1  H24B 2136   4.063   6.338   8.247  2.8836  0.3364 -2.7020
   29CHL1   C25 2137   3.959   6.222   8.377 -0.5986  0.3035 -0.3073
   29CHL1   H25 2138   3.868   6.278   8.346 -1.1218 -1.3883 -2.0242
   29CHL1   C26 2139   3.922   6.071   8.403  0.2097 -0.1472  0.1091
   29CHL1  H26A 2140   3.892   6.061   8.509  0.0204  2.2260  0.3484
   29CHL1  H26B 2141   3.843   6.035   8.334 -0.2224  2.5500 -0.9287
   29CHL1  H26C 2142   4.005   5.997   8.399  1.0316  0.7461  0.0579
   29CHL1   C27 2143   3.995   6.291   8.513  0.2030  0.1833 -0.1699
   29CHL1  H27A 2144   3.918   6.290   8.593  2.5489 -1.1435  2.2045
   29CHL1  H27B 2145   4.082   6.244   8.562 -1.3277 -2.1620  0.4791
   29CHL1  H27C 2146   4.023   6.398   8.497  0.6363  0.0203 -0.5175
   30CHL1    C3 2147   4.506   5.311   6.707  0.8345  0.4535 -0.0913
   30CHL1    H3 2148   4.535   5.210   6.741  1.7025  0.2946 -1.2589
   30CHL1    O3 2149   4.502   5.308   6.570  0.1813 -0.6464 -0.4478
   30CHL1   H3' 2150   4.411   5.285   6.546 -1.3507  3.4239  0.6651
   30CHL1    C4 2151   4.368   5.343   6.746 -0.4088  0.7651  1.1707
   30CHL1   H4A 2152   4.338   5.437   6.695  1.2622 -0.3803 -2.2953
   30CHL1   H4B 2153   4.300   5.266   6.703  0.7548 -0.6939  1.8438
   30CHL1    C5 2154   4.356   5.357   6.898 -0.0723  0.3193  0.3190
   30CHL1    C6 2155   4.281   5.273   6.964  0.5376  0.4303  0.4659
   30CHL1    H6 2156   4.223   5.198   6.909  0.9369  0.9672 -0.7159
   30CHL1    C7 2157   4.254   5.297   7.106  0.6352  0.1099  0.2976
   30CHL1   H7A 2158   4.144   5.307   7.112  0.3853  1.6948 -3.8713
   30CHL1   H7B 2159   4.290   5.214   7.171  2.7899  2.2628  2.0662
   30CHL1    C8 2160   4.308   5.422   7.176  0.3830 -0.1969 -0.1476
   30CHL1    H8 2161   4.262   5.519   7.147 -0.4260 -0.1268  1.2278
   30CHL1   C14 2162   4.298   5.413   7.330  0.1938  0.3070 -0.5532
   30CHL1   H14 2163   4.363   5.328   7.359  0.6621  0.4255 -1.2303
   30CHL1   C15 2164   4.161   5.398   7.403  0.0561 -0.6291  0.7052
   30CHL1  H15A 2165   4.092   5.473   7.358 -0.0362 -1.6617 -0.9604
   30CHL1  H15B 2166   4.127   5.296   7.378  2.3694 -0.9703 -1.4482
   30CHL1   C16 2167   4.195   5.430   7.548  0.3468 -0.4163 -0.3567
   30CHL1  H16A 2168   4.116   5.489   7.599  1.8962  1.1311  0.3602
   30CHL1  H16B 2169   4.197   5.339   7.610 -0.9105  0.2445  0.6979
   30CHL1   C17 2170   4.333   5.501   7.554 -1.0225 -0.2045  0.0953
   30CHL1   H17 2171   4.402   5.417   7.577 -2.5024 -1.7013 -0.6683
   30CHL1   C13 2172   4.373   5.530   7.406  0.2416  0.0648  0.3982
   30CHL1   C18 2173   4.303   5.664   7.377 -0.2833  0.3538 -0.3438
   30CHL1  H18A 2174   4.200   5.665   7.419  0.6834 -1.2722  2.3716
   30CHL1  H18B 2175   4.363   5.743   7.427 -0.0640  0.3333 -0.5704
   30CHL1  H18C 2176   4.316   5.686   7.269 -0.4677 -2.6167 -1.0442
   30CHL1   C12 2177   4.518   5.531   7.352  0.4234  0.3030  0.7892
   30CHL1  H12A 2178   4.569   5.615   7.403  0.3558  1.6083 -1.1699
   30CHL1  H12B 2179   4.583   5.444   7.376 -0.5155 -0.7178 -0.2207
   30CHL1   C11 2180   4.530   5.552   7.198 -0.9103  0.1420  0.0480
   30CHL1  H11A 2181   4.510   5.657   7.170 -0.0052  0.7555  1.5996
   30CHL1  H11B 2182   4.635   5.541   7.162  0.1061  2.5997  1.9687
   30CHL1    C9 2183   4.448   5.444   7.122 -0.4108 -0.2655 -0.5030
   30CHL1    H9 2184   4.499   5.347   7.137  0.7793  0.4443  0.1637
   30CHL1   C10 2185   4.445   5.456   6.968 -0.2455 -0.0411  0.6971
   30CHL1   C19 2186   4.403   5.600   6.935  0.1108 -0.0434 -0.9644
   30CHL1  H19A 2187   4.493   5.665   6.931  0.3630 -0.3593 -0.5028
   30CHL1  H19B 2188   4.355   5.602   6.834 -1.5989  0.8107 -0.1803
   30CHL1  H19C 2189   4.327   5.649   7.000  1.8430  1.2687  0.1697
   30CHL1    C1 2190   4.595   5.434   6.913 -0.1245  0.5286 -0.0050
   30CHL1   H1A 2191   4.658   5.521   6.938  0.4690 -0.0347  0.4897
   30CHL1   H1B 2192   4.637   5.342   6.959 -2.7877 -1.3023 -0.9599
   30CHL1    C2 2193   4.594   5.420   6.752 -0.1032 -0.1438 -0.8600
   30CHL1   H2A 2194   4.702   5.412   6.724  0.9555  0.5774  2.5403
   30CHL1   H2B 2195   4.570   5.518   6.706  2.1549  0.6944 -0.4136
   30CHL1   C20 2196   4.339   5.620   7.655 -1.3297  0.1820 -0.0694
   30CHL1   H20 2197   4.268   5.700   7.624  0.1450  1.2806 -0.7773
   30CHL1   C21 2198   4.487   5.673   7.662  0.0153  0.0645  0.0893
   30CHL1  H21A 2199   4.560   5.593   7.682 -1.0115 -0.6065  1.3182
   30CHL1  H21B 2200   4.505   5.742   7.747 -2.3263  0.3123  0.4662
   30CHL1  H21C 2201   4.519   5.721   7.567  0.6610  2.2391  1.3288
   30CHL1   C22 2202   4.303   5.580   7.799  0.5642 -0.1251  0.6505
   30CHL1  H22A 2203   4.233   5.493   7.800  1.9668 -1.2983  1.5416
   30CHL1  H22B 2204   4.394   5.542   7.849  0.3478 -1.1716  0.2818
   30CHL1   C23 2205   4.244   5.697   7.878 -0.1871 -0.3480  0.5827
   30CHL1  H23A 2206   4.305   5.788   7.857  0.7591 -1.0795  0.1258
   30CHL1  H23B 2207   4.137   5.719   7.853 -0.4009  0.9543  2.4668
   30CHL1   C24 2208   4.248   5.656   8.029 -0.4815 -0.5443  0.5343
   30CHL1  H24A 2209   4.182   5.571   8.057 -0.2127 -0.3273  1.9085
   30CHL1  H24B 2210   4.353   5.624   8.048 -0.9257 -1.2582  1.9495
   30CHL1   C25 2211   4.239   5.758   8.139 -0.2786 -0.3182  0.5301
   30CHL1   H25 2212   4.247   5.708   8.238  0.0425 -0.6727  0.3271
   30CHL1   C26 2213   4.365   5.847   8.135  0.2437  0.0068  0.1699
   30CHL1  H26A 2214   4.454   5.780   8.127 -1.5405 -2.4913  0.2061
   30CHL1  H26B 2215   4.361   5.921   8.052 -0.8553  0.2194  0.4021
   30CHL1  H26C 2216   4.376   5.915   8.223  1.3072 -1.4730  1.2275
   30CHL1   C27 2217   4.107   5.844   8.123  0.3640  0.3860  0.7109
   30CHL1  H27A 2218   4.025   5.771   8.102  0.0391  0.0965  2.8079
   30CHL1  H27B 2219   4.087   5.901   8.216 -0.3303  2.1567 -0.4583
   30CHL1  H27C 2220   4.114   5.917   8.040 -0.8365 -1.3955 -1.0412
   31CHL1    C3 2221   2.751   0.486   6.671 -0.2044 -0.3328  0.2106
   31CHL1    H3 2222   2.760   0.380   6.703  1.1950 -0.2936 -0.0098
   31CHL1    O3 2223   2.683   0.501   6.549  0.0427  0.3141 -0.2893
   31CHL1   H3' 2224   2.597   0.464   6.568  0.8295 -2.7110 -1.9000
   31CHL1    C4 2225   2.683   0.575   6.774  0.1534 -0.3867 -0.5046
   31CHL1   H4A 2226   2.668   0.672   6.722 -1.8925 -0.5459 -0.2789
   31CHL1   H4B 2227   2.583   0.535   6.800  0.1665 -0.1084 -0.0158
   31CHL1    C5 2228   2.765   0.603   6.903  0.4080 -0.3880 -0.2610
   31CHL1    C6 2229   2.701   0.592   7.027  0.2823  0.2206 -0.3443
   31CHL1    H6 2230   2.593   0.571   7.024  0.2954 -0.2243  1.2953
   31CHL1    C7 2231   2.761   0.644   7.149  0.5906  0.2633 -0.4958
   31CHL1   H7A 2232   2.699   0.719   7.203  0.1192 -1.8443  2.0860
   31CHL1   H7B 2233   2.770   0.561   7.223 -0.1875 -0.8112 -1.5652
   31CHL1    C8 2234   2.902   0.721   7.128 -0.1238 -0.0613 -0.0662
   31CHL1    H8 2235   2.884   0.826   7.097  0.3646 -0.7394 -3.0395
   31CHL1   C14 2236   2.982   0.709   7.254 -0.0725  0.0451 -0.1591
   31CHL1   H14 2237   3.017   0.604   7.262  1.9339  0.6811 -0.1499
   31CHL1   C15 2238   2.901   0.745   7.386 -1.2681  0.6746  0.1767
   31CHL1  H15A 2239   2.845   0.837   7.360 -2.3203  0.2176  0.7581
   31CHL1  H15B 2240   2.825   0.675   7.428  0.6870 -0.8052  1.4269
   31CHL1   C16 2241   3.014   0.775   7.481  0.5959  0.0325  0.0336
   31CHL1  H16A 2242   2.993   0.871   7.533  0.7727 -0.3431  0.8120
   31CHL1  H16B 2243   3.009   0.698   7.561 -1.9809  0.5245  0.4155
   31CHL1   C17 2244   3.155   0.770   7.401  0.7253  0.5499  0.1646
   31CHL1   H17 2245   3.194   0.666   7.402  0.0482  0.2650 -1.1000
   31CHL1   C13 2246   3.113   0.789   7.254 -0.2876  0.3825 -0.0505
   31CHL1   C18 2247   3.093   0.939   7.227  0.6058 -0.2363 -0.6831
   31CHL1  H18A 2248   3.182   1.002   7.204 -0.3073  1.2834 -0.2120
   31CHL1  H18B 2249   3.023   0.946   7.141  0.4118 -0.7550 -0.5708
   31CHL1  H18C 2250   3.043   0.988   7.313  1.3714  0.7385 -0.7774
   31CHL1   C12 2251   3.197   0.721   7.145 -0.6139  0.3595 -1.0571
   31CHL1  H12A 2252   3.292   0.773   7.123  0.4398 -0.0360  2.0393
   31CHL1  H12B 2253   3.225   0.619   7.180 -1.6651  0.3965 -0.0347
   31CHL1   C11 2254   3.125   0.724   7.002  0.5088 -0.5493 -0.6487
   31CHL1  H11A 2255   3.130   0.828   6.965 -1.9150 -0.3227 -0.4908
   31CHL1  H11B 2256   3.185   0.662   6.932  1.3623 -0.7207  0.1930
   31CHL1    C9 2257   2.981   0.664   7.010 -0.1945  0.1922  0.3327
   31CHL1    H9 2258   2.990   0.557   7.038 -0.3262 -0.1597 -0.9098
   31CHL1   C10 2259   2.908   0.662   6.878 -0.6203  0.0070 -0.5033
   31CHL1   C19 2260   2.906   0.802   6.819  0.0605 -0.1796 -0.1868
   31CHL1  H19A 2261   2.850   0.808   6.723 -2.3303  1.5087  1.1803
   31CHL1  H19B 2262   2.849   0.878   6.877 -1.3651 -0.7189 -0.8452
   31CHL1  H19C 2263   3.007   0.842   6.797 -0.8106  1.3022 -1.6690
   31CHL1    C1 2264   2.967   0.558   6.777  0.8669 -0.7457  0.0938
   31CHL1   H1A 2265   3.064   0.607   6.754 -0.8452  3.1204  0.2558
   31CHL1   H1B 2266   2.988   0.461   6.827 -2.3705 -1.6077  0.0064
   31CHL1    C2 2267   2.897   0.533   6.648 -0.0649 -0.3741 -0.1131
   31CHL1   H2A 2268   2.948   0.456   6.585  2.1136 -0.8295  2.0481
   31CHL1   H2B 2269   2.901   0.622   6.582 -1.6586 -0.8944 -0.9601
   31CHL1   C20 2270   3.256   0.868   7.464  0.3662 -0.1137 -0.3447
   31CHL1   H20 2271   3.228   0.974   7.447  1.7902 -0.0332 -2.5300
   31CHL1   C21 2272   3.395   0.838   7.398 -0.3749 -0.1770 -0.4238
   31CHL1  H21A 2273   3.413   0.853   7.290 -0.8797 -2.1484 -0.8285
   31CHL1  H21B 2274   3.428   0.735   7.423 -1.3113 -0.2187  0.7137
   31CHL1  H21C 2275   3.464   0.907   7.452 -0.3930  0.4290 -1.1532
   31CHL1   C22 2276   3.274   0.856   7.618 -0.0342 -0.7665 -0.1792
   31CHL1  H22A 2277   3.176   0.865   7.670 -0.1284 -0.3391 -0.4239
   31CHL1  H22B 2278   3.312   0.760   7.659 -0.6463 -0.5913  0.8323
   31CHL1   C23 2279   3.367   0.962   7.682  0.9299 -0.4802 -0.2036
   31CHL1  H23A 2280   3.476   0.938   7.679  0.5415 -2.3820 -1.1385
   31CHL1  H23B 2281   3.354   1.049   7.615 -1.1969 -1.0480 -0.6255
   31CHL1   C24 2282   3.324   1.001   7.822 -0.1000  0.4794 -0.4032
   31CHL1  H24A 2283   3.227   1.053   7.804 -0.8408 -0.7674 -0.1734
   31CHL1  H24B 2284   3.300   0.912   7.885 -2.6909  0.6136 -1.0691
   31CHL1   C25 2285   3.410   1.114   7.886  0.1329  0.5693  0.1694
   31CHL1   H25 2286   3.513   1.077   7.868 -1.1735 -2.0639 -2.8613
   31CHL1   C26 2287   3.390   1.253   7.813  0.0280 -0.5148  0.3567
   31CHL1  H26A 2288   3.282   1.275   7.801  0.1499  0.2375  0.5729
   31CHL1  H26B 2289   3.447   1.338   7.857 -0.0244  1.2781 -2.7837
   31CHL1  H26C 2290   3.419   1.242   7.707  0.1434 -0.0076  0.3321
   31CHL1   C27 2291   3.381   1.127   8.042 -0.0615  0.0018  0.7119
   31CHL1  H27A 2292   3.284   1.178   8.057 -0.2775  0.0588 -0.7033
   31CHL1  H27B 2293   3.462   1.187   8.089  1.1822  1.2105 -2.6523
   31CHL1  H27C 2294   3.380   1.023   8.082  0.1138 -0.0277  0.6444
   32CHL1    C3 2295   4.790   5.879   6.597 -0.4079 -0.4013  0.5405
   32CHL1    H3 2296   4.684   5.867   6.627 -0.7760  1.7141  0.2878
   32CHL1    O3 2297   4.792   5.895   6.454 -0.4933  0.3950 -0.6987
   32CHL1   H3' 2298   4.776   5.803   6.434  0.3877 -0.6489  2.7237
   32CHL1    C4 2299   4.855   6.003   6.655 -0.0760 -0.0024  0.4227
   32CHL1   H4A 2300   4.955   6.010   6.607 -0.1115 -0.0785  0.3380
   32CHL1   H4B 2301   4.800   6.086   6.607  0.6821  0.0074 -0.4500
   32CHL1    C5 2302   4.862   6.006   6.802 -0.0030  0.3396 -0.3260
   32CHL1    C6 2303   4.806   6.106   6.870 -0.6142  0.4052  0.4467
   32CHL1    H6 2304   4.776   6.199   6.820  0.4002  1.1685  1.2283
   32CHL1    C7 2305   4.811   6.111   7.014 -0.2149  0.4036  0.3506
   32CHL1   H7A 2306   4.851   6.208   7.049  1.7258 -0.4183  0.5093
   32CHL1   H7B 2307   4.705   6.104   7.047  0.0327 -1.7597  0.8805
   32CHL1    C8 2308   4.891   5.998   7.087  0.1201  0.5855  0.6219
   32CHL1    H8 2309   4.997   6.031   7.100 -0.2815  1.8829  0.8070
   32CHL1   C14 2310   4.824   5.968   7.224  0.3530  0.2278 -0.3305
   32CHL1   H14 2311   4.719   5.935   7.214 -1.0688  3.2643  2.5579
   32CHL1   C15 2312   4.800   6.092   7.313 -0.2010 -0.3315  0.1949
   32CHL1  H15A 2313   4.883   6.163   7.293  0.2200 -1.1050 -0.8973
   32CHL1  H15B 2314   4.702   6.143   7.299  0.1576  0.5918  0.9371
   32CHL1   C16 2315   4.811   6.038   7.455  0.1145 -0.3500  0.8814
   32CHL1  H16A 2316   4.899   6.082   7.507  0.8584 -0.2608 -0.4143
   32CHL1  H16B 2317   4.722   6.077   7.509  0.1485 -0.5004  1.0470
   32CHL1   C17 2318   4.831   5.882   7.444  0.2105 -0.1077 -0.7942
   32CHL1   H17 2319   4.729   5.839   7.435 -0.1379  0.8124 -1.3733
   32CHL1   C13 2320   4.911   5.872   7.313  0.2074  0.5132 -0.8870
   32CHL1   C18 2321   5.051   5.929   7.347 -0.6341 -0.0080 -0.9744
   32CHL1  H18A 2322   5.066   5.996   7.434  0.6661 -0.3413 -0.9196
   32CHL1  H18B 2323   5.125   5.856   7.386 -1.1223  0.4743  0.9430
   32CHL1  H18C 2324   5.103   5.980   7.263 -0.0671  2.8615  0.9726
   32CHL1   C12 2325   4.920   5.739   7.241  0.5192  0.1046 -0.1293
   32CHL1  H12A 2326   4.990   5.673   7.297  0.8690  1.2764  0.8549
   32CHL1  H12B 2327   4.821   5.690   7.234 -0.0168  1.2810 -1.1151
   32CHL1   C11 2328   4.969   5.757   7.089 -0.0674  1.2530 -1.0412
   32CHL1  H11A 2329   5.071   5.798   7.102  0.6051 -0.8946  1.3918
   32CHL1  H11B 2330   4.955   5.663   7.032 -1.3793  1.4725 -1.1241
   32CHL1    C9 2331   4.888   5.867   7.009 -0.8291 -0.4837 -0.8406
   32CHL1    H9 2332   4.785   5.826   7.012 -0.7735 -1.0491 -3.7381
   32CHL1   C10 2333   4.927   5.879   6.864  0.0997  0.9171 -0.5075
   32CHL1   C19 2334   5.078   5.899   6.850 -0.1272 -0.5198 -0.7065
   32CHL1  H19A 2335   5.107   6.001   6.885 -2.1214  0.0859 -0.7029
   32CHL1  H19B 2336   5.143   5.817   6.888 -2.4842 -1.5846  1.3748
   32CHL1  H19C 2337   5.102   5.897   6.742  0.7430 -2.4651 -0.5176
   32CHL1    C1 2338   4.886   5.742   6.786 -0.2455  0.0505  0.4200
   32CHL1   H1A 2339   4.957   5.658   6.801  0.6289  0.4169 -1.3806
   32CHL1   H1B 2340   4.794   5.708   6.838  1.4229 -0.7674  3.0515
   32CHL1    C2 2341   4.868   5.756   6.629  0.1716  0.6146 -0.0781
   32CHL1   H2A 2342   4.819   5.667   6.584  0.8470 -0.7943  1.8322
   32CHL1   H2B 2343   4.970   5.748   6.587  0.6281 -2.1224  1.2897
   32CHL1   C20 2344   4.889   5.802   7.572  0.8537  0.5126 -0.2368
   32CHL1   H20 2345   4.999   5.815   7.561  1.0654 -2.4204 -2.5656
   32CHL1   C21 2346   4.844   5.650   7.562 -0.4394 -0.2452 -0.1712
   32CHL1  H21A 2347   4.894   5.622   7.467  3.6024  3.4333  0.5321
   32CHL1  H21B 2348   4.734   5.640   7.562 -0.4476 -0.3350 -1.2471
   32CHL1  H21C 2349   4.892   5.611   7.655 -1.6681 -0.1808  0.5018
   32CHL1   C22 2350   4.832   5.865   7.695  0.0711 -0.2823 -0.2858
   32CHL1  H22A 2351   4.859   5.973   7.698  1.3824 -0.6155  0.9239
   32CHL1  H22B 2352   4.722   5.869   7.685  0.0498 -0.1239 -0.0066
   32CHL1   C23 2353   4.854   5.800   7.838 -0.0674 -0.3383 -0.3107
   32CHL1  H23A 2354   4.778   5.719   7.832  0.7985 -1.1614 -0.3382
   32CHL1  H23B 2355   4.956   5.758   7.842  0.3002  0.5975  2.5467
   32CHL1   C24 2356   4.829   5.900   7.952  0.5288  0.2075  0.8988
   32CHL1  H24A 2357   4.897   5.985   7.971 -0.6960  1.1113  1.4117
   32CHL1  H24B 2358   4.727   5.941   7.934  0.0022  0.1481  3.4437
   32CHL1   C25 2359   4.814   5.826   8.084  0.1742 -0.4573  0.0035
   32CHL1   H25 2360   4.752   5.735   8.068 -1.9393  0.8416  0.3510
   32CHL1   C26 2361   4.945   5.785   8.150 -0.3836 -0.0919  0.1890
   32CHL1  H26A 2362   4.982   5.695   8.096 -3.3277 -0.6772 -1.0508
   32CHL1  H26B 2363   5.018   5.868   8.139  2.4172 -2.5099 -0.8569
   32CHL1  H26C 2364   4.944   5.762   8.259  2.2415  0.2682  0.3564
   32CHL1   C27 2365   4.735   5.907   8.191 -0.1662  0.3097  0.4389
   32CHL1  H27A 2366   4.715   5.852   8.285 -1.0763 -0.8504 -0.3949
   32CHL1  H27B 2367   4.783   5.999   8.228  0.4928  0.8807 -1.6897
   32CHL1  H27C 2368   4.648   5.956   8.142  1.3072  0.3495 -2.3469
   33CHL1    C3 2369   6.153   3.571   6.819 -0.3687  0.3281  0.1146
   33CHL1    H3 2370   6.259   3.604   6.816 -0.0645 -0.2322  2.7391
   33CHL1    O3 2371   6.113   3.536   6.690 -0.2416  0.4653  0.4676
   33CHL1   H3' 2372   6.108   3.441   6.682 -4.0788  0.7031 -2.5890
   33CHL1    C4 2373   6.145   3.451   6.906  0.1893  0.9031 -0.0614
   33CHL1   H4A 2374   6.050   3.393   6.903  1.2122 -1.1300  2.3892
   33CHL1   H4B 2375   6.216   3.373   6.872 -0.4118  0.6111 -0.6720
   33CHL1    C5 2376   6.173   3.470   7.052 -1.0132 -0.2075  0.6142
   33CHL1    C6 2377   6.263   3.400   7.120  0.2634 -0.4949  0.1458
   33CHL1    H6 2378   6.320   3.325   7.064  1.0418 -0.6136  1.0700
   33CHL1    C7 2379   6.290   3.404   7.264  0.7835 -0.4348 -0.2815
   33CHL1   H7A 2380   6.275   3.298   7.291  0.4662 -0.5028 -0.7184
   33CHL1   H7B 2381   6.394   3.439   7.286  0.0204  1.9001 -0.0713
   33CHL1    C8 2382   6.175   3.488   7.330  0.2719  0.8243 -0.2665
   33CHL1    H8 2383   6.086   3.425   7.351 -0.1893  1.9729  1.3908
   33CHL1   C14 2384   6.234   3.531   7.469  0.7788 -0.0509  0.0143
   33CHL1   H14 2385   6.316   3.604   7.452  0.4700  0.5601  1.0530
   33CHL1   C15 2386   6.295   3.433   7.565 -0.1076 -0.0224 -0.2457
   33CHL1  H15A 2387   6.231   3.343   7.581  1.9811 -1.5542 -0.1015
   33CHL1  H15B 2388   6.398   3.398   7.542  0.9924  2.3538  0.7312
   33CHL1   C16 2389   6.294   3.506   7.697 -0.5351  0.3431  0.2176
   33CHL1  H16A 2390   6.238   3.445   7.772 -0.9342  0.6287  0.1539
   33CHL1  H16B 2391   6.398   3.522   7.731  1.3222 -1.1103 -4.0517
   33CHL1   C17 2392   6.219   3.642   7.678 -0.7218 -0.0085  0.6178
   33CHL1   H17 2393   6.292   3.714   7.635  0.6474 -1.2066  0.8446
   33CHL1   C13 2394   6.125   3.614   7.558 -0.4751 -0.1394 -0.3842
   33CHL1   C18 2395   5.997   3.519   7.589 -0.4740  0.4748 -0.0388
   33CHL1  H18A 2396   5.907   3.585   7.584 -1.5557 -0.8937  0.5949
   33CHL1  H18B 2397   5.977   3.442   7.512 -2.4900  1.0459 -0.1473
   33CHL1  H18C 2398   6.010   3.468   7.687  1.3758  0.3210 -0.3424
   33CHL1   C12 2399   6.083   3.737   7.477  0.3966  0.3677 -0.2970
   33CHL1  H12A 2400   6.008   3.789   7.539 -0.4670  0.3601 -1.3081
   33CHL1  H12B 2401   6.168   3.808   7.478  1.2096 -0.5476  1.6592
   33CHL1   C11 2402   6.029   3.692   7.345 -0.0730  0.7223  0.3575
   33CHL1  H11A 2403   5.930   3.644   7.358  0.5080 -0.5576  0.1718
   33CHL1  H11B 2404   6.007   3.779   7.280 -0.1797 -0.0334 -0.6298
   33CHL1    C9 2405   6.131   3.615   7.255 -0.0631  0.2931 -0.9227
   33CHL1    H9 2406   6.219   3.682   7.253  1.9001 -2.1287 -1.8993
   33CHL1   C10 2407   6.084   3.580   7.116  0.5254 -0.5119  0.1437
   33CHL1   C19 2408   5.934   3.535   7.117 -0.0090  0.1006 -0.0747
   33CHL1  H19A 2409   5.927   3.453   7.192 -0.1801 -0.8927 -1.1421
   33CHL1  H19B 2410   5.872   3.620   7.152  1.9104  1.0569  1.1739
   33CHL1  H19C 2411   5.897   3.497   7.019 -2.4754 -1.1942  1.2701
   33CHL1    C1 2412   6.088   3.709   7.034  0.7816 -0.2520  0.2262
   33CHL1   H1A 2413   6.015   3.782   7.076  1.0702 -1.0579  2.2149
   33CHL1   H1B 2414   6.191   3.748   7.044  2.3083 -3.8583 -0.0058
   33CHL1    C2 2415   6.074   3.689   6.878 -0.0764 -0.4932  1.1849
   33CHL1   H2A 2416   6.088   3.787   6.827 -0.5136 -1.1116 -0.1679
   33CHL1   H2B 2417   5.966   3.664   6.869  0.1310 -1.7178  1.8623
   33CHL1   C20 2418   6.160   3.715   7.802  0.2275 -0.3343 -0.0281
   33CHL1   H20 2419   6.073   3.773   7.766  0.2445 -0.7644 -0.7907
   33CHL1   C21 2420   6.274   3.804   7.856 -0.3846 -0.1102 -0.1675
   33CHL1  H21A 2421   6.225   3.869   7.932 -0.0281 -0.8609  0.7309
   33CHL1  H21B 2422   6.304   3.870   7.772  1.9540 -0.5903  0.2243
   33CHL1  H21C 2423   6.351   3.741   7.905  3.5303  2.9463 -1.9307
   33CHL1   C22 2424   6.114   3.623   7.921  1.1054  0.2115 -0.5093
   33CHL1  H22A 2425   6.039   3.550   7.885  1.7141 -1.3432  1.2317
   33CHL1  H22B 2426   6.204   3.574   7.966  1.6730  0.2050 -1.6286
   33CHL1   C23 2427   6.048   3.707   8.034 -0.6916  0.5349 -0.4656
   33CHL1  H23A 2428   6.129   3.755   8.093  0.4489  1.6341 -2.7943
   33CHL1  H23B 2429   5.990   3.784   7.979  0.8195  0.9341 -1.5704
   33CHL1   C24 2430   5.950   3.624   8.125  0.3251 -0.8332  0.2863
   33CHL1  H24A 2431   5.896   3.687   8.199  2.2958  2.4233 -0.8204
   33CHL1  H24B 2432   5.872   3.594   8.052 -0.4184  1.8930 -0.1305
   33CHL1   C25 2433   6.007   3.495   8.188 -0.7170  0.3347  0.2958
   33CHL1   H25 2434   6.052   3.431   8.110 -0.5907 -0.1086  0.7299
   33CHL1   C26 2435   6.109   3.529   8.292  0.0098  0.2450  0.7908
   33CHL1  H26A 2436   6.063   3.604   8.360  2.4800  3.4538 -0.8116
   33CHL1  H26B 2437   6.137   3.435   8.344  0.9021 -2.4160 -3.9080
   33CHL1  H26C 2438   6.195   3.584   8.249 -2.1168  2.7311 -0.5610
   33CHL1   C27 2439   5.899   3.407   8.253  0.5630  0.3730 -0.2612
   33CHL1  H27A 2440   5.945   3.316   8.296 -0.0319  0.0041 -0.3841
   33CHL1  H27B 2441   5.849   3.471   8.329  0.5899  1.2866 -0.9860
   33CHL1  H27C 2442   5.822   3.378   8.178 -1.2539  0.2915  1.5539
   34CHL1    C3 2443   6.292   2.336   6.538 -0.4362  0.7281 -0.7436
   34CHL1    H3 2444   6.351   2.243   6.548  2.2787  2.3007 -1.2177
   34CHL1    O3 2445   6.291   2.380   6.403  0.4728 -0.1300 -0.4160
   34CHL1   H3' 2446   6.247   2.465   6.400 -0.8264 -0.7485  0.2365
   34CHL1    C4 2447   6.143   2.315   6.574  0.2297 -0.2378 -0.6180
   34CHL1   H4A 2448   6.086   2.408   6.552 -0.1827  0.0522  1.5144
   34CHL1   H4B 2449   6.094   2.240   6.508 -2.2549  1.6317 -1.0510
   34CHL1    C5 2450   6.126   2.273   6.718 -0.3300  0.0996  0.1171
   34CHL1    C6 2451   6.068   2.161   6.757 -0.2439 -0.1892  0.1246
   34CHL1    H6 2452   6.031   2.096   6.676 -4.6721 -0.1556  1.8285
   34CHL1    C7 2453   6.065   2.113   6.896 -0.5456 -0.6507 -0.0582
   34CHL1   H7A 2454   5.969   2.062   6.923 -0.1442 -1.7197 -0.5768
   34CHL1   H7B 2455   6.141   2.033   6.912  1.2730  1.0117 -0.0067
   34CHL1    C8 2456   6.102   2.218   7.004  0.3425 -0.9040 -0.2187
   34CHL1    H8 2457   6.012   2.282   6.993 -1.0829 -3.0606 -1.7573
   34CHL1   C14 2458   6.131   2.161   7.140  0.1979 -0.2419  0.3634
   34CHL1   H14 2459   6.230   2.111   7.139 -0.4806 -1.8691  3.6139
   34CHL1   C15 2460   6.033   2.051   7.190 -0.7359  0.2238  0.0459
   34CHL1  H15A 2461   5.926   2.062   7.165 -1.1069 -0.7759  1.1153
   34CHL1  H15B 2462   6.066   1.954   7.148 -1.8228  0.0271 -0.3842
   34CHL1   C16 2463   6.050   2.064   7.341 -0.8455 -0.5261 -0.3402
   34CHL1  H16A 2464   5.951   2.090   7.385  0.4455 -0.6319  2.9674
   34CHL1  H16B 2465   6.084   1.970   7.390 -0.2774  0.0390  0.3743
   34CHL1   C17 2466   6.157   2.175   7.367 -0.0258  0.4087  0.3018
   34CHL1   H17 2467   6.257   2.129   7.361  0.4194  1.1957  1.2758
   34CHL1   C13 2468   6.141   2.265   7.251  0.5316 -0.3979 -0.5562
   34CHL1   C18 2469   6.017   2.354   7.258  0.0088 -0.5673  0.1592
   34CHL1  H18A 2470   6.014   2.429   7.340 -2.9113  0.4988 -0.7686
   34CHL1  H18B 2471   6.008   2.399   7.157  1.1876 -0.4859  0.0793
   34CHL1  H18C 2472   5.926   2.296   7.286  0.2839 -0.1753  2.0300
   34CHL1   C12 2473   6.261   2.348   7.209 -0.2811  1.0922 -0.0192
   34CHL1  H12A 2474   6.276   2.433   7.279 -0.6626  0.1778  1.2235
   34CHL1  H12B 2475   6.355   2.289   7.204 -2.3490 -2.6583  0.9645
   34CHL1   C11 2476   6.250   2.422   7.077  0.1981 -0.6319  0.2967
   34CHL1  H11A 2477   6.180   2.507   7.091  2.7281  1.7864 -0.6779
   34CHL1  H11B 2478   6.344   2.475   7.051 -1.1918  0.6514 -2.5545
   34CHL1    C9 2479   6.219   2.314   6.959  0.2589  0.1868  0.1352
   34CHL1    H9 2480   6.308   2.250   6.945 -1.1711 -1.5987 -1.2936
   34CHL1   C10 2481   6.200   2.370   6.814 -0.3950 -0.7572  0.5664
   34CHL1   C19 2482   6.117   2.496   6.825  0.5344 -0.6552 -0.2853
   34CHL1  H19A 2483   6.098   2.554   6.731 -3.0987  0.8907  1.2386
   34CHL1  H19B 2484   6.022   2.469   6.875  0.9072 -2.9115 -0.6907
   34CHL1  H19C 2485   6.168   2.576   6.883 -0.5478  0.8346 -1.2923
   34CHL1    C1 2486   6.344   2.411   6.768 -0.4362 -0.5352 -0.0800
   34CHL1   H1A 2487   6.385   2.498   6.825 -0.9235  0.2935 -0.9626
   34CHL1   H1B 2488   6.422   2.332   6.779  0.5270  0.2836 -0.7427
   34CHL1    C2 2489   6.354   2.445   6.619  0.1818 -0.2360  0.5178
   34CHL1   H2A 2490   6.463   2.463   6.604  0.3451  0.2125  2.0494
   34CHL1   H2B 2491   6.306   2.544   6.603  1.0178  0.5015  2.2390
   34CHL1   C20 2492   6.155   2.230   7.512  0.7918  0.1017 -0.8019
   34CHL1   H20 2493   6.052   2.265   7.534  1.1591 -0.3613  2.0707
   34CHL1   C21 2494   6.242   2.346   7.529  0.2858 -0.5558 -0.1115
   34CHL1  H21A 2495   6.225   2.395   7.627  1.4076 -0.7308  0.1906
   34CHL1  H21B 2496   6.203   2.419   7.454  0.9535  1.1482  1.1360
   34CHL1  H21C 2497   6.347   2.314   7.516  0.7976 -0.2697  2.6941
   34CHL1   C22 2498   6.179   2.121   7.619 -0.0278 -0.0134  0.1541
   34CHL1  H22A 2499   6.104   2.042   7.598  1.8650 -1.8675  0.1047
   34CHL1  H22B 2500   6.279   2.080   7.593 -1.0401 -1.6107 -1.4400
   34CHL1   C23 2501   6.186   2.179   7.763  1.2838  0.0365  0.2193
   34CHL1  H23A 2502   6.270   2.252   7.769  1.9532 -0.7726  0.8672
   34CHL1  H23B 2503   6.089   2.224   7.794  0.6897 -1.0340 -0.0774
   34CHL1   C24 2504   6.220   2.061   7.854 -0.3377  0.7759 -0.1041
   34CHL1  H24A 2505   6.162   1.968   7.835 -0.0689  0.6368 -0.2483
   34CHL1  H24B 2506   6.321   2.028   7.824  0.3958  0.5522  2.3903
   34CHL1   C25 2507   6.230   2.095   8.006  0.4275 -0.3843 -0.3934
   34CHL1   H25 2508   6.127   2.100   8.047 -0.2341  0.9715 -2.0664
   34CHL1   C26 2509   6.288   1.974   8.086  0.1149  0.3641 -0.4709
   34CHL1  H26A 2510   6.241   1.874   8.078 -1.1387  0.6136  2.4965
   34CHL1  H26B 2511   6.389   1.963   8.041  0.1538  0.0438 -0.3026
   34CHL1  H26C 2512   6.290   2.002   8.193 -3.3411  2.1775 -0.7100
   34CHL1   C27 2513   6.313   2.224   8.038 -0.2398 -0.1414 -0.1475
   34CHL1  H27A 2514   6.329   2.236   8.147  0.1999  0.6066 -0.2917
   34CHL1  H27B 2515   6.403   2.235   7.975  0.1290 -1.0877  0.1922
   34CHL1  H27C 2516   6.245   2.307   8.011 -0.5491 -0.4064 -0.1956
   35CHL1    C3 2517   2.492   5.882   6.780 -0.0422 -0.0096  0.1881
   35CHL1    H3 2518   2.383   5.864   6.791 -0.2826  1.2875  0.0957
   35CHL1    O3 2519   2.538   5.853   6.644  0.1844  0.4595  0.0766
   35CHL1   H3' 2520   2.479   5.900   6.585 -2.2622  2.0410  3.4697
   35CHL1    C4 2521   2.530   6.027   6.820  0.2476  0.1444 -0.1065
   35CHL1   H4A 2522   2.640   6.030   6.800  0.5192  1.2836  1.3701
   35CHL1   H4B 2523   2.486   6.112   6.763  0.5328  0.4304  0.0946
   35CHL1    C5 2524   2.501   6.048   6.968 -0.2565  0.0732  0.0620
   35CHL1    C6 2525   2.410   6.143   7.007 -0.1412  0.3033 -0.4179
   35CHL1    H6 2526   2.365   6.206   6.928  1.4529  1.7633 -0.2131
   35CHL1    C7 2527   2.366   6.171   7.145 -0.3418  0.0261  0.4811
   35CHL1   H7A 2528   2.329   6.275   7.155 -3.1566 -0.8281 -0.2017
   35CHL1   H7B 2529   2.279   6.107   7.171  1.6016 -1.9731  2.4980
   35CHL1    C8 2530   2.461   6.112   7.250 -0.0854 -0.6166  0.2746
   35CHL1    H8 2531   2.562   6.158   7.241 -0.0631 -0.7026  0.0881
   35CHL1   C14 2532   2.402   6.116   7.389 -0.5595 -0.3657  0.4929
   35CHL1   H14 2533   2.300   6.073   7.378  0.0910 -2.4559  2.0982
   35CHL1   C15 2534   2.372   6.255   7.445 -0.0664  0.1689 -0.1636
   35CHL1  H15A 2535   2.444   6.332   7.410  0.2491  0.3796  0.8964
   35CHL1  H15B 2536   2.276   6.299   7.414 -0.6076  1.2655  2.7008
   35CHL1   C16 2537   2.379   6.240   7.600  0.9679  0.1242 -0.9012
   35CHL1  H16A 2538   2.465   6.287   7.652  0.2496  0.4345  0.0224
   35CHL1  H16B 2539   2.283   6.285   7.633 -0.5198 -2.4467 -1.4222
   35CHL1   C17 2540   2.388   6.084   7.624 -0.4526 -0.5572 -0.3758
   35CHL1   H17 2541   2.285   6.044   7.618 -0.6079 -0.2515  0.1675
   35CHL1   C13 2542   2.475   6.044   7.498 -0.0525  0.8641  0.4406
   35CHL1   C18 2543   2.620   6.099   7.509 -0.2392  0.0229  0.0446
   35CHL1  H18A 2544   2.617   6.203   7.549 -1.3004  1.4567 -3.3362
   35CHL1  H18B 2545   2.682   6.029   7.568 -1.4418 -1.8128 -0.7686
   35CHL1  H18C 2546   2.669   6.108   7.409 -1.1202 -1.8042 -0.5991
   35CHL1   C12 2547   2.483   5.897   7.457  0.4821 -0.4504  0.6938
   35CHL1  H12A 2548   2.546   5.840   7.529  2.8898 -0.1068 -0.9864
   35CHL1  H12B 2549   2.382   5.852   7.446  0.0348  0.7426 -0.3255
   35CHL1   C11 2550   2.561   5.885   7.320  0.6635  0.1452 -0.0506
   35CHL1  H11A 2551   2.666   5.921   7.317  0.5755  0.3932 -2.9687
   35CHL1  H11B 2552   2.563   5.780   7.284 -0.5673 -0.2198  0.8768
   35CHL1    C9 2553   2.493   5.968   7.214  0.4305  0.0302  0.2251
   35CHL1    H9 2554   2.392   5.921   7.204 -0.9950  2.7011  1.2005
   35CHL1   C10 2555   2.566   5.945   7.066  0.0728  0.3044  0.1034
   35CHL1   C19 2556   2.720   5.971   7.090 -0.0214 -0.1220  0.3304
   35CHL1  H19A 2557   2.770   5.990   6.992  0.2211  3.3278  1.0262
   35CHL1  H19B 2558   2.733   6.064   7.149 -0.6976  0.0086  0.2808
   35CHL1  H19C 2559   2.757   5.878   7.138 -2.2023 -0.2831  1.8353
   35CHL1    C1 2560   2.540   5.799   7.010  0.6635 -0.5022  0.2347
   35CHL1   H1A 2561   2.599   5.729   7.074  0.5096 -3.4130 -2.5202
   35CHL1   H1B 2562   2.433   5.774   7.025  0.6089 -0.6119 -0.2966
   35CHL1    C2 2563   2.573   5.779   6.856 -0.5900 -0.3634 -0.2904
   35CHL1   H2A 2564   2.558   5.671   6.833  1.1350 -1.5186  3.3284
   35CHL1   H2B 2565   2.680   5.803   6.842 -0.8973  1.4389  0.2877
   35CHL1   C20 2566   2.443   6.046   7.757 -0.6639  0.3654 -0.4570
   35CHL1   H20 2567   2.554   6.045   7.763 -0.7198 -0.0756  3.5163
   35CHL1   C21 2568   2.403   5.897   7.785 -0.3817 -0.1375  0.2718
   35CHL1  H21A 2569   2.450   5.859   7.878  1.4074 -0.5407 -0.7616
   35CHL1  H21B 2570   2.443   5.834   7.703 -0.9986  0.5531 -0.5691
   35CHL1  H21C 2571   2.292   5.890   7.780 -0.3504 -0.2919 -0.2524
   35CHL1   C22 2572   2.400   6.134   7.874  0.4031 -0.1006 -0.4120
   35CHL1  H22A 2573   2.419   6.243   7.862 -1.4675  0.5252  1.6345
   35CHL1  H22B 2574   2.290   6.138   7.886  0.1935  1.2876 -2.3015
   35CHL1   C23 2575   2.462   6.108   8.016  0.7607 -0.8909 -0.4437
   35CHL1  H23A 2576   2.414   6.024   8.073 -0.8923  0.0884 -0.3230
   35CHL1  H23B 2577   2.571   6.098   7.997  0.5604  0.6249 -2.6159
   35CHL1   C24 2578   2.432   6.224   8.115 -0.0811 -0.5870  0.3374
   35CHL1  H24A 2579   2.491   6.314   8.086 -2.2319  1.1415  1.0150
   35CHL1  H24B 2580   2.324   6.249   8.105  0.2505  0.6607 -0.2503
   35CHL1   C25 2581   2.462   6.186   8.263  0.1687  0.5417 -0.2042
   35CHL1   H25 2582   2.412   6.091   8.288 -0.5156  0.5922 -1.3213
   35CHL1   C26 2583   2.621   6.171   8.288  0.1134 -0.4783  0.0058
   35CHL1  H26A 2584   2.631   6.117   8.385 -0.8299  1.3323  1.1775
   35CHL1  H26B 2585   2.669   6.115   8.206  1.8434  2.8131 -1.4379
   35CHL1  H26C 2586   2.661   6.275   8.283 -1.2513  0.0166 -1.5381
   35CHL1   C27 2587   2.400   6.288   8.366  0.3030 -0.4174  0.2577
   35CHL1  H27A 2588   2.392   6.392   8.330  0.7092 -1.0603 -1.8547
   35CHL1  H27B 2589   2.453   6.291   8.463  1.0609 -0.2031 -0.1525
   35CHL1  H27C 2590   2.295   6.254   8.380 -0.5587  2.2137  0.7380
   36CHL1    C3 2591   2.825   4.634   6.718  0.7136  0.0500  0.1580
   36CHL1    H3 2592   2.828   4.745   6.710 -0.6336 -0.0071 -2.1090
   36CHL1    O3 2593   2.786   4.580   6.592  0.2762  0.2404  0.0100
   36CHL1   H3' 2594   2.783   4.484   6.602  0.4406  0.2394  0.0452
   36CHL1    C4 2595   2.972   4.586   6.754  0.2856 -0.5617 -0.0245
   36CHL1   H4A 2596   2.960   4.478   6.730 -1.9530 -0.2259 -0.6003
   36CHL1   H4B 2597   3.044   4.625   6.679 -0.7294 -2.7697 -2.2774
   36CHL1    C5 2598   3.013   4.602   6.902 -0.0433 -0.0663 -0.0009
   36CHL1    C6 2599   3.127   4.661   6.933  0.0241 -0.0449  0.6117
   36CHL1    H6 2600   3.194   4.681   6.848  0.6267 -0.3211  1.0134
   36CHL1    C7 2601   3.177   4.699   7.065  0.0258 -0.0666 -0.2219
   36CHL1   H7A 2602   3.283   4.682   7.095 -0.4837  0.4656  2.0331
   36CHL1   H7B 2603   3.160   4.809   7.066  1.2902  0.1449  0.3433
   36CHL1    C8 2604   3.100   4.620   7.179 -0.1012 -0.1788 -0.2204
   36CHL1    H8 2605   3.140   4.516   7.177 -2.4545 -1.2356  1.6904
   36CHL1   C14 2606   3.124   4.692   7.309 -0.0678 -0.1137 -0.1892
   36CHL1   H14 2607   3.077   4.792   7.299 -3.0551 -1.3543  0.4305
   36CHL1   C15 2608   3.266   4.722   7.344 -0.1076 -1.1252 -0.5191
   36CHL1  H15A 2609   3.333   4.634   7.355  1.1003  0.0335  2.3774
   36CHL1  H15B 2610   3.309   4.801   7.278 -0.4255 -0.7014 -0.2251
   36CHL1   C16 2611   3.253   4.760   7.491 -0.4245 -0.3871 -0.4501
   36CHL1  H16A 2612   3.344   4.727   7.546  1.2187 -0.3028 -2.9361
   36CHL1  H16B 2613   3.264   4.871   7.491  1.9820 -0.5340  1.8330
   36CHL1   C17 2614   3.111   4.719   7.537  0.0352  0.3559  0.0364
   36CHL1   H17 2615   3.043   4.806   7.522 -1.5310 -1.0044 -1.1044
   36CHL1   C13 2616   3.057   4.621   7.430  0.0795  0.2446 -1.2366
   36CHL1   C18 2617   3.111   4.477   7.449  0.1118  0.3408 -0.4526
   36CHL1  H18A 2618   3.219   4.475   7.473 -0.3263  0.7328  1.7235
   36CHL1  H18B 2619   3.065   4.435   7.541 -0.0741 -1.4185 -1.3147
   36CHL1  H18C 2620   3.096   4.413   7.359 -1.2110 -1.5103  1.0069
   36CHL1   C12 2621   2.898   4.616   7.416 -1.3109 -0.0061  0.5941
   36CHL1  H12A 2622   2.866   4.550   7.499 -1.6919 -1.9175 -0.9882
   36CHL1  H12B 2623   2.851   4.715   7.431 -0.6224  0.6444 -1.2234
   36CHL1   C11 2624   2.860   4.556   7.279 -0.3784  0.6642  0.2688
   36CHL1  H11A 2625   2.890   4.449   7.272  0.3614  0.9734 -2.0510
   36CHL1  H11B 2626   2.752   4.565   7.258 -0.3710 -0.0579 -0.1134
   36CHL1    C9 2627   2.947   4.611   7.155 -0.0834 -0.6490 -0.8205
   36CHL1    H9 2628   2.914   4.718   7.159  1.9193 -0.0338  1.8398
   36CHL1   C10 2629   2.916   4.560   7.011 -0.3087  0.1478 -0.5420
   36CHL1   C19 2630   2.897   4.402   7.019  0.1398  0.3232 -0.3909
   36CHL1  H19A 2631   2.803   4.371   7.069 -0.3323 -1.2657 -2.1826
   36CHL1  H19B 2632   2.891   4.370   6.913 -1.5497 -2.6654  0.5143
   36CHL1  H19C 2633   2.982   4.355   7.072 -1.6322 -2.0855  0.4889
   36CHL1    C1 2634   2.773   4.621   6.966 -0.6286 -0.4598 -0.2847
   36CHL1   H1A 2635   2.697   4.592   7.041  1.6649  0.6782  2.7001
   36CHL1   H1B 2636   2.779   4.732   6.963  0.8478 -0.5363 -1.7229
   36CHL1    C2 2637   2.725   4.580   6.828  0.7375  0.2642 -0.3797
   36CHL1   H2A 2638   2.625   4.619   6.800  0.2088 -0.8766 -0.0938
   36CHL1   H2B 2639   2.711   4.471   6.817 -2.0499  0.3176  1.5950
   36CHL1   C20 2640   3.108   4.674   7.684 -1.1391 -0.1301 -0.8248
   36CHL1   H20 2641   3.150   4.571   7.682 -1.4809 -0.2967 -3.2270
   36CHL1   C21 2642   2.964   4.654   7.728  0.4571  0.8701  0.1606
   36CHL1  H21A 2643   2.905   4.743   7.697  2.1018  1.6107 -1.0041
   36CHL1  H21B 2644   2.959   4.642   7.838  2.1655 -0.2981  0.1406
   36CHL1  H21C 2645   2.909   4.560   7.706 -1.4283  1.4955  1.9229
   36CHL1   C22 2646   3.182   4.770   7.774  0.3826 -0.5360 -0.4489
   36CHL1  H22A 2647   3.281   4.790   7.729 -1.1304  1.6223 -3.1377
   36CHL1  H22B 2648   3.141   4.872   7.787 -3.9259 -2.2512  1.4290
   36CHL1   C23 2649   3.197   4.717   7.916 -0.4326  0.3822 -0.2826
   36CHL1  H23A 2650   3.102   4.714   7.974 -0.0953  3.6044  0.6547
   36CHL1  H23B 2651   3.249   4.619   7.912 -2.9919 -1.1627  1.7561
   36CHL1   C24 2652   3.277   4.808   8.002  0.3703 -0.6435  0.4433
   36CHL1  H24A 2653   3.377   4.809   7.953 -0.6593  1.9425 -1.9212
   36CHL1  H24B 2654   3.244   4.914   7.998 -1.7376 -1.2358  0.8726
   36CHL1   C25 2655   3.309   4.773   8.156 -1.1013 -1.0727  0.7547
   36CHL1   H25 2656   3.212   4.761   8.210 -1.3232 -1.6626  0.2316
   36CHL1   C26 2657   3.381   4.633   8.162  0.5168  0.1541  0.1041
   36CHL1  H26A 2658   3.337   4.552   8.100  1.1730  0.3722 -0.6543
   36CHL1  H26B 2659   3.484   4.652   8.126  0.4672  0.4791  0.1325
   36CHL1  H26C 2660   3.393   4.592   8.265  0.0848 -1.6548 -0.5265
   36CHL1   C27 2661   3.398   4.874   8.224 -0.3926  0.2092 -0.8774
   36CHL1  H27A 2662   3.349   4.974   8.229  1.0266  0.8897 -0.1033
   36CHL1  H27B 2663   3.411   4.848   8.331  0.1514  0.2686 -0.9293
   36CHL1  H27C 2664   3.497   4.877   8.175 -0.3555 -0.1243 -0.8221
   37CHL1    C3 2665   6.489   0.019   6.941  0.3171 -0.0917  0.3715
   37CHL1    H3 2666   6.521  -0.087   6.939  2.7929  0.3977  3.5293
   37CHL1    O3 2667   6.469   0.075   6.814 -0.1700  0.0978  0.9393
   37CHL1   H3' 2668   6.521   0.155   6.824  0.1192 -0.1792  1.6749
   37CHL1    C4 2669   6.350   0.020   7.004  0.3583 -0.5762  0.7348
   37CHL1   H4A 2670   6.310   0.124   7.003  0.2562 -0.6210  0.3133
   37CHL1   H4B 2671   6.283  -0.044   6.943 -0.4370  0.6217  0.3155
   37CHL1    C5 2672   6.345  -0.028   7.155  0.5539  0.9169  0.3006
   37CHL1    C6 2673   6.260  -0.127   7.193  0.1344 -1.0584 -0.4713
   37CHL1    H6 2674   6.194  -0.171   7.117 -0.7999 -1.2012  0.4111
   37CHL1    C7 2675   6.252  -0.181   7.333 -0.3600  0.5473  0.2554
   37CHL1   H7A 2676   6.144  -0.187   7.360 -0.2073 -2.1971  0.5822
   37CHL1   H7B 2677   6.290  -0.284   7.351 -0.2567  0.6043  0.3589
   37CHL1    C8 2678   6.324  -0.083   7.430  0.1555  0.2039 -0.4057
   37CHL1    H8 2679   6.261   0.009   7.434 -0.9670 -0.5936  0.8625
   37CHL1   C14 2680   6.331  -0.147   7.562  0.1836  0.3090 -0.2661
   37CHL1   H14 2681   6.397  -0.236   7.559 -0.3153 -0.0828  0.1406
   37CHL1   C15 2682   6.208  -0.207   7.628  0.2168  0.0941 -0.5439
   37CHL1  H15A 2683   6.118  -0.145   7.608  0.2940  0.8901  1.3463
   37CHL1  H15B 2684   6.196  -0.314   7.600 -1.7754  0.3284 -0.7491
   37CHL1   C16 2685   6.233  -0.195   7.782  0.0119  0.4315 -0.4285
   37CHL1  H16A 2686   6.168  -0.123   7.835 -2.5527 -2.0063 -0.0169
   37CHL1  H16B 2687   6.235  -0.293   7.835  2.3394  0.9906  0.6607
   37CHL1   C17 2688   6.371  -0.135   7.803 -0.2360 -0.4855 -0.3386
   37CHL1   H17 2689   6.443  -0.219   7.805  0.3495 -0.0234  2.1055
   37CHL1   C13 2690   6.391  -0.054   7.669  0.0874  0.1993  0.2855
   37CHL1   C18 2691   6.318   0.083   7.676  0.5962 -0.6996 -1.0099
   37CHL1  H18A 2692   6.312   0.139   7.581  2.2796  0.2283 -0.6174
   37CHL1  H18B 2693   6.211   0.076   7.705  1.1867  0.5148  1.8754
   37CHL1  H18C 2694   6.361   0.162   7.742 -1.8545  0.5118 -0.7584
   37CHL1   C12 2695   6.536  -0.030   7.628  0.1066  0.0175 -0.6013
   37CHL1  H12A 2696   6.590   0.035   7.699  1.7370 -1.6640 -0.2155
   37CHL1  H12B 2697   6.594  -0.125   7.635  1.0276  0.6603  1.0782
   37CHL1   C11 2698   6.556   0.020   7.482 -0.0298  0.1223 -0.4231
   37CHL1  H11A 2699   6.552   0.131   7.489  1.7587  0.2239 -0.5810
   37CHL1  H11B 2700   6.661  -0.005   7.455  0.2986  0.0781  0.8416
   37CHL1    C9 2701   6.460  -0.041   7.378 -0.4631 -0.9253 -0.3064
   37CHL1    H9 2702   6.514  -0.134   7.349  1.0924 -0.0987 -0.1559
   37CHL1   C10 2703   6.447   0.039   7.247  0.4126  0.4036 -0.5970
   37CHL1   C19 2704   6.402   0.188   7.276  0.2755  0.1682  0.3240
   37CHL1  H19A 2705   6.308   0.182   7.333 -0.2799  1.0266 -0.4773
   37CHL1  H19B 2706   6.465   0.244   7.348 -0.8693  0.7109  0.9268
   37CHL1  H19C 2707   6.393   0.242   7.179  1.4448 -0.1319  0.0231
   37CHL1    C1 2708   6.585   0.048   7.169  0.1563 -0.4267 -0.3238
   37CHL1   H1A 2709   6.667   0.096   7.228  0.2485  2.1996 -2.4235
   37CHL1   H1B 2710   6.619  -0.057   7.157 -0.9771 -0.9183  0.6321
   37CHL1    C2 2711   6.571   0.112   7.030  0.2595 -0.3587  0.0639
   37CHL1   H2A 2712   6.672   0.112   6.983  0.5529 -0.1069  0.6852
   37CHL1   H2B 2713   6.523   0.212   7.031 -1.9448 -1.3302 -1.3969
   37CHL1   C20 2714   6.386  -0.070   7.946 -0.1867 -0.1909  0.3603
   37CHL1   H20 2715   6.307   0.007   7.936  0.4836  0.2722 -2.0424
   37CHL1   C21 2716   6.519  -0.007   7.964 -0.8629 -0.8799 -0.0021
   37CHL1  H21A 2717   6.529   0.021   8.072 -0.3904 -1.6428  0.1558
   37CHL1  H21B 2718   6.536   0.089   7.911  3.3289  0.8708  3.8931
   37CHL1  H21C 2719   6.600  -0.078   7.939 -1.2173 -0.8629 -1.2570
   37CHL1   C22 2720   6.359  -0.169   8.055 -0.1444 -1.0439  0.2938
   37CHL1  H22A 2721   6.260  -0.211   8.030  0.5896 -3.5082  1.2074
   37CHL1  H22B 2722   6.430  -0.255   8.054  0.4631 -0.5906 -2.0803
   37CHL1   C23 2723   6.366  -0.118   8.198 -0.6802  0.0571  0.6657
   37CHL1  H23A 2724   6.472  -0.110   8.229 -0.0907 -1.2418 -0.9289
   37CHL1  H23B 2725   6.322  -0.015   8.197  0.0536  0.3696  0.2915
   37CHL1   C24 2726   6.307  -0.225   8.281 -0.3577 -0.5819  0.3698
   37CHL1  H24A 2727   6.200  -0.236   8.251 -0.6615 -1.5080  1.7212
   37CHL1  H24B 2728   6.347  -0.326   8.262  3.0083  0.3956  1.6269
   37CHL1   C25 2729   6.306  -0.205   8.435 -0.3177 -0.1900 -0.0849
   37CHL1   H25 2730   6.268  -0.103   8.458 -1.0463 -0.7208  1.2071
   37CHL1   C26 2731   6.210  -0.298   8.504 -0.5451  0.2941 -0.0516
   37CHL1  H26A 2732   6.236  -0.397   8.461  1.8866  0.5088  0.7811
   37CHL1  H26B 2733   6.217  -0.316   8.613 -0.9583 -0.2324 -0.1070
   37CHL1  H26C 2734   6.107  -0.280   8.465 -0.0355  3.8307 -0.1539
   37CHL1   C27 2735   6.441  -0.223   8.506  0.0766 -1.0772  0.1061
   37CHL1  H27A 2736   6.427  -0.182   8.609  2.8910 -1.2346  0.6328
   37CHL1  H27B 2737   6.483  -0.325   8.504 -1.3124 -1.6584 -1.0012
   37CHL1  H27C 2738   6.520  -0.157   8.463 -0.3594 -0.4119  0.3007
   38CHL1    C3 2739   3.505   1.977   6.601 -0.1761 -0.0162 -0.6933
   38CHL1    H3 2740   3.407   1.964   6.653  0.4715 -0.8151  0.3540
   38CHL1    O3 2741   3.480   1.973   6.460 -0.2820  0.1289 -0.2704
   38CHL1   H3' 2742   3.551   2.025   6.421  1.1481 -1.4608  0.1008
   38CHL1    C4 2743   3.553   2.113   6.644  0.2460  0.0795  0.0978
   38CHL1   H4A 2744   3.644   2.132   6.583  0.9924 -0.0166  1.1584
   38CHL1   H4B 2745   3.490   2.201   6.618  0.2246  0.1110  0.2569
   38CHL1    C5 2746   3.587   2.115   6.788  0.5215  0.5856 -0.5622
   38CHL1    C6 2747   3.528   2.205   6.872 -0.2525  0.1601 -0.4459
   38CHL1    H6 2748   3.460   2.280   6.827 -0.5120  0.1892 -0.0102
   38CHL1    C7 2749   3.560   2.217   7.019 -0.3524 -0.4617  0.3194
   38CHL1   H7A 2750   3.577   2.321   7.055  1.4472  0.1029 -1.9599
   38CHL1   H7B 2751   3.479   2.175   7.083  0.5451 -0.1488  1.6926
   38CHL1    C8 2752   3.691   2.141   7.049 -0.3293  0.1522 -1.0861
   38CHL1    H8 2753   3.777   2.201   7.013  0.4398  1.8883  3.0458
   38CHL1   C14 2754   3.716   2.131   7.203  0.1850 -0.5188  0.6679
   38CHL1   H14 2755   3.631   2.069   7.239 -1.0064  1.6749  1.8810
   38CHL1   C15 2756   3.702   2.266   7.287 -0.5532  0.4325 -0.5482
   38CHL1  H15A 2757   3.750   2.355   7.240  0.9445 -0.0503 -0.0067
   38CHL1  H15B 2758   3.600   2.284   7.325  0.4941  1.3522  2.0324
   38CHL1   C16 2759   3.798   2.226   7.405  0.3992  0.5061  0.2179
   38CHL1  H16A 2760   3.883   2.298   7.406 -0.3387  1.4534 -1.0704
   38CHL1  H16B 2761   3.746   2.239   7.502  0.1364  1.3667 -0.0236
   38CHL1   C17 2762   3.836   2.086   7.388 -0.5146  0.5566 -0.0597
   38CHL1   H17 2763   3.758   2.022   7.435 -1.7727  3.2597  1.7520
   38CHL1   C13 2764   3.845   2.061   7.241  0.1645 -0.5791  0.3273
   38CHL1   C18 2765   3.969   2.132   7.184 -0.9209  0.0831  0.1426
   38CHL1  H18A 2766   3.963   2.141   7.074 -1.6632  1.8804  0.3008
   38CHL1  H18B 2767   3.985   2.238   7.212  0.8569 -0.2452  0.4881
   38CHL1  H18C 2768   4.062   2.078   7.210 -0.4394  0.4594 -0.7587
   38CHL1   C12 2769   3.831   1.912   7.195  0.0705 -0.7923 -0.6454
   38CHL1  H12A 2770   3.927   1.859   7.215  0.7914  0.4813 -0.6197
   38CHL1  H12B 2771   3.748   1.874   7.259 -1.7912  2.3257 -1.0039
   38CHL1   C11 2772   3.796   1.900   7.045 -0.5466 -0.0277 -0.8640
   38CHL1  H11A 2773   3.892   1.900   6.988 -0.5889  0.0307 -0.9344
   38CHL1  H11B 2774   3.754   1.798   7.031 -1.2030  0.1968 -0.5594
   38CHL1    C9 2775   3.687   2.001   6.996 -0.4586 -0.0591  0.1503
   38CHL1    H9 2776   3.592   1.952   7.026  0.0363 -1.8205 -1.0168
   38CHL1   C10 2777   3.679   2.001   6.838  0.2625 -0.2474  0.3691
   38CHL1   C19 2778   3.822   2.018   6.777  0.2958  0.2945 -0.0252
   38CHL1  H19A 2779   3.822   2.035   6.667  0.6760  1.4708  0.1479
   38CHL1  H19B 2780   3.886   2.102   6.811  3.6775  0.0587 -4.7581
   38CHL1  H19C 2781   3.879   1.923   6.787 -2.7222 -1.8508 -1.5430
   38CHL1    C1 2782   3.619   1.871   6.786 -0.7802  0.4693 -0.0589
   38CHL1   H1A 2783   3.684   1.791   6.828  1.0178  2.6077  1.4480
   38CHL1   H1B 2784   3.516   1.859   6.824 -0.5695  0.6954  0.5938
   38CHL1    C2 2785   3.595   1.863   6.635 -0.0315  0.1178 -0.3039
   38CHL1   H2A 2786   3.551   1.766   6.604 -0.0046  0.4112 -1.3167
   38CHL1   H2B 2787   3.689   1.880   6.578  0.1029 -0.2137 -0.1836
   38CHL1   C20 2788   3.967   2.056   7.466  0.2057  0.2398 -0.0895
   38CHL1   H20 2789   4.053   2.110   7.423  0.2253  0.3322  0.0662
   38CHL1   C21 2790   3.984   1.903   7.470  0.5924 -0.0100 -0.2911
   38CHL1  H21A 2791   4.065   1.880   7.543  0.6137  1.2155  0.0913
   38CHL1  H21B 2792   4.036   1.868   7.378  2.5395  1.6565  0.1017
   38CHL1  H21C 2793   3.891   1.848   7.497 -0.3548  0.8146 -1.7745
   38CHL1   C22 2794   3.958   2.096   7.615  0.3981 -0.3962 -0.3234
   38CHL1  H22A 2795   3.933   2.204   7.625  0.6298 -0.2680 -1.0649
   38CHL1  H22B 2796   3.858   2.065   7.653 -0.1164 -0.4464 -1.6873
   38CHL1   C23 2797   4.088   2.070   7.701 -0.2720  0.3661  0.1272
   38CHL1  H23A 2798   4.124   1.966   7.695 -2.7793 -0.5990  0.6037
   38CHL1  H23B 2799   4.168   2.135   7.658  1.4574 -1.1862  0.8511
   38CHL1   C24 2800   4.073   2.113   7.854 -0.5933  0.1436  0.2968
   38CHL1  H24A 2801   4.045   2.220   7.852  0.3501  0.3880  0.0043
   38CHL1  H24B 2802   3.984   2.061   7.898  0.9789 -3.0115  0.0264
   38CHL1   C25 2803   4.202   2.106   7.942 -0.2222 -1.1342 -0.0768
   38CHL1   H25 2804   4.282   2.155   7.882 -2.2761 -0.1741 -2.2130
   38CHL1   C26 2805   4.185   2.183   8.076 -0.1870  0.1210 -0.3251
   38CHL1  H26A 2806   4.289   2.198   8.113  1.1436 -4.0996 -1.7776
   38CHL1  H26B 2807   4.138   2.281   8.053  5.0813  2.5638 -2.3472
   38CHL1  H26C 2808   4.115   2.116   8.131 -0.4329  0.7993  0.2031
   38CHL1   C27 2809   4.233   1.965   7.966 -0.6384  0.2253  0.2177
   38CHL1  H27A 2810   4.244   1.919   7.865 -0.3313  1.4295 -0.3079
   38CHL1  H27B 2811   4.328   1.941   8.019 -1.5263 -0.3553  1.5880
   38CHL1  H27C 2812   4.145   1.912   8.008 -0.3996  0.2917  0.8185
   39CHL1    C3 2813   2.728   1.709   6.343 -0.6247  0.4458 -1.0625
   39CHL1    H3 2814   2.721   1.819   6.326  1.2004  0.4118 -2.4793
   39CHL1    O3 2815   2.682   1.638   6.233 -0.2576 -0.3210 -0.0215
   39CHL1   H3' 2816   2.738   1.561   6.229  2.2707  1.4379 -0.8055
   39CHL1    C4 2817   2.871   1.660   6.380  0.2808 -0.3602  0.2341
   39CHL1   H4A 2818   2.870   1.549   6.383  1.8143 -0.5021 -1.6825
   39CHL1   H4B 2819   2.939   1.685   6.295 -0.8515 -3.6667 -1.8576
   39CHL1    C5 2820   2.916   1.724   6.509 -0.1242 -0.1393 -0.2836
   39CHL1    C6 2821   3.019   1.811   6.503  0.5160  0.4772 -0.3844
   39CHL1    H6 2822   3.074   1.820   6.408  1.2239 -0.1588 -0.0476
   39CHL1    C7 2823   3.078   1.888   6.616  0.2131 -0.1175  0.1606
   39CHL1   H7A 2824   3.189   1.891   6.616  0.2703 -1.0530  2.1702
   39CHL1   H7B 2825   3.047   1.993   6.595  1.0461  0.3503  1.2141
   39CHL1    C8 2826   3.033   1.828   6.756 -0.5695 -0.1343 -0.2050
   39CHL1    H8 2827   3.096   1.736   6.755  1.8131  1.4058 -0.8671
   39CHL1   C14 2828   3.069   1.920   6.866 -0.3772 -0.4737  0.0108
   39CHL1   H14 2829   3.015   2.015   6.848  0.8593  0.1193 -0.7895
   39CHL1   C15 2830   3.218   1.971   6.882  0.4937  0.1083 -0.4321
   39CHL1  H15A 2831   3.273   1.875   6.878 -0.8648 -0.6715 -1.0646
   39CHL1  H15B 2832   3.256   2.045   6.807  1.4785  2.1375  1.9215
   39CHL1   C16 2833   3.214   2.031   7.023 -0.3118  0.0013 -0.1239
   39CHL1  H16A 2834   3.306   1.990   7.071  1.4761  1.6472 -1.9467
   39CHL1  H16B 2835   3.222   2.141   7.010 -1.9912  0.3843  1.7543
   39CHL1   C17 2836   3.096   1.983   7.104  1.2211  0.8387  0.1341
   39CHL1   H17 2837   3.027   2.071   7.107  1.4488  1.1059 -1.7226
   39CHL1   C13 2838   3.025   1.873   7.012  1.1728 -0.1589  0.4968
   39CHL1   C18 2839   3.085   1.728   7.032 -0.0871 -0.0735  0.6768
   39CHL1  H18A 2840   3.196   1.738   7.037 -0.1279  0.3911  0.6829
   39CHL1  H18B 2841   3.047   1.686   7.128 -2.1670  2.3566  1.0106
   39CHL1  H18C 2842   3.059   1.660   6.947 -1.0396 -0.7545  1.4937
   39CHL1   C12 2843   2.874   1.863   7.015  0.5771  0.2082  0.4334
   39CHL1  H12A 2844   2.829   1.841   7.114 -2.3553  1.0679 -0.5927
   39CHL1  H12B 2845   2.829   1.961   6.989 -0.7880 -0.5701 -0.2370
   39CHL1   C11 2846   2.815   1.778   6.895  0.2286  0.6225 -0.3067
   39CHL1  H11A 2847   2.813   1.673   6.933  0.6176  0.6287 -0.2632
   39CHL1  H11B 2848   2.708   1.808   6.884  0.0443 -0.4882 -1.8346
   39CHL1    C9 2849   2.888   1.795   6.754 -0.1217 -0.7441  0.4170
   39CHL1    H9 2850   2.846   1.892   6.720  0.8880 -0.1881  0.7177
   39CHL1   C10 2851   2.835   1.705   6.637 -0.2058  0.0693 -0.3305
   39CHL1   C19 2852   2.865   1.557   6.679 -0.0059  0.5222 -0.2355
   39CHL1  H19A 2853   2.822   1.486   6.604 -0.7572 -1.0711  1.6241
   39CHL1  H19B 2854   2.970   1.522   6.692 -1.1454 -3.1567  0.1857
   39CHL1  H19C 2855   2.817   1.531   6.776  0.6706  0.4596  0.0884
   39CHL1    C1 2856   2.690   1.739   6.595  0.3209  0.4417 -0.1576
   39CHL1   H1A 2857   2.624   1.706   6.677  0.4011  0.3066 -0.1478
   39CHL1   H1B 2858   2.674   1.848   6.581 -1.0560 -0.0125 -2.8043
   39CHL1    C2 2859   2.644   1.668   6.463  0.2029  0.1099  0.1576
   39CHL1   H2A 2860   2.536   1.694   6.452 -0.2285 -1.0350  1.3800
   39CHL1   H2B 2861   2.668   1.560   6.476 -3.0996 -0.5360  2.0322
   39CHL1   C20 2862   3.145   1.938   7.244  0.7346  0.5881  0.8322
   39CHL1   H20 2863   3.205   1.849   7.217 -2.9975 -1.2216 -2.7870
   39CHL1   C21 2864   3.016   1.897   7.333 -0.2601 -0.1066 -0.0594
   39CHL1  H21A 2865   2.982   1.794   7.308 -0.5673  0.1142 -0.5819
   39CHL1  H21B 2866   2.932   1.962   7.302  1.6163  2.0255 -0.9204
   39CHL1  H21C 2867   3.046   1.914   7.438  2.9916 -0.3618 -0.8151
   39CHL1   C22 2868   3.229   2.045   7.319 -0.1600 -0.6252  0.3564
   39CHL1  H22A 2869   3.300   2.103   7.256 -0.2918 -0.9937 -0.1322
   39CHL1  H22B 2870   3.156   2.122   7.352 -1.6734 -1.8100 -0.1244
   39CHL1   C23 2871   3.324   2.001   7.435 -0.0216 -0.5627  0.4616
   39CHL1  H23A 2872   3.272   1.921   7.490  0.0818  0.2537  1.7811
   39CHL1  H23B 2873   3.419   1.958   7.395 -0.6182 -1.1572 -0.3515
   39CHL1   C24 2874   3.363   2.125   7.528  0.0908 -0.0747  0.1316
   39CHL1  H24A 2875   3.382   2.217   7.469 -0.5201  0.7487  1.1722
   39CHL1  H24B 2876   3.280   2.150   7.597  0.7589 -1.1305  1.3736
   39CHL1   C25 2877   3.493   2.098   7.613  0.2170  0.0541  0.2008
   39CHL1   H25 2878   3.576   2.089   7.540  0.8230 -0.4752  0.9358
   39CHL1   C26 2879   3.527   2.211   7.720 -0.8612  0.0516 -1.1066
   39CHL1  H26A 2880   3.602   2.173   7.792  1.5248  2.8017 -1.9379
   39CHL1  H26B 2881   3.573   2.297   7.667  1.3640 -0.9941 -0.9825
   39CHL1  H26C 2882   3.437   2.250   7.773 -1.4202 -1.3905 -0.9374
   39CHL1   C27 2883   3.485   1.965   7.699 -0.3187  0.0146 -0.0174
   39CHL1  H27A 2884   3.390   1.969   7.758 -0.5206  1.1272 -0.3890
   39CHL1  H27B 2885   3.460   1.879   7.634 -0.1512 -0.3382  0.3846
   39CHL1  H27C 2886   3.576   1.945   7.760  0.5257 -1.7444 -1.7764
   40CHL1    C3 2887   6.091   4.279   6.715 -0.7500  0.0379 -0.1002
   40CHL1    H3 2888   6.013   4.358   6.725 -1.2957 -0.1272 -2.4781
   40CHL1    O3 2889   6.135   4.276   6.579  0.0854 -0.1196  0.7453
   40CHL1   H3' 2890   6.188   4.196   6.578 -0.1356 -0.2565 -0.1837
   40CHL1    C4 2891   6.215   4.323   6.793  0.3527 -0.1032  0.8266
   40CHL1   H4A 2892   6.298   4.253   6.770 -1.0818 -0.6105 -3.9166
   40CHL1   H4B 2893   6.243   4.419   6.744  2.3707 -1.2971 -0.5123
   40CHL1    C5 2894   6.182   4.317   6.944  0.3398  0.7486 -0.3292
   40CHL1    C6 2895   6.182   4.430   7.018 -0.1306 -0.4305 -0.1014
   40CHL1    H6 2896   6.196   4.527   6.967  1.5242 -0.3594  0.4100
   40CHL1    C7 2897   6.161   4.438   7.165 -0.7917  0.3088 -0.4366
   40CHL1   H7A 2898   6.232   4.502   7.222  1.7927 -0.9178 -2.0678
   40CHL1   H7B 2899   6.061   4.481   7.184 -0.2299  2.4367 -1.9135
   40CHL1    C8 2900   6.177   4.302   7.232  0.3478 -0.1564  0.2277
   40CHL1    H8 2901   6.277   4.255   7.222  0.3781 -0.5512  2.1387
   40CHL1   C14 2902   6.141   4.308   7.377 -0.0828  0.0838 -0.4688
   40CHL1   H14 2903   6.040   4.354   7.372 -0.6603 -1.0875 -0.1321
   40CHL1   C15 2904   6.230   4.398   7.467  0.7494 -0.5208 -0.0604
   40CHL1  H15A 2905   6.340   4.385   7.452  0.8969 -0.3998  0.8905
   40CHL1  H15B 2906   6.208   4.505   7.450 -0.0793 -0.8534 -1.1991
   40CHL1   C16 2907   6.189   4.361   7.605 -0.3318  0.2719 -0.2163
   40CHL1  H16A 2908   6.276   4.323   7.663  0.0837 -1.2719 -1.7747
   40CHL1  H16B 2909   6.132   4.445   7.650 -0.1086  1.3509 -1.8677
   40CHL1   C17 2910   6.091   4.239   7.592 -0.4002 -0.2049  0.5526
   40CHL1   H17 2911   5.991   4.287   7.581 -1.2488 -1.9259  0.4171
   40CHL1   C13 2912   6.121   4.181   7.451 -0.4400  0.8372 -0.4140
   40CHL1   C18 2913   6.251   4.105   7.461 -0.3088 -0.8109 -0.3906
   40CHL1  H18A 2914   6.240   4.014   7.523 -0.4339  1.4375  3.2018
   40CHL1  H18B 2915   6.297   4.085   7.362  2.5212  1.3475  0.3487
   40CHL1  H18C 2916   6.328   4.173   7.503 -0.8282 -0.0318 -0.6775
   40CHL1   C12 2917   6.013   4.094   7.371  0.4906 -0.0914  0.3229
   40CHL1  H12A 2918   6.012   3.991   7.412  1.4957 -0.5739 -0.8275
   40CHL1  H12B 2919   5.913   4.143   7.362  1.1938  1.7728  1.9867
   40CHL1   C11 2920   6.066   4.069   7.231 -0.1382 -0.4899  0.1676
   40CHL1  H11A 2921   6.164   4.018   7.245  0.7649  1.2960  0.6711
   40CHL1  H11B 2922   6.007   4.004   7.163 -1.1948  2.1885 -1.6665
   40CHL1    C9 2923   6.090   4.199   7.155  0.0889 -0.0282  0.2893
   40CHL1    H9 2924   5.993   4.254   7.154 -0.1041 -0.3437 -1.4307
   40CHL1   C10 2925   6.143   4.180   7.011 -0.2185 -0.3563 -0.1858
   40CHL1   C19 2926   6.258   4.073   7.006  0.3894 -0.3689 -0.1064
   40CHL1  H19A 2927   6.207   3.974   7.001 -0.7474  0.2490 -1.3943
   40CHL1  H19B 2928   6.314   4.086   6.911  1.5923  0.5144  0.6979
   40CHL1  H19C 2929   6.332   4.080   7.089  0.7349 -1.3647 -0.3125
   40CHL1    C1 2930   6.016   4.144   6.919 -0.5432  0.6017 -0.4049
   40CHL1   H1A 2931   5.985   4.043   6.952  2.3662  0.1206  1.1954
   40CHL1   H1B 2932   5.952   4.230   6.945  0.6617  1.4714 -0.2070
   40CHL1    C2 2933   6.041   4.144   6.765 -0.9176 -1.0817  0.2227
   40CHL1   H2A 2934   5.946   4.105   6.722 -1.3268 -0.4775  0.5620
   40CHL1   H2B 2935   6.118   4.066   6.748 -0.9241 -0.7953 -1.1616
   40CHL1   C20 2936   6.086   4.144   7.712  0.3255  0.3404  0.0634
   40CHL1   H20 2937   6.183   4.089   7.712 -0.4516 -1.0903  0.7866
   40CHL1   C21 2938   5.967   4.046   7.686 -0.4682  0.0440  0.1262
   40CHL1  H21A 2939   5.936   3.987   7.775 -2.1405 -1.1247 -1.1735
   40CHL1  H21B 2940   6.010   3.974   7.614  1.1439  0.4128  0.6672
   40CHL1  H21C 2941   5.887   4.106   7.637 -0.1248  1.9771  1.7852
   40CHL1   C22 2942   6.062   4.225   7.838 -0.3048 -0.1271  0.7731
   40CHL1  H22A 2943   6.140   4.304   7.844  1.0212 -1.2166 -1.1539
   40CHL1  H22B 2944   5.961   4.272   7.838 -1.0592 -1.6407 -1.2122
   40CHL1   C23 2945   6.080   4.148   7.969  0.1519 -0.3505  0.3168
   40CHL1  H23A 2946   6.009   4.063   7.961 -0.3840  0.2130 -1.4110
   40CHL1  H23B 2947   6.186   4.115   7.965  1.1417  2.6222 -3.4389
   40CHL1   C24 2948   6.062   4.215   8.110  0.0879 -0.0871  0.8834
   40CHL1  H24A 2949   6.124   4.306   8.120 -1.4148  0.8429  2.1118
   40CHL1  H24B 2950   5.959   4.255   8.109 -0.1825 -0.6980 -1.1195
   40CHL1   C25 2951   6.076   4.115   8.227  1.0593  0.8721 -0.0725
   40CHL1   H25 2952   6.018   4.025   8.200 -0.2722  2.5760 -3.3726
   40CHL1   C26 2953   6.225   4.059   8.245  0.2482 -0.1419  0.7350
   40CHL1  H26A 2954   6.295   4.142   8.268 -0.5044  0.3506  1.3302
   40CHL1  H26B 2955   6.226   3.985   8.328  0.5408 -0.0863  0.7798
   40CHL1  H26C 2956   6.264   4.009   8.154  1.6858 -0.0941  1.3088
   40CHL1   C27 2957   6.032   4.187   8.354  0.4117 -0.0228  0.1852
   40CHL1  H27A 2958   5.979   4.114   8.419 -2.3085  0.0770 -1.7947
   40CHL1  H27B 2959   6.120   4.227   8.409  1.4577 -2.7873  0.7162
   40CHL1  H27C 2960   5.962   4.269   8.331 -0.5258 -0.3579  1.6999
   41CHL1    C3 2961   0.186   4.683   7.019 -0.3887  0.2357  0.3365
   41CHL1    H3 2962   0.077   4.707   7.017 -0.9412 -2.0329  0.5240
   41CHL1    O3 2963   0.226   4.661   6.882 -0.1737 -0.2691  0.2355
   41CHL1   H3' 2964   0.281   4.738   6.866  0.4207 -0.2402  2.1527
   41CHL1    C4 2965   0.255   4.810   7.073 -0.3641  0.1482 -0.0244
   41CHL1   H4A 2966   0.364   4.799   7.059 -0.4752  2.1957 -3.4816
   41CHL1   H4B 2967   0.224   4.897   7.013 -0.2482  0.1237 -0.1178
   41CHL1    C5 2968   0.211   4.815   7.216  0.8585  0.5448 -0.3996
   41CHL1    C6 2969   0.165   4.933   7.259 -0.3499 -0.2005 -0.0430
   41CHL1    H6 2970   0.163   5.010   7.181  1.0760 -0.6031 -0.4909
   41CHL1    C7 2971   0.143   4.971   7.405  0.0989  0.1029 -0.3260
   41CHL1   H7A 2972   0.183   5.072   7.430 -1.8652  1.0854 -0.9324
   41CHL1   H7B 2973   0.034   4.977   7.429  0.0489 -0.4849 -0.4046
   41CHL1    C8 2974   0.203   4.866   7.500  0.5159  1.2390  0.3782
   41CHL1    H8 2975   0.311   4.891   7.496  1.5694 -2.6581 -0.1686
   41CHL1   C14 2976   0.150   4.879   7.641 -0.0987 -0.4278  0.1836
   41CHL1   H14 2977   0.042   4.852   7.631 -0.8280  1.6366  1.7264
   41CHL1   C15 2978   0.150   5.021   7.709 -0.6349  0.0329 -0.0143
   41CHL1  H15A 2979   0.245   5.073   7.685  3.7658 -4.3805  5.0937
   41CHL1  H15B 2980   0.053   5.069   7.683 -1.1276 -0.4045  0.9511
   41CHL1   C16 2981   0.159   4.981   7.857 -0.2236 -0.1877  0.0264
   41CHL1  H16A 2982   0.251   5.028   7.897 -0.6023  1.0027 -0.4487
   41CHL1  H16B 2983   0.073   5.026   7.911 -1.1152 -0.7583 -0.8735
   41CHL1   C17 2984   0.147   4.828   7.871  0.9927  0.3659  0.2947
   41CHL1   H17 2985   0.039   4.802   7.871  1.4555 -1.7235  0.8478
   41CHL1   C13 2986   0.212   4.781   7.739 -0.1003 -0.2692 -0.6960
   41CHL1   C18 2987   0.368   4.798   7.740 -0.2313  0.6092  0.0325
   41CHL1  H18A 2988   0.418   4.726   7.808  1.5085 -0.4744 -2.2531
   41CHL1  H18B 2989   0.415   4.775   7.642  2.7231 -0.9021  1.6635
   41CHL1  H18C 2990   0.382   4.898   7.784 -2.7166  0.6635  0.8938
   41CHL1   C12 2991   0.171   4.639   7.697  0.4600 -0.5289  0.7452
   41CHL1  H12A 2992   0.185   4.554   7.766 -1.3120 -1.1222  0.4190
   41CHL1  H12B 2993   0.060   4.634   7.685  0.2895 -0.5529  2.1556
   41CHL1   C11 2994   0.228   4.606   7.553 -0.3558 -0.3009  0.2635
   41CHL1  H11A 2995   0.339   4.600   7.551 -0.1825  1.9800 -1.3152
   41CHL1  H11B 2996   0.188   4.507   7.520  0.9383 -0.6381 -0.3726
   41CHL1    C9 2997   0.185   4.718   7.444  0.4746  0.2253 -0.2660
   41CHL1    H9 2998   0.076   4.697   7.436  0.3605  0.2229  1.0034
   41CHL1   C10 2999   0.236   4.694   7.305 -1.0178 -0.4744 -0.5933
   41CHL1   C19 3000   0.385   4.671   7.327  0.5335  0.8684 -0.3060
   41CHL1  H19A 3001   0.449   4.676   7.236  1.9984 -1.2044  0.5359
   41CHL1  H19B 3002   0.431   4.736   7.404 -0.1879 -0.4677  1.3146
   41CHL1  H19C 3003   0.408   4.568   7.362  2.1079  0.2771 -2.8044
   41CHL1    C1 3004   0.170   4.571   7.246 -0.1880  0.0727  0.4061
   41CHL1   H1A 3005   0.188   4.483   7.311  2.4610 -0.1565 -0.5110
   41CHL1   H1B 3006   0.061   4.581   7.230  0.2731  1.8134 -2.3160
   41CHL1    C2 3007   0.215   4.555   7.098  0.5995  0.3210 -0.5009
   41CHL1   H2A 3008   0.148   4.481   7.049 -1.7948  2.1665 -0.2089
   41CHL1   H2B 3009   0.321   4.521   7.097  0.2004 -1.0152 -1.4365
   41CHL1   C20 3010   0.210   4.762   7.994  0.5889  0.2116  0.2590
   41CHL1   H20 3011   0.247   4.659   7.975  1.0712  0.7011 -1.6478
   41CHL1   C21 3012   0.089   4.739   8.093 -0.2649 -0.0762 -0.1575
   41CHL1  H21A 3013   0.128   4.694   8.187 -1.2545  0.6632  0.6312
   41CHL1  H21B 3014   0.017   4.661   8.061 -0.1205 -0.6964  1.0071
   41CHL1  H21C 3015   0.050   4.830   8.143  1.6404  0.8573 -0.2797
   41CHL1   C22 3016   0.318   4.845   8.072 -0.0391 -0.2645 -0.4290
   41CHL1  H22A 3017   0.390   4.892   8.003  0.0113  1.1257  0.5323
   41CHL1  H22B 3018   0.264   4.926   8.126 -2.3555 -0.5929 -2.0797
   41CHL1   C23 3019   0.405   4.764   8.174  0.3466 -0.3370  0.8631
   41CHL1  H23A 3020   0.339   4.702   8.240 -0.9432 -1.3962 -1.3017
   41CHL1  H23B 3021   0.477   4.704   8.114  0.2433  1.7728 -1.5387
   41CHL1   C24 3022   0.488   4.850   8.270 -0.4364 -0.0919  0.7589
   41CHL1  H24A 3023   0.554   4.789   8.335 -2.9511 -2.1652  1.5434
   41CHL1  H24B 3024   0.538   4.919   8.199 -0.3590 -0.5830  0.3349
   41CHL1   C25 3025   0.414   4.941   8.369 -0.6682 -0.1101 -0.0108
   41CHL1   H25 3026   0.339   5.000   8.312 -1.8270 -0.1904  1.3694
   41CHL1   C26 3027   0.336   4.857   8.468 -0.5760  0.4219 -0.6473
   41CHL1  H26A 3028   0.278   4.923   8.536 -0.2201 -0.6140  0.7117
   41CHL1  H26B 3029   0.258   4.791   8.426 -1.4810  0.5294  0.8005
   41CHL1  H26C 3030   0.406   4.801   8.534  0.3652  0.3449 -1.6918
   41CHL1   C27 3031   0.517   5.039   8.430  0.1091 -0.3406 -0.0017
   41CHL1  H27A 3032   0.568   5.104   8.357  0.4991 -0.7787 -0.1237
   41CHL1  H27B 3033   0.467   5.101   8.507 -1.6673  0.7014 -1.8746
   41CHL1  H27C 3034   0.603   4.989   8.480 -1.9297 -2.7591  1.3422
   42CHL1    C3 3035   2.606   2.102   6.433 -0.7859  0.2933 -0.0018
   42CHL1    H3 3036   2.574   1.996   6.446  2.1706 -0.5726  1.3599
   42CHL1    O3 3037   2.626   2.124   6.295  0.2984  0.5029 -0.0472
   42CHL1   H3' 3038   2.679   2.203   6.281  0.7656  0.2281  0.1759
   42CHL1    C4 3039   2.506   2.202   6.487  0.1440  0.1539  0.0720
   42CHL1   H4A 3040   2.543   2.301   6.452 -1.1581  0.2571 -1.1181
   42CHL1   H4B 3041   2.402   2.185   6.453 -0.1240 -0.5450  1.1931
   42CHL1    C5 3042   2.511   2.225   6.641  0.2755 -0.0023  0.2980
   42CHL1    C6 3043   2.393   2.216   6.709  0.3124 -0.4413 -0.7880
   42CHL1    H6 3044   2.302   2.208   6.648  0.8311 -1.7524 -1.4371
   42CHL1    C7 3045   2.387   2.231   6.859  0.6577 -0.6567  0.6869
   42CHL1   H7A 3046   2.303   2.298   6.884  1.8031  1.1751 -0.1569
   42CHL1   H7B 3047   2.364   2.127   6.891  0.7419 -0.3803  1.6647
   42CHL1    C8 3048   2.513   2.291   6.930 -0.9118 -0.3926 -0.2021
   42CHL1    H8 3049   2.510   2.401   6.919 -0.0625 -0.3293  0.0775
   42CHL1   C14 3050   2.516   2.257   7.076 -0.0261  0.1334 -1.0916
   42CHL1   H14 3051   2.511   2.146   7.079 -0.4131  0.1446  2.0851
   42CHL1   C15 3052   2.408   2.302   7.162  0.4880  1.1624  0.6968
   42CHL1  H15A 3053   2.364   2.398   7.126 -1.1144 -0.1257 -1.0025
   42CHL1  H15B 3054   2.335   2.218   7.151  1.3339  0.2322  1.9566
   42CHL1   C16 3055   2.453   2.290   7.304 -0.5031 -0.3572 -0.4150
   42CHL1  H16A 3056   2.455   2.393   7.347  0.2513 -0.2789 -0.6183
   42CHL1  H16B 3057   2.386   2.232   7.371 -1.3079  2.0774  1.0150
   42CHL1   C17 3058   2.599   2.239   7.297  0.6368 -0.2839  0.0030
   42CHL1   H17 3059   2.607   2.128   7.294  2.2577 -0.3845  3.2053
   42CHL1   C13 3060   2.635   2.296   7.159  0.0214 -0.1197 -0.3703
   42CHL1   C18 3061   2.643   2.453   7.162  0.3101 -0.1646 -0.1372
   42CHL1  H18A 3062   2.550   2.514   7.175  1.2984  1.0865  1.5946
   42CHL1  H18B 3063   2.707   2.488   7.247 -0.5631 -1.6642  1.1970
   42CHL1  H18C 3064   2.682   2.498   7.069  3.0784  0.2959  1.1412
   42CHL1   C12 3065   2.759   2.242   7.090  0.4551  0.2180  0.2652
   42CHL1  H12A 3066   2.854   2.284   7.132  0.0272  3.0763 -1.3337
   42CHL1  H12B 3067   2.747   2.135   7.116 -4.3893  0.4006 -0.3368
   42CHL1   C11 3068   2.765   2.283   6.938  0.6415  0.4163 -1.2685
   42CHL1  H11A 3069   2.769   2.394   6.933 -0.6392  0.6930  1.8331
   42CHL1  H11B 3070   2.859   2.239   6.898  0.3425 -1.3465 -0.1483
   42CHL1    C9 3071   2.642   2.234   6.866  0.8243  0.2300  0.4179
   42CHL1    H9 3072   2.645   2.127   6.894 -1.0401  0.5191  1.9063
   42CHL1   C10 3073   2.646   2.243   6.705  0.5033 -0.0514  0.3698
   42CHL1   C19 3074   2.710   2.382   6.666  0.4619  0.4005 -0.1875
   42CHL1  H19A 3075   2.809   2.386   6.716  0.6310  1.1800 -0.5672
   42CHL1  H19B 3076   2.727   2.391   6.557 -0.3954  1.2089 -0.2692
   42CHL1  H19C 3077   2.645   2.462   6.708  0.7132  0.1384  0.7132
   42CHL1    C1 3078   2.733   2.125   6.651  0.0529 -0.4591  0.3910
   42CHL1   H1A 3079   2.838   2.130   6.687 -0.4142  0.3493  1.7217
   42CHL1   H1B 3080   2.682   2.034   6.689 -1.7991 -0.0811 -1.0699
   42CHL1    C2 3081   2.742   2.122   6.498 -0.0360 -0.3288  0.6476
   42CHL1   H2A 3082   2.812   2.041   6.468  1.6741  0.0786  3.2168
   42CHL1   H2B 3083   2.790   2.215   6.462  0.7138 -1.5028 -1.5735
   42CHL1   C20 3084   2.681   2.276   7.429 -0.5970  0.6176  0.1003
   42CHL1   H20 3085   2.667   2.386   7.440 -0.2284  0.6826 -0.0780
   42CHL1   C21 3086   2.831   2.244   7.427  0.3722  0.0789  0.4459
   42CHL1  H21A 3087   2.856   2.136   7.419  1.3076  0.4501 -2.9220
   42CHL1  H21B 3088   2.877   2.279   7.522 -1.5223 -1.3580  1.9905
   42CHL1  H21C 3089   2.886   2.299   7.348  0.7986 -1.2643 -0.2264
   42CHL1   C22 3090   2.619   2.217   7.563  0.1260 -0.3917  0.5175
   42CHL1  H22A 3091   2.515   2.251   7.581  0.8235  1.9999  0.3745
   42CHL1  H22B 3092   2.615   2.106   7.562  0.9703 -0.4332 -0.5864
   42CHL1   C23 3093   2.685   2.267   7.697 -0.9278  0.2833  0.5687
   42CHL1  H23A 3094   2.791   2.234   7.693 -1.3504 -1.0343 -0.4397
   42CHL1  H23B 3095   2.686   2.378   7.682  1.2834  0.1128 -1.1739
   42CHL1   C24 3096   2.631   2.213   7.827  0.5705  0.3699  0.2824
   42CHL1  H24A 3097   2.521   2.220   7.823  0.4858 -1.0744 -1.9637
   42CHL1  H24B 3098   2.651   2.104   7.836  0.0458  0.1802 -0.7090
   42CHL1   C25 3099   2.692   2.283   7.952 -0.5422 -0.0618 -0.1495
   42CHL1   H25 3100   2.679   2.394   7.943  1.5278  0.1163 -1.5810
   42CHL1   C26 3101   2.626   2.242   8.079  0.1148  0.2577 -0.1660
   42CHL1  H26A 3102   2.662   2.291   8.172  1.4802  1.1865 -1.1486
   42CHL1  H26B 3103   2.516   2.254   8.076 -0.2522 -2.0699  1.4305
   42CHL1  H26C 3104   2.635   2.131   8.084 -0.3625  0.0601 -2.6546
   42CHL1   C27 3105   2.842   2.239   7.969  1.0566  0.1356 -0.2307
   42CHL1  H27A 3106   2.908   2.258   7.881  0.9227 -0.9566 -0.5903
   42CHL1  H27B 3107   2.861   2.138   8.010  1.2710  0.0891 -0.4409
   42CHL1  H27C 3108   2.881   2.304   8.049 -1.3586  0.6552  0.6102
   43CHL1    C3 3109   0.184   6.706   7.227  0.2575  0.0733 -0.6779
   43CHL1    H3 3110   0.076   6.690   7.242  0.4790 -0.6300  0.2367
   43CHL1    O3 3111   0.214   6.685   7.091 -0.6959  0.0541  0.0563
   43CHL1   H3' 3112   0.197   6.594   7.067  0.2364 -1.4624  4.3260
   43CHL1    C4 3113   0.229   6.847   7.262 -0.2887  0.2671  0.2467
   43CHL1   H4A 3114   0.338   6.864   7.243 -0.2942  0.2982  0.2427
   43CHL1   H4B 3115   0.182   6.921   7.193 -0.7952 -1.9330 -1.9091
   43CHL1    C5 3116   0.196   6.873   7.404 -0.5845  0.2003  0.3474
   43CHL1    C6 3117   0.113   6.970   7.441 -0.3012  0.8773  0.0089
   43CHL1    H6 3118   0.068   7.023   7.356  0.3184  0.5439 -0.5414
   43CHL1    C7 3119   0.076   7.004   7.580 -0.3104 -0.1494  0.1809
   43CHL1   H7A 3120   0.083   7.113   7.599  2.5522 -0.4092  1.2069
   43CHL1   H7B 3121  -0.025   6.977   7.617  0.2473  1.5196  3.3400
   43CHL1    C8 3122   0.179   6.938   7.684 -0.4419  0.4986  0.1878
   43CHL1    H8 3123   0.281   6.981   7.671  0.9232 -2.1210  1.5656
   43CHL1   C14 3124   0.125   6.945   7.830 -0.5951  0.2211  0.6125
   43CHL1   H14 3125   0.033   6.883   7.831 -0.1189 -0.4990  1.3630
   43CHL1   C15 3126   0.074   7.079   7.874  0.3655 -0.0535  0.4031
   43CHL1  H15A 3127   0.151   7.157   7.858 -0.8163  1.1128  0.2223
   43CHL1  H15B 3128  -0.014   7.104   7.811  0.3514 -0.0667  0.4174
   43CHL1   C16 3129   0.047   7.052   8.025 -1.1200  0.2483 -0.3616
   43CHL1  H16A 3130   0.105   7.129   8.081 -0.2582 -2.6116  3.0478
   43CHL1  H16B 3131  -0.056   7.074   8.060 -0.5306  1.2147  0.8147
   43CHL1   C17 3132   0.109   6.912   8.064  0.0046  0.3272  0.1050
   43CHL1   H17 3133   0.037   6.828   8.054  2.8204 -2.3670  0.7991
   43CHL1   C13 3134   0.204   6.880   7.942 -0.3740  0.0852 -0.1904
   43CHL1   C18 3135   0.343   6.942   7.959 -0.0841 -0.8118 -0.1335
   43CHL1  H18A 3136   0.319   7.034   8.016 -1.3180 -1.1092 -0.1465
   43CHL1  H18B 3137   0.414   6.877   8.012 -0.8065  0.2935  2.3496
   43CHL1  H18C 3138   0.391   6.969   7.862 -0.8183 -1.9568 -0.8514
   43CHL1   C12 3139   0.220   6.728   7.896 -0.1370 -0.3719 -0.3417
   43CHL1  H12A 3140   0.276   6.675   7.977  1.6679 -1.1125 -1.9973
   43CHL1  H12B 3141   0.126   6.677   7.868 -1.4183  2.3190 -1.2647
   43CHL1   C11 3142   0.287   6.725   7.759 -0.2928 -0.9712  0.1957
   43CHL1  H11A 3143   0.388   6.769   7.760  0.6861 -3.0812  0.7587
   43CHL1  H11B 3144   0.299   6.617   7.733  1.2202 -0.5281 -1.0380
   43CHL1    C9 3145   0.206   6.795   7.641 -0.3236  0.6403 -0.0203
   43CHL1    H9 3146   0.104   6.753   7.648 -0.1998 -0.2548 -2.5923
   43CHL1   C10 3147   0.256   6.770   7.498 -0.4657  0.7209  0.6494
   43CHL1   C19 3148   0.412   6.795   7.505 -0.8525 -0.2935  0.2115
   43CHL1  H19A 3149   0.460   6.719   7.570 -0.6933 -1.6482 -1.4193
   43CHL1  H19B 3150   0.464   6.776   7.409  0.3851  0.1918  0.7574
   43CHL1  H19C 3151   0.438   6.897   7.541 -0.5770 -0.1879 -0.2823
   43CHL1    C1 3152   0.223   6.627   7.460 -0.5803  0.0906 -0.2928
   43CHL1   H1A 3153   0.275   6.558   7.530 -1.7641 -0.1469  0.3844
   43CHL1   H1B 3154   0.114   6.620   7.479 -0.2087 -0.5175  2.0345
   43CHL1    C2 3155   0.262   6.598   7.314 -0.0929 -0.0472  0.1283
   43CHL1   H2A 3156   0.227   6.496   7.284 -1.0891 -0.5576  2.7542
   43CHL1   H2B 3157   0.372   6.593   7.303  0.0494  1.2948  0.8020
   43CHL1   C20 3158   0.171   6.903   8.208 -0.2501  0.3564  0.0766
   43CHL1   H20 3159   0.247   6.984   8.218  1.7275 -1.2922 -0.9161
   43CHL1   C21 3160   0.240   6.763   8.229  0.2361  0.6703  0.4655
   43CHL1  H21A 3161   0.331   6.743   8.167 -1.5521 -2.4161 -1.4396
   43CHL1  H21B 3162   0.164   6.689   8.195  3.0125 -1.7263 -1.0717
   43CHL1  H21C 3163   0.270   6.741   8.334 -1.0232 -0.4835  0.6082
   43CHL1   C22 3164   0.059   6.922   8.314  0.1849  0.1058  0.1901
   43CHL1  H22A 3165  -0.037   6.892   8.265  0.4579 -0.2585 -0.1266
   43CHL1  H22B 3166   0.083   6.854   8.398 -0.4737 -2.1866 -1.3724
   43CHL1   C23 3167   0.022   7.060   8.361  0.2683 -0.4828 -0.2911
   43CHL1  H23A 3168   0.005   7.122   8.269 -3.2679  0.1719  0.6273
   43CHL1  H23B 3169  -0.079   7.055   8.407  0.4150 -1.9704 -0.1036
   43CHL1   C24 3170   0.125   7.121   8.456  0.4158  1.0522 -0.1270
   43CHL1  H24A 3171   0.168   7.043   8.522  1.4148  0.9574 -0.8695
   43CHL1  H24B 3172   0.210   7.170   8.404  1.2646 -0.0711  0.1766
   43CHL1   C25 3173   0.053   7.244   8.541  0.0711 -0.5785  0.2889
   43CHL1   H25 3174  -0.028   7.199   8.601  1.7852 -2.3307  1.3929
   43CHL1   C26 3175   0.162   7.303   8.627  0.1460  0.3227 -0.6981
   43CHL1  H26A 3176   0.234   7.355   8.559  0.7854  1.7543  0.9767
   43CHL1  H26B 3177   0.129   7.385   8.694  0.8440  0.5522 -0.6268
   43CHL1  H26C 3178   0.211   7.225   8.689  0.1627 -0.6148 -1.8495
   43CHL1   C27 3179   0.004   7.356   8.446  0.1441  0.0788 -0.4256
   43CHL1  H27A 3180  -0.039   7.445   8.498 -0.0558 -0.0394 -0.3877
   43CHL1  H27B 3181   0.103   7.376   8.401  2.0699 -1.6773  2.6199
   43CHL1  H27C 3182  -0.071   7.315   8.375 -1.4824  0.0581  1.2193
   44CHL1    C3 3183   6.276   5.878   7.103  0.0592 -0.4914  0.2291
   44CHL1    H3 3184   6.387   5.891   7.098  0.1359 -0.6494  1.3286
   44CHL1    O3 3185   6.226   5.851   6.970 -0.9364  0.1462 -0.3445
   44CHL1   H3' 3186   6.268   5.767   6.950 -1.6786 -0.5333  0.8479
   44CHL1    C4 3187   6.252   5.756   7.192  0.1762 -0.0414 -0.1744
   44CHL1   H4A 3188   6.143   5.739   7.176  0.0079  2.0183 -1.4843
   44CHL1   H4B 3189   6.298   5.669   7.139 -0.7688 -0.9158  0.3949
   44CHL1    C5 3190   6.282   5.764   7.339 -0.2605 -0.7761 -0.2551
   44CHL1    C6 3191   6.356   5.675   7.412 -0.1247 -0.7983 -0.5465
   44CHL1    H6 3192   6.407   5.597   7.353  0.4690 -0.2657 -0.7454
   44CHL1    C7 3193   6.382   5.685   7.558 -0.7654  0.1745  0.2839
   44CHL1   H7A 3194   6.345   5.591   7.606 -0.9353 -0.9988 -2.0092
   44CHL1   H7B 3195   6.490   5.697   7.580 -1.0385 -1.8646  3.3169
   44CHL1    C8 3196   6.310   5.813   7.622  0.0461 -0.0511  0.0688
   44CHL1    H8 3197   6.209   5.782   7.655 -0.2606  0.3807 -0.4525
   44CHL1   C14 3198   6.384   5.863   7.751 -0.6964 -0.0490  0.4052
   44CHL1   H14 3199   6.484   5.893   7.712 -1.9015  2.2017 -1.1916
   44CHL1   C15 3200   6.410   5.752   7.850 -0.1095  0.3926 -0.6512
   44CHL1  H15A 3201   6.323   5.685   7.870 -0.6228  1.0172 -0.7547
   44CHL1  H15B 3202   6.498   5.697   7.811 -0.5355 -0.8904  0.1198
   44CHL1   C16 3203   6.440   5.825   7.981  0.1872 -0.3739 -0.1136
   44CHL1  H16A 3204   6.388   5.781   8.069 -2.1588  1.5365 -0.4462
   44CHL1  H16B 3205   6.549   5.824   8.002  0.3173 -0.3130 -0.7649
   44CHL1   C17 3206   6.404   5.978   7.952 -0.1159  0.1635 -0.4564
   44CHL1   H17 3207   6.498   6.028   7.919 -0.2027  0.9506  0.4255
   44CHL1   C13 3208   6.317   5.981   7.828 -0.3913 -0.2611 -0.0852
   44CHL1   C18 3209   6.171   5.944   7.869 -0.5723  0.1278  0.4641
   44CHL1  H18A 3210   6.124   6.032   7.919  0.3256 -0.8831  3.2849
   44CHL1  H18B 3211   6.105   5.934   7.781 -1.0985  2.0750  0.5812
   44CHL1  H18C 3212   6.168   5.848   7.924  0.2746 -0.2389 -0.1137
   44CHL1   C12 3213   6.318   6.092   7.734  0.3422 -0.0981 -0.0877
   44CHL1  H12A 3214   6.280   6.187   7.777  1.8467  0.1360  0.8021
   44CHL1  H12B 3215   6.424   6.119   7.712  0.9984 -1.9281  0.6476
   44CHL1   C11 3216   6.250   6.069   7.597  0.6592  0.0834  0.4937
   44CHL1  H11A 3217   6.140   6.056   7.606 -0.0048  2.2806 -2.6311
   44CHL1  H11B 3218   6.277   6.149   7.524  2.9914 -2.7116 -1.9919
   44CHL1    C9 3219   6.303   5.936   7.532 -0.2388 -0.0885 -0.4006
   44CHL1    H9 3220   6.408   5.952   7.498 -0.3241 -1.7361 -1.5617
   44CHL1   C10 3221   6.229   5.901   7.399 -0.8296 -0.3831 -0.6707
   44CHL1   C19 3222   6.074   5.899   7.424  0.2698  0.5720  0.7532
   44CHL1  H19A 3223   6.041   5.856   7.521 -1.2726  1.7376  0.7843
   44CHL1  H19B 3224   6.046   6.006   7.436  2.8976  1.6645 -1.6324
   44CHL1  H19C 3225   6.018   5.862   7.335  0.7539  0.5044  0.4764
   44CHL1    C1 3226   6.262   6.017   7.308  0.0389 -0.0965 -0.2293
   44CHL1   H1A 3227   6.236   6.120   7.341  1.4216  0.3884 -0.5903
   44CHL1   H1B 3228   6.372   6.022   7.291 -0.0819 -1.4944 -1.5958
   44CHL1    C2 3229   6.201   5.994   7.167  0.0341  0.0525  0.7218
   44CHL1   H2A 3230   6.199   6.089   7.108 -2.8874  1.0816  2.2545
   44CHL1   H2B 3231   6.092   5.973   7.171 -0.1691  1.0835  1.0699
   44CHL1   C20 3232   6.358   6.048   8.081 -0.0931  0.1358  0.2367
   44CHL1   H20 3233   6.271   5.987   8.113 -1.1017  0.9557 -0.8944
   44CHL1   C21 3234   6.316   6.190   8.046  0.3299 -0.1631 -0.9764
   44CHL1  H21A 3235   6.243   6.198   7.963 -2.3996  0.2788  1.3202
   44CHL1  H21B 3236   6.409   6.249   8.029  0.6369  0.4652  2.2370
   44CHL1  H21C 3237   6.275   6.229   8.142 -0.2653  0.2318 -1.3878
   44CHL1   C22 3238   6.469   6.051   8.199 -0.3810 -0.1325  0.0709
   44CHL1  H22A 3239   6.481   5.941   8.210  2.5728  0.3013  2.4987
   44CHL1  H22B 3240   6.558   6.101   8.157  0.1095 -2.8997 -2.5733
   44CHL1   C23 3241   6.418   6.098   8.338 -0.7906 -0.1914  0.1615
   44CHL1  H23A 3242   6.390   6.206   8.338 -0.2678 -0.0065 -1.9808
   44CHL1  H23B 3243   6.323   6.045   8.361  0.8602 -3.4545  0.0874
   44CHL1   C24 3244   6.512   6.061   8.452 -0.4150 -0.7767  0.1139
   44CHL1  H24A 3245   6.509   5.952   8.471  3.5432 -0.9014  0.7871
   44CHL1  H24B 3246   6.615   6.085   8.418  0.2284 -0.0375  2.4278
   44CHL1   C25 3247   6.488   6.144   8.580  0.2111  0.2816 -0.3266
   44CHL1   H25 3248   6.469   6.251   8.554  0.3293  0.6933  1.1961
   44CHL1   C26 3249   6.361   6.088   8.648  0.6069  0.7046  0.1008
   44CHL1  H26A 3250   6.349   6.137   8.747 -1.0980  0.4536  0.0463
   44CHL1  H26B 3251   6.281   6.101   8.572  0.3711 -0.7864  0.0559
   44CHL1  H26C 3252   6.375   5.979   8.669  1.5534  0.7158 -0.4115
   44CHL1   C27 3253   6.607   6.134   8.675  0.0746  0.4681  0.4971
   44CHL1  H27A 3254   6.627   6.034   8.719  0.0990  1.0799  1.9184
   44CHL1  H27B 3255   6.695   6.182   8.627 -1.0486  1.7263 -0.3854
   44CHL1  H27C 3256   6.585   6.199   8.762 -0.8393 -0.0813  0.6908
   45CHL1    C3 3257   1.263   2.758   6.772 -0.4259 -0.1853 -0.1893
   45CHL1    H3 3258   1.366   2.728   6.802 -0.4926 -1.6672 -1.3280
   45CHL1    O3 3259   1.267   2.738   6.635 -0.2627 -0.5744  0.4788
   45CHL1   H3' 3260   1.196   2.674   6.625 -0.2736 -0.4888 -0.0547
   45CHL1    C4 3261   1.147   2.678   6.844 -0.1802 -0.5730 -0.3894
   45CHL1   H4A 3262   1.043   2.685   6.807  0.4064 -0.8527 -2.2199
   45CHL1   H4B 3263   1.192   2.578   6.825  2.4317  0.7879 -2.0747
   45CHL1    C5 3264   1.149   2.695   6.994 -0.6637 -0.0402  0.0948
   45CHL1    C6 3265   1.149   2.591   7.077 -0.2718 -0.1530  0.4234
   45CHL1    H6 3266   1.159   2.491   7.033  1.0545  0.1521 -0.0282
   45CHL1    C7 3267   1.161   2.597   7.224  0.0680  0.2645 -0.6178
   45CHL1   H7A 3268   1.087   2.543   7.286 -1.5832  2.2315 -0.7658
   45CHL1   H7B 3269   1.263   2.563   7.251 -0.0573  1.3580  1.4405
   45CHL1    C8 3270   1.157   2.746   7.281  0.0836  0.6416 -0.5731
   45CHL1    H8 3271   1.054   2.778   7.308  0.9990  0.7893  3.4193
   45CHL1   C14 3272   1.224   2.737   7.426  0.2354 -0.0754  0.2445
   45CHL1   H14 3273   1.328   2.713   7.398  0.5791 -1.8564  2.7235
   45CHL1   C15 3274   1.193   2.631   7.530 -0.0242  0.8235  0.1325
   45CHL1  H15A 3275   1.084   2.615   7.528 -0.2568  2.1352  0.8670
   45CHL1  H15B 3276   1.245   2.533   7.521  0.2218  0.2994  4.6731
   45CHL1   C16 3277   1.235   2.698   7.666 -0.0928  0.3743  0.3839
   45CHL1  H16A 3278   1.141   2.705   7.724  0.9311  1.0033  2.0523
   45CHL1  H16B 3279   1.311   2.641   7.724 -0.3941  1.5066  1.9545
   45CHL1   C17 3280   1.296   2.842   7.633  0.3489  0.3625  0.0442
   45CHL1   H17 3281   1.403   2.825   7.605  0.5294 -1.7069  1.7102
   45CHL1   C13 3282   1.227   2.879   7.497  0.2666 -0.1315 -0.8254
   45CHL1   C18 3283   1.079   2.932   7.518  0.5233  0.3787  0.1192
   45CHL1  H18A 3284   1.030   2.952   7.420  1.4609  0.6511 -0.3057
   45CHL1  H18B 3285   1.008   2.859   7.562  0.4187 -2.0806 -3.6110
   45CHL1  H18C 3286   1.074   3.026   7.577 -1.9277  0.7448 -0.5396
   45CHL1   C12 3287   1.299   2.980   7.400 -0.0279  0.3502  0.7403
   45CHL1  H12A 3288   1.302   3.084   7.437 -1.1595  1.1997 -1.3725
   45CHL1  H12B 3289   1.409   2.962   7.401  0.0871  1.0068  0.5697
   45CHL1   C11 3290   1.233   2.981   7.254 -0.0812  0.1554 -0.7484
   45CHL1  H11A 3291   1.136   3.034   7.264  0.3553  0.7866  0.4236
   45CHL1  H11B 3292   1.310   3.036   7.194 -0.0382 -0.8085 -1.6055
   45CHL1    C9 3293   1.226   2.839   7.188 -0.1485  0.2578 -0.0351
   45CHL1    H9 3294   1.330   2.803   7.178 -1.1701 -3.0855  0.1043
   45CHL1   C10 3295   1.169   2.848   7.049 -0.1613  0.7969 -0.5972
   45CHL1   C19 3296   1.027   2.924   7.044 -0.5469  0.6272 -1.0554
   45CHL1  H19A 3297   0.959   2.885   7.123 -0.9085  3.9020  0.4340
   45CHL1  H19B 3298   1.039   3.030   7.074  1.7660 -0.1442  1.1286
   45CHL1  H19C 3299   0.989   2.912   6.941 -1.1874  0.1455 -0.7738
   45CHL1    C1 3300   1.266   2.935   6.959 -0.2378  0.5434  0.2118
   45CHL1   H1A 3301   1.244   3.042   6.982  3.5313  0.9692  2.6680
   45CHL1   H1B 3302   1.372   2.919   6.987  0.0820 -0.1752 -1.3044
   45CHL1    C2 3303   1.257   2.909   6.808  0.2902  0.4910 -0.3185
   45CHL1   H2A 3304   1.341   2.966   6.763  1.5178 -0.0804  1.1706
   45CHL1   H2B 3305   1.160   2.949   6.773 -0.1753  0.8087  1.2738
   45CHL1   C20 3306   1.285   2.937   7.747  0.0331 -1.0696 -0.2250
   45CHL1   H20 3307   1.182   2.977   7.755 -0.7875 -3.2149  0.8972
   45CHL1   C21 3308   1.378   3.063   7.721  0.2221 -0.5284 -0.5570
   45CHL1  H21A 3309   1.356   3.145   7.793 -1.0925  0.1811 -1.7073
   45CHL1  H21B 3310   1.370   3.112   7.622  0.9864  0.0718 -0.3291
   45CHL1  H21C 3311   1.481   3.024   7.736 -1.1684 -4.1082  1.0206
   45CHL1   C22 3312   1.331   2.868   7.879  0.0491  0.0672  0.3164
   45CHL1  H22A 3313   1.257   2.787   7.902 -1.3317  1.1191 -0.2695
   45CHL1  H22B 3314   1.425   2.814   7.854 -0.3227  0.3470 -1.8570
   45CHL1   C23 3315   1.349   2.957   8.005 -0.1602  0.1078 -0.1470
   45CHL1  H23A 3316   1.393   2.885   8.077 -2.9452 -3.0191 -1.3160
   45CHL1  H23B 3317   1.419   3.041   7.984  0.9063 -0.0798  2.3702
   45CHL1   C24 3318   1.213   2.985   8.074  0.8994 -0.2945  0.4208
   45CHL1  H24A 3319   1.157   3.042   7.998 -0.3498  0.7728  2.0665
   45CHL1  H24B 3320   1.158   2.890   8.094 -0.4397  0.1263 -1.1450
   45CHL1   C25 3321   1.225   3.069   8.197 -0.4649 -0.4111  0.2191
   45CHL1   H25 3322   1.304   3.032   8.267 -2.1870 -3.1063  0.9031
   45CHL1   C26 3323   1.250   3.212   8.163 -0.1204 -0.5529  0.1751
   45CHL1  H26A 3324   1.162   3.248   8.104 -0.7833 -1.5028  0.5646
   45CHL1  H26B 3325   1.283   3.273   8.249  2.1247 -0.0547 -0.9631
   45CHL1  H26C 3326   1.337   3.230   8.096  0.2614  0.3616  0.8871
   45CHL1   C27 3327   1.096   3.076   8.287 -0.7411  0.8733  0.3831
   45CHL1  H27A 3328   1.106   3.142   8.376  1.4980  0.3907  0.5421
   45CHL1  H27B 3329   1.014   3.119   8.224 -0.8393  0.1325 -0.0023
   45CHL1  H27C 3330   1.069   2.975   8.322 -0.3579  0.4482 -0.5238
   46CHL1    C3 3331   1.358   5.114   6.979 -0.1961 -0.6548 -0.4047
   46CHL1    H3 3332   1.413   5.018   6.976 -0.9004 -1.0572 -2.9915
   46CHL1    O3 3333   1.363   5.173   6.851  0.0454 -0.3760  0.0383
   46CHL1   H3' 3334   1.318   5.254   6.874  2.9296  1.5802 -0.7202
   46CHL1    C4 3335   1.211   5.098   7.018 -0.2756  0.3849 -0.7154
   46CHL1   H4A 3336   1.158   5.196   7.009 -0.9265 -0.0490 -1.8587
   46CHL1   H4B 3337   1.159   5.032   6.946  0.5998 -1.9220  0.6622
   46CHL1    C5 3338   1.191   5.049   7.161  0.6624  0.6155  0.0427
   46CHL1    C6 3339   1.122   4.936   7.182  0.1589 -0.1333 -0.4188
   46CHL1    H6 3340   1.075   4.884   7.097 -0.1927  3.1165 -2.3977
   46CHL1    C7 3341   1.116   4.870   7.314  0.3883 -0.0252 -0.7192
   46CHL1   H7A 3342   1.008   4.849   7.331  0.5607  0.7098  1.5918
   46CHL1   H7B 3343   1.169   4.773   7.323  0.4393  0.1070  0.5319
   46CHL1    C8 3344   1.157   4.959   7.431  0.4677  0.1205  0.2886
   46CHL1    H8 3345   1.073   5.025   7.462  0.3476  0.3901 -0.5964
   46CHL1   C14 3346   1.191   4.875   7.550  0.8678 -0.0954 -0.1457
   46CHL1   H14 3347   1.274   4.807   7.521  0.6897 -0.6562  0.6222
   46CHL1   C15 3348   1.075   4.787   7.594 -0.7033  0.4469  0.4252
   46CHL1  H15A 3349   0.978   4.841   7.596  0.8498  3.4391  2.0660
   46CHL1  H15B 3350   1.061   4.693   7.536  0.1024  1.7375 -2.0414
   46CHL1   C16 3351   1.111   4.747   7.738  0.4197 -0.6657 -0.1172
   46CHL1  H16A 3352   1.021   4.764   7.802  0.2890 -1.7517 -0.0019
   46CHL1  H16B 3353   1.132   4.639   7.750 -1.6297 -1.0334  0.6814
   46CHL1   C17 3354   1.238   4.829   7.766 -0.0858  1.0300  0.1344
   46CHL1   H17 3355   1.329   4.776   7.732 -1.0095  1.6922 -3.8268
   46CHL1   C13 3356   1.226   4.949   7.674 -0.3339  0.6037 -0.2920
   46CHL1   C18 3357   1.105   5.031   7.722  0.0988  0.0484 -0.8838
   46CHL1  H18A 3358   1.067   5.107   7.650 -1.3024  0.3667  0.1639
   46CHL1  H18B 3359   1.023   4.974   7.769 -2.2520  1.9405 -2.4120
   46CHL1  H18C 3360   1.139   5.095   7.806 -1.0373 -1.2617  0.6247
   46CHL1   C12 3361   1.354   5.030   7.647  0.6432  0.5942  0.2826
   46CHL1  H12A 3362   1.353   5.099   7.734 -0.9428  0.1839  0.6164
   46CHL1  H12B 3363   1.444   4.965   7.639 -0.4274 -0.8936 -0.2829
   46CHL1   C11 3364   1.340   5.120   7.520 -0.5202  0.1392 -0.3716
   46CHL1  H11A 3365   1.263   5.193   7.551 -1.8446 -1.7321  0.9915
   46CHL1  H11B 3366   1.443   5.152   7.492  0.0256  0.3374  1.7144
   46CHL1    C9 3367   1.284   5.039   7.397  1.0174  0.6127  0.6146
   46CHL1    H9 3368   1.359   4.960   7.375  0.0111 -0.2747  0.3073
   46CHL1   C10 3369   1.275   5.123   7.264  0.2745 -0.2549  0.7036
   46CHL1   C19 3370   1.197   5.248   7.294  0.6835 -0.3253 -0.2365
   46CHL1  H19A 3371   1.156   5.299   7.204 -0.4133 -3.4714 -1.6767
   46CHL1  H19B 3372   1.115   5.232   7.366 -1.2730  4.3207 -1.0289
   46CHL1  H19C 3373   1.265   5.318   7.347  1.1312  0.5223 -1.8395
   46CHL1    C1 3374   1.419   5.164   7.220 -1.1024  0.6680  0.3271
   46CHL1   H1A 3375   1.467   5.232   7.293  2.2541 -1.5300  0.4160
   46CHL1   H1B 3376   1.478   5.069   7.217  1.1797  1.9647  1.1155
   46CHL1    C2 3377   1.421   5.221   7.077  0.0823  0.4518 -0.2602
   46CHL1   H2A 3378   1.527   5.235   7.047  1.0663 -1.5425  1.9837
   46CHL1   H2B 3379   1.370   5.319   7.085  0.9200  0.7858  1.0667
   46CHL1   C20 3380   1.259   4.848   7.917 -0.1950  0.0527 -0.5214
   46CHL1   H20 3381   1.181   4.919   7.953  1.0520  1.1042  0.2020
   46CHL1   C21 3382   1.397   4.906   7.951  0.4359 -0.4365  0.6109
   46CHL1  H21A 3383   1.386   5.013   7.923  3.1754 -0.5566 -1.4056
   46CHL1  H21B 3384   1.483   4.866   7.892  1.2565 -0.7938  1.9929
   46CHL1  H21C 3385   1.430   4.907   8.057 -2.8041 -0.0222  1.7304
   46CHL1   C22 3386   1.240   4.711   7.988  0.5666  0.0118  0.1735
   46CHL1  H22A 3387   1.142   4.660   7.973  1.3636 -1.6356  0.2588
   46CHL1  H22B 3388   1.305   4.644   7.927 -1.0143  0.3303 -2.0091
   46CHL1   C23 3389   1.266   4.696   8.141  0.3425  0.0329  0.1275
   46CHL1  H23A 3390   1.375   4.710   8.160  0.0572  0.0073  1.8975
   46CHL1  H23B 3391   1.222   4.784   8.191 -1.6360 -1.2822  0.7874
   46CHL1   C24 3392   1.215   4.563   8.198 -0.0453 -0.7299 -0.6103
   46CHL1  H24A 3393   1.105   4.550   8.204 -0.5086  2.1046 -1.5206
   46CHL1  H24B 3394   1.252   4.487   8.125  1.1948  0.0482 -0.8346
   46CHL1   C25 3395   1.280   4.517   8.333 -0.2621  0.4994  0.0172
   46CHL1   H25 3396   1.387   4.506   8.305  0.2556  1.9949  1.3569
   46CHL1   C26 3397   1.260   4.629   8.440 -0.3291  0.3451 -0.4300
   46CHL1  H26A 3398   1.314   4.715   8.396  0.2414  0.4034  0.3704
   46CHL1  H26B 3399   1.150   4.637   8.440 -0.3040  0.8017 -1.1263
   46CHL1  H26C 3400   1.304   4.610   8.540  1.8096  1.1372 -1.1450
   46CHL1   C27 3401   1.233   4.374   8.376  0.2940  0.3921 -0.0885
   46CHL1  H27A 3402   1.127   4.369   8.408 -0.3306 -0.1897 -2.1418
   46CHL1  H27B 3403   1.236   4.319   8.280  1.5245  0.8244 -0.3244
   46CHL1  H27C 3404   1.303   4.332   8.452 -1.2253  1.1836  1.8466
   47CHL1    C3 3405   3.446   4.286   6.824 -0.4681  0.1010 -0.2008
   47CHL1    H3 3406   3.459   4.179   6.797 -0.5159  0.3332 -1.2076
   47CHL1    O3 3407   3.455   4.358   6.705  0.1512  0.0464 -0.3644
   47CHL1   H3' 3408   3.438   4.449   6.732  0.2147  0.0612 -0.3725
   47CHL1    C4 3409   3.313   4.312   6.892  0.2467  0.3966  0.2995
   47CHL1   H4A 3410   3.300   4.421   6.906  0.7851  0.4223  0.6186
   47CHL1   H4B 3411   3.229   4.278   6.827  0.3419  0.1209  0.3186
   47CHL1    C5 3412   3.309   4.240   7.025  0.4404 -0.2580  0.3522
   47CHL1    C6 3413   3.204   4.165   7.058 -0.1232 -0.3043 -0.3829
   47CHL1    H6 3414   3.119   4.159   6.989 -0.4392  1.2097 -0.1668
   47CHL1    C7 3415   3.192   4.104   7.193 -0.4783 -0.6011  0.0813
   47CHL1   H7A 3416   3.087   4.101   7.228 -1.3122  0.6218 -2.1255
   47CHL1   H7B 3417   3.207   3.996   7.176 -0.3535 -0.8371  1.5426
   47CHL1    C8 3418   3.291   4.161   7.295 -0.0361 -0.0330 -0.4643
   47CHL1    H8 3419   3.256   4.263   7.323 -1.1708 -1.0980  2.3938
   47CHL1   C14 3420   3.288   4.070   7.411 -0.5818 -0.2437 -0.7722
   47CHL1   H14 3421   3.316   3.973   7.364  1.1572 -0.7402  1.1418
   47CHL1   C15 3422   3.162   4.016   7.487  0.0260  0.6285 -0.5307
   47CHL1  H15A 3423   3.094   4.092   7.530 -2.7325 -1.9245 -0.0495
   47CHL1  H15B 3424   3.098   3.949   7.425 -0.4388  1.6848 -1.2260
   47CHL1   C16 3425   3.223   3.945   7.616  0.2235  0.7220 -0.0681
   47CHL1  H16A 3426   3.172   3.977   7.709  1.2639 -0.0189  0.7870
   47CHL1  H16B 3427   3.209   3.835   7.614  0.2396  0.7303 -1.8271
   47CHL1   C17 3428   3.373   3.967   7.625 -0.1618  0.0022 -0.0264
   47CHL1   H17 3429   3.416   3.877   7.576  0.8750  0.3908  0.1295
   47CHL1   C13 3430   3.398   4.085   7.519  0.1319 -0.3712  0.1855
   47CHL1   C18 3431   3.367   4.221   7.595 -0.5458  0.4220  0.0563
   47CHL1  H18A 3432   3.384   4.306   7.526  0.8956 -0.5385 -0.7994
   47CHL1  H18B 3433   3.263   4.232   7.634  0.1287  1.7710  1.5728
   47CHL1  H18C 3434   3.437   4.237   7.680  1.3439 -0.2977 -1.2970
   47CHL1   C12 3435   3.538   4.086   7.457 -0.3136  0.2086  0.1046
   47CHL1  H12A 3436   3.606   4.125   7.535  0.0053 -0.2526  0.0602
   47CHL1  H12B 3437   3.577   3.987   7.425  0.3715  1.2266 -2.4947
   47CHL1   C11 3438   3.544   4.181   7.332  0.0525 -0.0843 -0.1143
   47CHL1  H11A 3439   3.554   4.286   7.367 -1.7577  0.0878 -0.0011
   47CHL1  H11B 3440   3.639   4.159   7.279  0.2391  0.1491  0.1210
   47CHL1    C9 3441   3.426   4.163   7.232  0.0601  0.1669 -0.0732
   47CHL1    H9 3442   3.438   4.059   7.195  0.1050  0.6443 -1.4655
   47CHL1   C10 3443   3.437   4.250   7.112 -0.3079 -0.2339  0.1765
   47CHL1   C19 3444   3.430   4.394   7.165  0.1488 -0.5752 -0.5362
   47CHL1  H19A 3445   3.407   4.469   7.086 -1.7998 -0.4178  0.1176
   47CHL1  H19B 3446   3.361   4.413   7.250 -0.4484  0.0002 -1.1421
   47CHL1  H19C 3447   3.527   4.425   7.210 -0.1805  1.6406 -1.2122
   47CHL1    C1 3448   3.566   4.234   7.023  0.0777  0.0752  0.3615
   47CHL1   H1A 3449   3.664   4.247   7.075 -0.3255 -1.1149  1.4655
   47CHL1   H1B 3450   3.560   4.131   6.984 -1.4370  0.2936 -0.0272
   47CHL1    C2 3451   3.566   4.326   6.905 -0.0659 -0.0535  0.1928
   47CHL1   H2A 3452   3.656   4.323   6.840  2.4033  3.4925  3.0368
   47CHL1   H2B 3453   3.565   4.434   6.931  2.1334  0.0890 -0.0974
   47CHL1   C20 3454   3.429   3.972   7.769 -0.0545 -0.4966  0.0194
   47CHL1   H20 3455   3.380   4.056   7.823  0.0582 -0.2392 -0.2752
   47CHL1   C21 3456   3.579   4.005   7.775  0.2386 -0.7903 -0.2227
   47CHL1  H21A 3457   3.594   4.112   7.747 -0.3655 -0.7525 -0.4150
   47CHL1  H21B 3458   3.639   3.948   7.700  0.0102 -0.7842 -0.4117
   47CHL1  H21C 3459   3.614   3.989   7.879 -1.0826  1.4492  0.6614
   47CHL1   C22 3460   3.402   3.848   7.854 -0.0583 -0.1776  0.3719
   47CHL1  H22A 3461   3.448   3.852   7.955  1.2458 -4.4306  0.1508
   47CHL1  H22B 3462   3.293   3.836   7.874  0.0677 -0.2916  1.0304
   47CHL1   C23 3463   3.464   3.716   7.795 -0.7944  0.9388  0.2902
   47CHL1  H23A 3464   3.434   3.702   7.689  0.2977 -2.0523  0.3101
   47CHL1  H23B 3465   3.575   3.718   7.800 -0.7754 -1.1856  1.8310
   47CHL1   C24 3466   3.400   3.600   7.873 -0.4424 -0.2174 -0.6539
   47CHL1  H24A 3467   3.440   3.614   7.976  1.5954  1.9832 -1.6385
   47CHL1  H24B 3468   3.290   3.611   7.880 -0.2102  1.8487  0.9446
   47CHL1   C25 3469   3.464   3.469   7.824 -0.3499  0.3396 -0.6178
   47CHL1   H25 3470   3.572   3.492   7.810 -0.1123  3.1078  3.7768
   47CHL1   C26 3471   3.451   3.364   7.932 -0.1851  0.0159 -0.3716
   47CHL1  H26A 3472   3.503   3.389   8.027 -2.8765 -0.9608  1.5096
   47CHL1  H26B 3473   3.346   3.336   7.956  0.1241  0.4469  1.7170
   47CHL1  H26C 3474   3.499   3.271   7.895 -0.0220  0.5011 -1.3923
   47CHL1   C27 3475   3.402   3.412   7.695 -1.2565  0.7279 -0.0572
   47CHL1  H27A 3476   3.292   3.428   7.685 -1.0809  2.3635  0.4120
   47CHL1  H27B 3477   3.455   3.481   7.626 -0.0771  1.0393  1.1297
   47CHL1  H27C 3478   3.434   3.307   7.674  0.2174  1.6201 -2.7681
   48CHL1    C3 3479   3.729   1.090   6.515 -0.4236  0.3889 -0.4613
   48CHL1    H3 3480   3.638   1.102   6.577 -0.8132 -1.2184 -0.6903
   48CHL1    O3 3481   3.697   1.054   6.381 -0.0869  0.4322 -0.3208
   48CHL1   H3' 3482   3.676   0.962   6.394  0.4601  0.2428 -0.6930
   48CHL1    C4 3483   3.820   1.219   6.520 -0.0533 -0.2162 -0.3189
   48CHL1   H4A 3484   3.912   1.207   6.460  0.6339  1.9060  0.2281
   48CHL1   H4B 3485   3.765   1.292   6.456 -4.5369 -3.6980 -0.9595
   48CHL1    C5 3486   3.852   1.258   6.660 -0.1659 -0.3705 -0.4149
   48CHL1    C6 3487   3.821   1.387   6.700  0.0441  1.1428  0.1701
   48CHL1    H6 3488   3.772   1.459   6.633  1.9387  0.3653 -2.1780
   48CHL1    C7 3489   3.865   1.432   6.837  0.1302 -0.6258 -0.3571
   48CHL1   H7A 3490   3.893   1.539   6.831  0.4800 -0.7049 -0.1466
   48CHL1   H7B 3491   3.778   1.435   6.905  0.2869  0.8976 -0.1980
   48CHL1    C8 3492   3.976   1.339   6.904 -0.0743  0.0358 -0.5538
   48CHL1    H8 3493   4.069   1.369   6.852 -0.3689  2.5063  0.1852
   48CHL1   C14 3494   3.979   1.375   7.054  0.5352 -0.6549  0.7528
   48CHL1   H14 3495   3.882   1.340   7.096 -1.1215  3.1468  0.4793
   48CHL1   C15 3496   3.995   1.525   7.086 -0.5136  0.1019 -0.1803
   48CHL1  H15A 3497   4.067   1.569   7.015  3.4579 -3.1259  1.4801
   48CHL1  H15B 3498   3.891   1.566   7.086 -0.2892  0.6847  0.3365
   48CHL1   C16 3499   4.052   1.521   7.230 -0.1774 -0.3207 -0.7327
   48CHL1  H16A 3500   4.149   1.575   7.233 -0.9554  1.1154 -0.8323
   48CHL1  H16B 3501   3.966   1.559   7.289 -1.5178 -0.6313 -2.3935
   48CHL1   C17 3502   4.068   1.371   7.273 -0.3268  0.1290 -0.0211
   48CHL1   H17 3503   3.976   1.318   7.306  0.0365 -0.5789 -0.1207
   48CHL1   C13 3504   4.089   1.299   7.134  0.3898 -0.4320 -0.1333
   48CHL1   C18 3505   4.233   1.339   7.096 -0.1465 -0.5125  0.6972
   48CHL1  H18A 3506   4.301   1.256   7.124 -1.2025 -1.2313  1.1914
   48CHL1  H18B 3507   4.231   1.341   6.985 -2.0345  0.9629  0.6864
   48CHL1  H18C 3508   4.264   1.436   7.140 -1.3626 -0.4417  1.4396
   48CHL1   C12 3509   4.062   1.145   7.120  0.2910  0.7321 -0.2272
   48CHL1  H12A 3510   4.148   1.093   7.167  0.0673  0.1856 -0.4049
   48CHL1  H12B 3511   3.971   1.116   7.177  2.3459 -1.1621  2.3397
   48CHL1   C11 3512   4.059   1.106   6.971 -0.4132 -0.1124 -0.2577
   48CHL1  H11A 3513   4.160   1.131   6.932 -0.6070  0.7507 -0.2102
   48CHL1  H11B 3514   4.039   0.997   6.958 -1.5278  0.2862 -2.4482
   48CHL1    C9 3515   3.951   1.189   6.893 -0.7611 -0.2345 -0.3875
   48CHL1    H9 3516   3.853   1.173   6.944  0.1111 -0.7877  1.1677
   48CHL1   C10 3517   3.923   1.145   6.743  0.1183  0.5562  0.5873
   48CHL1   C19 3518   4.060   1.115   6.683 -0.4811  0.0249  0.4470
   48CHL1  H19A 3519   4.047   1.096   6.575 -3.9132 -1.6749  0.9991
   48CHL1  H19B 3520   4.126   1.203   6.698 -1.2016  0.6256  0.1478
   48CHL1  H19C 3521   4.117   1.026   6.717  0.7648 -0.6353 -3.0167
   48CHL1    C1 3522   3.850   1.014   6.732 -0.6423 -0.0506 -0.3954
   48CHL1   H1A 3523   3.909   0.931   6.777 -0.1492  1.6303  2.2468
   48CHL1   H1B 3524   3.757   1.018   6.791 -0.0036 -1.1396  0.7460
   48CHL1    C2 3525   3.813   0.975   6.585 -0.7763 -0.8056  0.3555
   48CHL1   H2A 3526   3.752   0.882   6.580 -0.2361 -1.1286 -0.4677
   48CHL1   H2B 3527   3.904   0.962   6.523 -0.0139  1.1334  0.9860
   48CHL1   C20 3528   4.173   1.351   7.385 -0.5350 -0.7709 -1.0400
   48CHL1   H20 3529   4.270   1.396   7.355 -0.4742 -0.0299  0.1711
   48CHL1   C21 3530   4.191   1.204   7.415 -0.2106  0.1766 -0.1391
   48CHL1  H21A 3531   4.247   1.164   7.328 -0.0958  0.1705 -0.0636
   48CHL1  H21B 3532   4.087   1.167   7.423  0.2217 -1.3182 -1.0763
   48CHL1  H21C 3533   4.256   1.179   7.502 -1.7295 -0.3944  0.8634
   48CHL1   C22 3534   4.124   1.429   7.516 -0.0034  0.7171  0.8594
   48CHL1  H22A 3535   4.114   1.534   7.483  1.3564  0.1308 -1.7605
   48CHL1  H22B 3536   4.030   1.386   7.557  0.8303  0.3952  2.5458
   48CHL1   C23 3537   4.229   1.423   7.624 -0.4904 -0.0945 -0.0579
   48CHL1  H23A 3538   4.244   1.319   7.659  0.8983 -0.2605 -1.0561
   48CHL1  H23B 3539   4.325   1.458   7.581 -1.0763 -1.0364 -2.3278
   48CHL1   C24 3540   4.195   1.520   7.735  0.0863  0.1237 -0.2748
   48CHL1  H24A 3541   4.256   1.610   7.714 -1.6480  1.4777  0.2901
   48CHL1  H24B 3542   4.086   1.540   7.740  0.1169  0.1381  0.4038
   48CHL1   C25 3543   4.236   1.475   7.875  0.5145 -1.1252  0.4836
   48CHL1   H25 3544   4.190   1.376   7.894 -0.9318 -0.4621  0.6581
   48CHL1   C26 3545   4.388   1.482   7.897 -0.4450  0.4470  0.2895
   48CHL1  H26A 3546   4.423   1.587   7.889  1.9822  0.2206  4.9015
   48CHL1  H26B 3547   4.408   1.455   8.003 -2.0805 -1.5920  0.1440
   48CHL1  H26C 3548   4.441   1.412   7.829 -2.8011 -0.5167 -0.6618
   48CHL1   C27 3549   4.169   1.573   7.975 -0.1003  0.0172  0.0483
   48CHL1  H27A 3550   4.202   1.675   7.947  3.5840 -1.1253 -0.2340
   48CHL1  H27B 3551   4.060   1.564   7.955 -0.6266  0.5412  2.3749
   48CHL1  H27C 3552   4.199   1.552   8.080  0.4371  2.0143  0.3309
   49CHL1    C3 3553   1.354   1.242   6.883  0.2717  0.3530 -0.2579
   49CHL1    H3 3554   1.419   1.322   6.924 -0.7367  0.8042  0.5120
   49CHL1    O3 3555   1.346   1.254   6.740 -0.4688 -0.4639 -0.0448
   49CHL1   H3' 3556   1.255   1.280   6.728 -0.3588  0.0698  0.2699
   49CHL1    C4 3557   1.405   1.103   6.916  0.3152  0.0579 -0.0816
   49CHL1   H4A 3558   1.335   1.020   6.889 -0.1920  0.4182  0.0961
   49CHL1   H4B 3559   1.489   1.087   6.846 -0.2786  1.6984 -1.2329
   49CHL1    C5 3560   1.437   1.084   7.056  0.8000 -0.2483  0.0318
   49CHL1    C6 3561   1.554   1.050   7.098 -0.5089  0.2931  0.1567
   49CHL1    H6 3562   1.640   1.045   7.030  0.1210 -2.3830  1.0244
   49CHL1    C7 3563   1.581   1.022   7.243  0.3914 -0.0362 -0.0291
   49CHL1   H7A 3564   1.633   0.927   7.266  1.3193  0.7263  1.1222
   49CHL1   H7B 3565   1.649   1.105   7.274  1.1748 -0.0722 -1.5366
   49CHL1    C8 3566   1.455   1.032   7.332  0.6150  0.2732  0.1049
   49CHL1    H8 3567   1.408   0.932   7.324 -0.5770  0.8874 -0.7836
   49CHL1   C14 3568   1.489   1.065   7.470 -0.0001  0.0556 -0.1619
   49CHL1   H14 3569   1.524   1.170   7.471 -1.7123  0.6784 -1.4181
   49CHL1   C15 3570   1.604   0.992   7.535  0.9795 -1.6127  0.7039
   49CHL1  H15A 3571   1.602   0.884   7.507  0.0412 -1.6823  1.0126
   49CHL1  H15B 3572   1.701   1.040   7.510 -0.6318  1.7706  0.4452
   49CHL1   C16 3573   1.587   0.997   7.684  0.5226 -0.0823  0.3964
   49CHL1  H16A 3574   1.576   0.893   7.721  0.6139 -0.0057  0.6390
   49CHL1  H16B 3575   1.673   1.053   7.727  1.7981 -1.8658  0.2569
   49CHL1   C17 3576   1.451   1.068   7.704 -0.1691 -0.8444 -0.2730
   49CHL1   H17 3577   1.481   1.175   7.704  1.3845 -1.2492 -1.3908
   49CHL1   C13 3578   1.369   1.045   7.573  0.2501 -0.0747  0.5753
   49CHL1   C18 3579   1.311   0.908   7.575 -0.9020  0.7550 -0.0688
   49CHL1  H18A 3580   1.224   0.918   7.644 -1.5888  0.6320 -0.9000
   49CHL1  H18B 3581   1.271   0.872   7.478  1.2621  0.1478 -0.7818
   49CHL1  H18C 3582   1.380   0.825   7.599  1.1987  2.8837  1.8458
   49CHL1   C12 3583   1.263   1.152   7.534  0.2865 -0.6309  0.2205
   49CHL1  H12A 3584   1.162   1.154   7.580 -0.2794  0.0536 -0.9991
   49CHL1  H12B 3585   1.305   1.255   7.531  0.7234 -0.8176 -0.4342
   49CHL1   C11 3586   1.232   1.136   7.385  0.8576 -0.1700  0.1297
   49CHL1  H11A 3587   1.171   1.043   7.380 -0.2561  0.5146  0.6190
   49CHL1  H11B 3588   1.163   1.219   7.357  0.7506 -0.6015 -0.9535
   49CHL1    C9 3589   1.350   1.133   7.289 -0.2599  0.5393  0.6155
   49CHL1    H9 3590   1.394   1.233   7.304  1.6410  0.0124 -1.0689
   49CHL1   C10 3591   1.309   1.114   7.145  0.4548 -0.5655 -0.2470
   49CHL1   C19 3592   1.210   0.997   7.130  0.4248  0.2162 -0.4333
   49CHL1  H19A 3593   1.163   0.980   7.030 -1.1136 -0.6830  0.3958
   49CHL1  H19B 3594   1.249   0.901   7.169  0.3204 -1.3197 -3.7700
   49CHL1  H19C 3595   1.123   1.028   7.191  2.1900  2.3475  1.1291
   49CHL1    C1 3596   1.249   1.242   7.098  0.1229 -0.4706 -0.2969
   49CHL1   H1A 3597   1.158   1.257   7.160  0.8433 -1.2546  1.0018
   49CHL1   H1B 3598   1.309   1.334   7.117 -0.9315  0.6030 -1.9643
   49CHL1    C2 3599   1.218   1.256   6.949 -0.6941  0.1967  0.1447
   49CHL1   H2A 3600   1.180   1.357   6.924  2.0177  1.4133  0.5972
   49CHL1   H2B 3601   1.146   1.180   6.913 -1.5551  1.2937 -0.5054
   49CHL1   C20 3602   1.387   1.036   7.842  0.7119  0.1443 -0.8861
   49CHL1   H20 3603   1.353   0.930   7.833 -1.0944  0.7534 -1.7391
   49CHL1   C21 3604   1.261   1.126   7.870 -0.6746  0.4479 -0.0694
   49CHL1  H21A 3605   1.209   1.097   7.963  0.6873  0.6546  0.7805
   49CHL1  H21B 3606   1.182   1.123   7.792 -0.9637  2.9807  0.0433
   49CHL1  H21C 3607   1.300   1.229   7.884 -0.4468  0.1832  1.3916
   49CHL1   C22 3608   1.482   1.054   7.961 -0.3576  0.3568 -0.2121
   49CHL1  H22A 3609   1.571   0.992   7.934  1.3786  2.0840  1.2706
   49CHL1  H22B 3610   1.527   1.155   7.966 -0.6617  0.7452 -3.2266
   49CHL1   C23 3611   1.429   1.017   8.101  0.6137  0.0341  0.1669
   49CHL1  H23A 3612   1.381   1.104   8.151 -0.7471 -0.1777 -0.7113
   49CHL1  H23B 3613   1.354   0.935   8.095  3.2166 -2.4521 -1.1669
   49CHL1   C24 3614   1.548   0.982   8.198  0.2009  0.0569 -0.4326
   49CHL1  H24A 3615   1.613   0.901   8.160  1.1913  1.2719 -1.4029
   49CHL1  H24B 3616   1.625   1.062   8.203  0.5289 -0.3058  0.7368
   49CHL1   C25 3617   1.497   0.947   8.335 -0.3247  0.6364  0.5048
   49CHL1   H25 3618   1.583   0.932   8.404  1.3244 -0.1343 -1.5936
   49CHL1   C26 3619   1.429   1.064   8.410  0.7102 -0.5794  0.5262
   49CHL1  H26A 3620   1.439   1.055   8.521 -2.0577  1.1341  1.0223
   49CHL1  H26B 3621   1.464   1.163   8.377 -0.2712 -1.3166 -3.2127
   49CHL1  H26C 3622   1.318   1.065   8.397  0.5897  0.4634  1.4964
   49CHL1   C27 3623   1.403   0.817   8.334 -0.7930  0.0714 -0.4834
   49CHL1  H27A 3624   1.410   0.774   8.436  0.0491 -0.7418 -0.8735
   49CHL1  H27B 3625   1.304   0.861   8.306 -1.3947 -0.6595  0.4662
   49CHL1  H27C 3626   1.433   0.742   8.258  0.2525 -1.3218  1.2573
   50CHL1    C3 3627   1.760   1.620   6.841  0.1727 -0.1029  0.3313
   50CHL1    H3 3628   1.806   1.721   6.847 -1.5063  0.8303 -1.2530
   50CHL1    O3 3629   1.722   1.591   6.709 -0.2879 -0.3902 -0.4044
   50CHL1   H3' 3630   1.692   1.500   6.701 -0.3592 -0.5954  1.6320
   50CHL1    C4 3631   1.871   1.524   6.887 -0.5097  0.2032 -0.1336
   50CHL1   H4A 3632   1.832   1.423   6.864 -1.8183  0.7172 -0.2529
   50CHL1   H4B 3633   1.968   1.538   6.834  0.7531  2.1274  2.4825
   50CHL1    C5 3634   1.887   1.540   7.039  0.2746  0.5962 -0.7928
   50CHL1    C6 3635   2.001   1.585   7.095  0.7688 -0.9465 -0.8797
   50CHL1    H6 3636   2.076   1.617   7.021  0.0749 -1.4235 -1.8003
   50CHL1    C7 3637   2.035   1.597   7.241  0.4721  0.7634 -0.4625
   50CHL1   H7A 3638   2.126   1.534   7.258 -1.2106 -1.4780  0.7765
   50CHL1   H7B 3639   2.044   1.699   7.283  0.5165  0.9874 -1.0021
   50CHL1    C8 3640   1.928   1.518   7.321 -0.5888 -0.2027  0.6035
   50CHL1    H8 3641   1.953   1.410   7.319  0.8789  0.0909  1.8470
   50CHL1   C14 3642   1.933   1.545   7.473 -1.3510 -0.3417 -0.0323
   50CHL1   H14 3643   1.904   1.651   7.485 -0.4210 -0.0470 -0.3158
   50CHL1   C15 3644   2.083   1.543   7.542  0.1747  0.0552  0.7583
   50CHL1  H15A 3645   2.145   1.461   7.501 -0.9662 -0.7580  0.6193
   50CHL1  H15B 3646   2.142   1.637   7.533  3.0389 -1.8294 -2.0403
   50CHL1   C16 3647   2.039   1.522   7.685  0.1455 -0.2571 -0.2063
   50CHL1  H16A 3648   2.094   1.430   7.716 -1.0731 -1.3932 -1.2584
   50CHL1  H16B 3649   2.072   1.607   7.749 -1.3292  0.1734  0.0422
   50CHL1   C17 3650   1.883   1.497   7.696 -0.6836  0.4067 -0.4614
   50CHL1   H17 3651   1.849   1.601   7.717  2.2006  1.0027  1.8721
   50CHL1   C13 3652   1.844   1.450   7.559  0.4324  0.1821  0.3333
   50CHL1   C18 3653   1.885   1.295   7.532  0.7247 -0.1300  0.0378
   50CHL1  H18A 3654   1.990   1.279   7.564  0.9056 -1.6282 -1.1738
   50CHL1  H18B 3655   1.832   1.234   7.608 -0.2749  0.9250  0.2176
   50CHL1  H18C 3656   1.863   1.256   7.430  0.3942 -0.1250  0.1057
   50CHL1   C12 3657   1.693   1.483   7.520  0.5948  0.0085  0.4514
   50CHL1  H12A 3658   1.625   1.410   7.568  0.2079  0.2797  0.3127
   50CHL1  H12B 3659   1.672   1.589   7.548  0.5905  0.9367 -2.6684
   50CHL1   C11 3660   1.675   1.462   7.370  0.2451  0.6462  0.2260
   50CHL1  H11A 3661   1.670   1.352   7.357 -0.5156  0.7931 -0.9492
   50CHL1  H11B 3662   1.581   1.510   7.336  1.0261  0.8269 -1.8197
   50CHL1    C9 3663   1.782   1.539   7.281 -0.4254 -0.3829  0.1486
   50CHL1    H9 3664   1.758   1.646   7.302 -0.3956 -0.3561  0.0452
   50CHL1   C10 3665   1.760   1.520   7.126 -1.0787 -0.6449  0.5339
   50CHL1   C19 3666   1.707   1.379   7.098  0.2854 -0.0950  0.4399
   50CHL1  H19A 3667   1.683   1.357   6.992  0.4730 -1.3113  0.6424
   50CHL1  H19B 3668   1.781   1.302   7.128  1.8620  0.8158 -0.9362
   50CHL1  H19C 3669   1.610   1.359   7.149 -0.1194 -1.1576 -0.6968
   50CHL1    C1 3670   1.661   1.621   7.078 -0.2182  0.1231 -0.0927
   50CHL1   H1A 3671   1.560   1.615   7.124 -0.4394 -1.4258 -0.7045
   50CHL1   H1B 3672   1.697   1.725   7.094 -1.2326  0.7687 -1.7683
   50CHL1    C2 3673   1.633   1.618   6.925  0.3622 -0.2544 -1.4367
   50CHL1   H2A 3674   1.561   1.699   6.903  0.1347  0.0991  0.4761
   50CHL1   H2B 3675   1.577   1.527   6.892 -1.4271  0.6990 -1.1283
   50CHL1   C20 3676   1.848   1.409   7.820  0.4948 -0.0908  0.2528
   50CHL1   H20 3677   1.906   1.314   7.816 -0.5541 -0.8621  2.0628
   50CHL1   C21 3678   1.700   1.358   7.824  0.9777 -0.0351 -0.2994
   50CHL1  H21A 3679   1.623   1.438   7.829 -0.3664 -1.3853  2.4374
   50CHL1  H21B 3680   1.680   1.294   7.913 -0.2979 -1.7580 -1.7547
   50CHL1  H21C 3681   1.688   1.287   7.739 -0.5856 -3.4028  2.4635
   50CHL1   C22 3682   1.902   1.455   7.960 -0.3715  0.1005  0.6317
   50CHL1  H22A 3683   1.892   1.369   8.029 -1.8491 -1.2154 -1.1439
   50CHL1  H22B 3684   2.006   1.488   7.938 -1.7856  2.6092 -3.6967
   50CHL1   C23 3685   1.823   1.577   8.007 -0.2176 -0.6397 -0.0231
   50CHL1  H23A 3686   1.803   1.647   7.923 -0.6719 -0.7299  0.0087
   50CHL1  H23B 3687   1.723   1.543   8.039 -0.6403 -0.0694 -0.7249
   50CHL1   C24 3688   1.896   1.652   8.126  0.5274 -0.6463  0.1485
   50CHL1  H24A 3689   1.898   1.585   8.215 -1.4087 -0.6759  0.1960
   50CHL1  H24B 3690   1.997   1.664   8.081  0.5234 -1.8626 -0.2044
   50CHL1   C25 3691   1.851   1.797   8.155 -0.1497 -0.0685 -0.3527
   50CHL1   H25 3692   1.839   1.850   8.058 -0.6233  1.7457  0.6411
   50CHL1   C26 3693   1.711   1.794   8.224  0.0901 -0.8047 -0.0089
   50CHL1  H26A 3694   1.671   1.898   8.224  0.1412 -0.7744  1.2220
   50CHL1  H26B 3695   1.656   1.735   8.147  1.1810  0.4612 -1.8598
   50CHL1  H26C 3696   1.702   1.748   8.324 -1.7459  0.5391  0.5076
   50CHL1   C27 3697   1.953   1.877   8.239 -0.5442  0.6271  0.2609
   50CHL1  H27A 3698   1.975   1.828   8.336  2.9740 -1.2434 -1.3130
   50CHL1  H27B 3699   2.048   1.870   8.182 -0.6793 -2.9757  0.2599
   50CHL1  H27C 3700   1.923   1.984   8.248 -0.8485  0.5011  0.7395
   51CHL1    C3 3701   4.983   0.735   6.696 -0.0453  0.0002 -0.6281
   51CHL1    H3 3702   5.034   0.828   6.730  1.7734 -1.0316 -0.4048
   51CHL1    O3 3703   5.011   0.732   6.557 -0.3664 -0.4938  0.1673
   51CHL1   H3' 3704   4.991   0.638   6.549  0.3139 -0.6792  0.6290
   51CHL1    C4 3705   5.041   0.617   6.772  0.8472 -0.1204  0.4040
   51CHL1   H4A 3706   4.984   0.531   6.732 -0.9012  1.4266 -0.5777
   51CHL1   H4B 3707   5.148   0.608   6.742  0.9529  0.2542  0.6612
   51CHL1    C5 3708   5.022   0.629   6.914 -0.3474  0.2964  0.1904
   51CHL1    C6 3709   5.127   0.630   7.003  0.0049  0.3047  0.6473
   51CHL1    H6 3710   5.228   0.619   6.961 -0.7193 -0.5274 -0.9861
   51CHL1    C7 3711   5.120   0.636   7.154 -0.4502  0.0386  0.0707
   51CHL1   H7A 3712   5.181   0.551   7.192  0.1945  0.4840  0.0430
   51CHL1   H7B 3713   5.160   0.734   7.188  1.7040 -1.0271  0.7875
   51CHL1    C8 3714   4.975   0.610   7.199  0.2735 -0.4686 -0.5430
   51CHL1    H8 3715   4.960   0.501   7.179  0.6219 -0.4252 -1.0770
   51CHL1   C14 3716   4.959   0.643   7.342  0.5273 -0.3953 -0.2163
   51CHL1   H14 3717   4.974   0.753   7.349 -1.2574 -0.1771  0.9461
   51CHL1   C15 3718   5.055   0.586   7.445 -0.1270 -0.3056 -1.1965
   51CHL1  H15A 3719   5.085   0.480   7.443  0.1388 -0.2340 -0.9756
   51CHL1  H15B 3720   5.149   0.645   7.452 -0.6895  0.9784 -3.3924
   51CHL1   C16 3721   4.973   0.609   7.588 -0.6002 -0.3257  0.3247
   51CHL1  H16A 3722   4.981   0.509   7.636 -1.7600 -0.7340 -0.2781
   51CHL1  H16B 3723   5.033   0.678   7.651 -2.2878  0.4663  1.1167
   51CHL1   C17 3724   4.840   0.668   7.547  0.5602 -0.2509 -0.5351
   51CHL1   H17 3725   4.841   0.778   7.537 -1.2090 -0.1120  0.5547
   51CHL1   C13 3726   4.812   0.636   7.394  0.2470 -0.2755  0.0833
   51CHL1   C18 3727   4.752   0.490   7.399 -0.5871  0.6693 -0.3618
   51CHL1  H18A 3728   4.823   0.418   7.445 -1.1890  0.2064 -0.1487
   51CHL1  H18B 3729   4.657   0.492   7.456 -0.8805  2.5011 -0.8689
   51CHL1  H18C 3730   4.744   0.446   7.297 -1.0485  0.2808 -0.1622
   51CHL1   C12 3731   4.717   0.737   7.318 -0.0322  0.2839 -0.0781
   51CHL1  H12A 3732   4.617   0.741   7.364  0.8534 -0.1121  1.9981
   51CHL1  H12B 3733   4.764   0.837   7.334  0.3873  0.1878 -0.6558
   51CHL1   C11 3734   4.723   0.693   7.168  0.5697 -0.6342  0.0458
   51CHL1  H11A 3735   4.687   0.589   7.154 -1.6345  0.1653 -0.5872
   51CHL1  H11B 3736   4.662   0.767   7.112 -0.2887 -0.6756  0.9096
   51CHL1    C9 3737   4.865   0.691   7.108 -0.5280  0.4883 -0.1717
   51CHL1    H9 3738   4.896   0.797   7.118 -0.4319  0.3654  0.9942
   51CHL1   C10 3739   4.871   0.656   6.957  0.4942 -0.2695 -0.2243
   51CHL1   C19 3740   4.785   0.529   6.927  0.2052  0.0649 -0.6782
   51CHL1  H19A 3741   4.815   0.477   6.833 -1.0240 -0.9734 -0.5149
   51CHL1  H19B 3742   4.814   0.449   6.999 -1.1970 -1.2724 -1.5422
   51CHL1  H19C 3743   4.678   0.554   6.937  0.4382  0.1232  3.2584
   51CHL1    C1 3744   4.808   0.771   6.872  0.8175 -0.2877  0.1453
   51CHL1   H1A 3745   4.697   0.777   6.874  0.8761  1.3821 -0.2077
   51CHL1   H1B 3746   4.846   0.869   6.907  0.5002  0.5191 -1.6261
   51CHL1    C2 3747   4.833   0.757   6.724  0.0685 -0.0009  0.0890
   51CHL1   H2A 3748   4.807   0.848   6.666 -0.7338 -0.6176 -0.5368
   51CHL1   H2B 3749   4.785   0.665   6.685  2.3399 -1.3326  0.2583
   51CHL1   C20 3750   4.745   0.632   7.659 -0.2887  0.6528 -0.4271
   51CHL1   H20 3751   4.738   0.521   7.662  2.3281  0.4444  0.8664
   51CHL1   C21 3752   4.605   0.693   7.631  0.3630  0.0115  0.3946
   51CHL1  H21A 3753   4.620   0.796   7.593 -0.4018  0.1404  0.4247
   51CHL1  H21B 3754   4.527   0.696   7.710  0.4314  0.8425  0.4307
   51CHL1  H21C 3755   4.558   0.630   7.552 -1.9487  1.7973  0.2377
   51CHL1   C22 3756   4.787   0.670   7.800 -0.2542  0.2139  0.3562
   51CHL1  H22A 3757   4.892   0.636   7.815 -0.5973 -0.4945  1.2021
   51CHL1  H22B 3758   4.789   0.781   7.802  0.8801  0.4172 -3.4525
   51CHL1   C23 3759   4.703   0.626   7.923 -0.0047  0.2515  0.5450
   51CHL1  H23A 3760   4.597   0.658   7.911 -0.0626 -0.4211 -0.9988
   51CHL1  H23B 3761   4.701   0.516   7.937  0.5442  0.2310  0.4867
   51CHL1   C24 3762   4.758   0.678   8.058  0.1336 -0.3563  0.2260
   51CHL1  H24A 3763   4.861   0.639   8.066  0.5673  0.3521 -1.4429
   51CHL1  H24B 3764   4.766   0.789   8.050  0.9065 -0.4150  0.1259
   51CHL1   C25 3765   4.679   0.637   8.186  0.3672  0.3833  0.4129
   51CHL1   H25 3766   4.577   0.677   8.167 -0.1581 -1.7207 -1.5325
   51CHL1   C26 3767   4.682   0.487   8.205  0.0811  0.5773  0.3675
   51CHL1  H26A 3768   4.783   0.446   8.182 -0.0766 -0.2669  1.1159
   51CHL1  H26B 3769   4.664   0.459   8.311 -1.0228 -1.4836 -0.2916
   51CHL1  H26C 3770   4.601   0.425   8.159 -0.1803 -0.3258  1.9608
   51CHL1   C27 3771   4.739   0.710   8.306 -0.3302 -0.1960 -0.1502
   51CHL1  H27A 3772   4.741   0.820   8.290  0.0881  0.2158  2.3722
   51CHL1  H27B 3773   4.678   0.680   8.394  0.9160 -0.0929  0.7739
   51CHL1  H27C 3774   4.846   0.685   8.321  0.0703  0.8660 -1.0969
   52CHL1    C3 3775   6.081   1.839   6.284  0.0593  0.6076  0.3334
   52CHL1    H3 3776   6.178   1.887   6.307  0.6113 -0.7779  1.0706
   52CHL1    O3 3777   6.039   1.881   6.154  0.5395  0.5297 -0.0210
   52CHL1   H3' 3778   6.091   1.839   6.086  0.5056  0.7295 -0.1687
   52CHL1    C4 3779   6.071   1.685   6.308 -0.1273 -0.3788 -0.1833
   52CHL1   H4A 3780   5.968   1.652   6.280 -0.4594  0.2570  0.2775
   52CHL1   H4B 3781   6.134   1.625   6.239 -1.8340 -1.0475 -1.2465
   52CHL1    C5 3782   6.080   1.629   6.449  0.1032 -0.8463  0.7011
   52CHL1    C6 3783   6.151   1.522   6.476 -0.5803 -0.1054 -0.4249
   52CHL1    H6 3784   6.207   1.472   6.395  0.4214  3.0552 -1.8544
   52CHL1    C7 3785   6.178   1.471   6.615 -0.9232 -0.2447 -0.2622
   52CHL1   H7A 3786   6.171   1.360   6.614 -1.3294 -0.2262  0.1861
   52CHL1   H7B 3787   6.285   1.492   6.635 -1.2554  1.5291 -0.2433
   52CHL1    C8 3788   6.094   1.536   6.720  0.2017  0.1110  0.3606
   52CHL1    H8 3789   5.995   1.486   6.726 -0.6479  1.7711  1.2091
   52CHL1   C14 3790   6.167   1.523   6.858  0.4038  0.5056  0.3607
   52CHL1   H14 3791   6.259   1.585   6.861 -0.2636  2.1162 -4.2159
   52CHL1   C15 3792   6.219   1.387   6.907  0.3995 -0.3632  0.3157
   52CHL1  H15A 3793   6.151   1.303   6.884  1.7357 -1.6710  0.9892
   52CHL1  H15B 3794   6.307   1.341   6.857 -0.5802 -0.4055 -1.4225
   52CHL1   C16 3795   6.235   1.399   7.056  0.2442 -0.0615 -0.1939
   52CHL1  H16A 3796   6.182   1.312   7.101 -0.7143  0.5723 -0.0546
   52CHL1  H16B 3797   6.343   1.385   7.076  0.0953 -2.0372 -0.5726
   52CHL1   C17 3798   6.181   1.541   7.097 -0.3940 -0.0318  0.0927
   52CHL1   H17 3799   6.272   1.605   7.091 -0.7838  0.6953  1.4642
   52CHL1   C13 3800   6.086   1.575   6.981  0.5764 -0.2581 -0.1543
   52CHL1   C18 3801   5.952   1.497   6.994  0.1317 -0.6111 -0.0166
   52CHL1  H18A 3802   5.954   1.391   7.027 -0.1093 -0.4527  0.5190
   52CHL1  H18B 3803   5.880   1.537   7.068  0.3738 -2.9757  1.5827
   52CHL1  H18C 3804   5.902   1.506   6.895  3.7531 -0.2439 -2.0050
   52CHL1   C12 3805   6.062   1.723   6.952  0.6600 -0.6581 -0.7024
   52CHL1  H12A 3806   5.991   1.760   7.029  2.9410  0.9869  0.7386
   52CHL1  H12B 3807   6.159   1.778   6.956 -0.5498  1.5760 -0.0928
   52CHL1   C11 3808   5.995   1.755   6.818 -0.6299 -0.5837  0.0572
   52CHL1  H11A 3809   5.896   1.705   6.820 -0.2845 -1.3406 -0.9187
   52CHL1  H11B 3810   5.985   1.865   6.803  0.5231 -0.5702 -0.8114
   52CHL1    C9 3811   6.073   1.688   6.695  0.1450  0.2423  0.1733
   52CHL1    H9 3812   6.175   1.730   6.710 -0.7919  2.5471  0.6027
   52CHL1   C10 3813   6.013   1.720   6.554  0.1527  0.1173 -0.4623
   52CHL1   C19 3814   5.855   1.689   6.562 -0.4148 -0.2461 -0.0377
   52CHL1  H19A 3815   5.807   1.744   6.646 -1.7661 -0.7362 -0.4571
   52CHL1  H19B 3816   5.802   1.732   6.474 -0.9501 -0.8825 -0.0289
   52CHL1  H19C 3817   5.838   1.580   6.557  0.3362 -0.3881  0.3504
   52CHL1    C1 3818   6.022   1.873   6.529  0.0067  0.1542  0.3168
   52CHL1   H1A 3819   5.960   1.931   6.600 -0.9310  1.1166 -1.2298
   52CHL1   H1B 3820   6.127   1.907   6.541  0.1620  0.2167 -1.0568
   52CHL1    C2 3821   5.980   1.913   6.382 -0.1205  0.3749  0.0433
   52CHL1   H2A 3822   5.991   2.024   6.382 -0.3471  0.4022 -0.9318
   52CHL1   H2B 3823   5.873   1.889   6.365 -0.2717  1.7652 -1.1399
   52CHL1   C20 3824   6.120   1.538   7.242  0.0135 -0.0146  0.5338
   52CHL1   H20 3825   6.031   1.472   7.249  0.3207 -0.5356 -0.2436
   52CHL1   C21 3826   6.064   1.670   7.287 -0.2186 -0.0957  0.4569
   52CHL1  H21A 3827   5.980   1.708   7.226  0.1614  0.5439  0.3163
   52CHL1  H21B 3828   6.143   1.746   7.306 -0.3261 -0.6239  3.4363
   52CHL1  H21C 3829   6.015   1.659   7.386 -2.1123  2.3339 -0.1066
   52CHL1   C22 3830   6.221   1.491   7.349 -0.4693 -0.3088 -0.0797
   52CHL1  H22A 3831   6.275   1.398   7.321  0.8483  0.7828 -1.3549
   52CHL1  H22B 3832   6.294   1.573   7.368 -0.4691 -0.1737 -0.6296
   52CHL1   C23 3833   6.148   1.433   7.477 -0.2026 -0.2310  0.4266
   52CHL1  H23A 3834   6.108   1.525   7.524  0.2437  0.2815 -0.1814
   52CHL1  H23B 3835   6.057   1.371   7.463 -0.8154  0.4103  1.4170
   52CHL1   C24 3836   6.240   1.388   7.588 -0.2221  0.2936  0.4582
   52CHL1  H24A 3837   6.323   1.327   7.548 -0.3902  0.0939  0.4110
   52CHL1  H24B 3838   6.298   1.473   7.630  0.4130 -0.5103  1.2576
   52CHL1   C25 3839   6.172   1.308   7.710 -0.0904  0.1344 -0.0492
   52CHL1   H25 3840   6.103   1.375   7.765  0.8614  0.8377  0.3267
   52CHL1   C26 3841   6.104   1.182   7.670  0.3210  0.2979 -0.3770
   52CHL1  H26A 3842   6.056   1.134   7.758 -1.8881  0.8338 -1.2248
   52CHL1  H26B 3843   6.028   1.209   7.594 -0.3001  0.3360  0.2450
   52CHL1  H26C 3844   6.169   1.104   7.627  0.3699 -1.5899  2.7674
   52CHL1   C27 3845   6.277   1.285   7.819 -0.1496  0.0801 -0.4908
   52CHL1  H27A 3846   6.324   1.378   7.857  2.4751 -0.8158 -1.3525
   52CHL1  H27B 3847   6.234   1.219   7.898 -0.1211 -0.9546 -1.3241
   52CHL1  H27C 3848   6.359   1.217   7.788  2.3257  2.1795  1.0823
   53CHL1    C3 3849   0.621   5.094   7.044 -0.0179  0.3655 -0.8773
   53CHL1    H3 3850   0.576   5.196   7.036 -0.5693  0.1593 -0.4549
   53CHL1    O3 3851   0.642   5.041   6.914 -0.2802 -0.2745 -0.5709
   53CHL1   H3' 3852   0.709   5.096   6.874  0.4689 -1.2789 -0.7484
   53CHL1    C4 3853   0.765   5.094   7.113  0.0340  0.6267  0.3232
   53CHL1   H4A 3854   0.807   4.991   7.118 -0.0981  0.6033  1.1486
   53CHL1   H4B 3855   0.829   5.156   7.047  0.7694 -1.9040 -1.4977
   53CHL1    C5 3856   0.751   5.158   7.246  0.0042  0.2748 -0.1360
   53CHL1    C6 3857   0.821   5.263   7.283  0.2242  0.0692 -0.7393
   53CHL1    H6 3858   0.896   5.301   7.212 -0.2513  0.7994 -0.8585
   53CHL1    C7 3859   0.819   5.325   7.422 -0.2351 -0.3036  0.5270
   53CHL1   H7A 3860   0.922   5.358   7.446 -0.7238  0.2208  2.0230
   53CHL1   H7B 3861   0.754   5.416   7.418 -0.5600 -0.5308  0.5964
   53CHL1    C8 3862   0.764   5.232   7.524 -0.0087  0.7209  0.3877
   53CHL1    H8 3863   0.833   5.149   7.550  0.4647  0.5709 -1.2392
   53CHL1   C14 3864   0.727   5.305   7.647  0.1019  0.0112  0.5363
   53CHL1   H14 3865   0.651   5.380   7.617 -0.3586 -0.8685 -0.5793
   53CHL1   C15 3866   0.834   5.392   7.719  0.0654  0.0426 -0.8557
   53CHL1  H15A 3867   0.932   5.341   7.723 -0.2061 -0.4967 -0.9285
   53CHL1  H15B 3868   0.839   5.486   7.661  1.7295 -0.2484 -1.2280
   53CHL1   C16 3869   0.782   5.421   7.863  0.0383  0.6814  0.1040
   53CHL1  H16A 3870   0.855   5.404   7.945  2.6232  3.3573 -1.4325
   53CHL1  H16B 3871   0.744   5.525   7.869 -1.5339  0.1116  0.6087
   53CHL1   C17 3872   0.665   5.319   7.885  0.1591  0.1910  0.3977
   53CHL1   H17 3873   0.568   5.370   7.868  0.0746  0.2240  0.9599
   53CHL1   C13 3874   0.667   5.220   7.764 -0.0387 -0.3707  0.2241
   53CHL1   C18 3875   0.771   5.104   7.801 -0.3269 -0.5588 -0.6499
   53CHL1  H18A 3876   0.871   5.143   7.831 -0.4112  0.7243 -1.9669
   53CHL1  H18B 3877   0.728   5.043   7.884  1.6255 -1.7202 -0.4167
   53CHL1  H18C 3878   0.776   5.029   7.719  1.7826 -0.4599 -0.6834
   53CHL1   C12 3879   0.530   5.173   7.709 -0.3638 -0.0244  0.0059
   53CHL1  H12A 3880   0.482   5.110   7.786 -1.2944  0.0165 -0.5281
   53CHL1  H12B 3881   0.462   5.261   7.707 -2.6540 -1.6825 -1.9645
   53CHL1   C11 3882   0.544   5.098   7.576 -0.2014 -1.1163 -0.1482
   53CHL1  H11A 3883   0.599   5.004   7.596  1.0390 -0.4236 -0.1751
   53CHL1  H11B 3884   0.445   5.080   7.528 -0.4146 -0.4283  0.0111
   53CHL1    C9 3885   0.631   5.167   7.471 -0.0783  0.1355 -0.1936
   53CHL1    H9 3886   0.569   5.256   7.448 -0.6064  0.4734  2.2861
   53CHL1   C10 3887   0.654   5.087   7.340 -0.2352  0.0591  0.0691
   53CHL1   C19 3888   0.711   4.946   7.386  0.5088  0.3154  0.3251
   53CHL1  H19A 3889   0.797   4.945   7.456 -0.1382  2.6077  1.2439
   53CHL1  H19B 3890   0.619   4.893   7.419  0.5479  1.1443  1.8116
   53CHL1  H19C 3891   0.735   4.884   7.297 -0.4185  0.8218 -0.2949
   53CHL1    C1 3892   0.514   5.057   7.267 -0.1046 -0.0973 -0.4576
   53CHL1   H1A 3893   0.454   4.983   7.323 -0.4032  0.5101  0.0312
   53CHL1   H1B 3894   0.464   5.156   7.256  0.7103  0.4531  0.5407
   53CHL1    C2 3895   0.528   5.008   7.121  0.1067  0.8431 -0.1147
   53CHL1   H2A 3896   0.430   5.017   7.069  1.5603  0.1282 -3.1524
   53CHL1   H2B 3897   0.559   4.903   7.106  0.3530  1.0987 -1.5713
   53CHL1   C20 3898   0.640   5.262   8.024  0.2200 -0.6686 -0.5800
   53CHL1   H20 3899   0.729   5.207   8.063 -1.0086 -3.3099 -1.2696
   53CHL1   C21 3900   0.507   5.179   8.025 -0.0908  0.2076  0.2036
   53CHL1  H21A 3901   0.460   5.177   8.126  1.1971 -0.8870  0.8069
   53CHL1  H21B 3902   0.508   5.073   7.992 -0.3935  0.8066 -1.8725
   53CHL1  H21C 3903   0.429   5.230   7.965  1.8991  2.5813 -0.5409
   53CHL1   C22 3904   0.612   5.383   8.117 -0.6355  0.6953  0.3046
   53CHL1  H22A 3905   0.693   5.459   8.111  0.0978 -0.0001  1.1082
   53CHL1  H22B 3906   0.524   5.441   8.080 -1.3124  0.1636  1.0721
   53CHL1   C23 3907   0.601   5.364   8.259  0.1868  0.7737  0.0516
   53CHL1  H23A 3908   0.505   5.313   8.283  1.8338 -1.3902  2.5843
   53CHL1  H23B 3909   0.677   5.294   8.299 -0.3496  0.7760  1.1054
   53CHL1   C24 3910   0.599   5.497   8.342  0.0183 -1.1113  0.0477
   53CHL1  H24A 3911   0.705   5.531   8.345 -0.3688  0.1296  0.0197
   53CHL1  H24B 3912   0.534   5.576   8.300  0.1975  0.3518  2.3685
   53CHL1   C25 3913   0.559   5.481   8.491 -0.3858 -0.3585 -1.1974
   53CHL1   H25 3914   0.449   5.466   8.488 -0.1886 -2.3257 -4.9774
   53CHL1   C26 3915   0.637   5.365   8.558 -0.3865 -0.0404 -0.5269
   53CHL1  H26A 3916   0.746   5.372   8.538 -0.2250  2.6513  0.8442
   53CHL1  H26B 3917   0.614   5.369   8.667  0.7774  1.0765 -0.2924
   53CHL1  H26C 3918   0.606   5.268   8.514  1.0797 -1.2431  0.9796
   53CHL1   C27 3919   0.591   5.614   8.562  0.1685  0.0636 -0.5065
   53CHL1  H27A 3920   0.691   5.653   8.530 -0.6588  2.4856 -0.3381
   53CHL1  H27B 3921   0.513   5.685   8.528 -2.4578 -1.8681  1.0900
   53CHL1  H27C 3922   0.581   5.605   8.673  0.0450 -0.3901 -0.5541
   54CHL1    C3 3923   2.261   1.420   6.655 -0.3815  0.0320  0.3681
   54CHL1    H3 3924   2.154   1.450   6.670 -0.9495  0.0771 -3.0130
   54CHL1    O3 3925   2.261   1.369   6.519 -0.1782 -0.4715  0.0219
   54CHL1   H3' 3926   2.179   1.318   6.522 -1.2995  1.1119 -1.5305
   54CHL1    C4 3927   2.359   1.541   6.668 -0.7096  0.3957  0.2212
   54CHL1   H4A 3928   2.453   1.505   6.623 -1.3364  0.5300 -1.2342
   54CHL1   H4B 3929   2.325   1.625   6.604  0.2583  1.9849  1.7102
   54CHL1    C5 3930   2.380   1.581   6.813 -0.4942  0.2640 -0.0780
   54CHL1    C6 3931   2.360   1.708   6.853 -0.5378 -0.2013 -0.2420
   54CHL1    H6 3932   2.328   1.778   6.775  0.9929  0.1438 -0.5955
   54CHL1    C7 3933   2.377   1.761   6.990 -0.3473 -0.6163 -0.5489
   54CHL1   H7A 3934   2.419   1.864   6.993 -0.7054 -0.4698 -0.4875
   54CHL1   H7B 3935   2.282   1.771   7.047  1.7320  0.4177  3.0617
   54CHL1    C8 3936   2.474   1.664   7.066  0.3278 -0.5200 -0.0553
   54CHL1    H8 3937   2.581   1.669   7.038  1.1627 -1.7540  2.5435
   54CHL1   C14 3938   2.466   1.711   7.207 -0.1879 -0.1512 -0.5381
   54CHL1   H14 3939   2.360   1.695   7.238 -0.0891  1.3988  0.7028
   54CHL1   C15 3940   2.511   1.858   7.237 -0.6700 -0.2576  0.5302
   54CHL1  H15A 3941   2.604   1.868   7.176 -1.1017 -1.1874 -0.3090
   54CHL1  H15B 3942   2.442   1.939   7.208 -0.1933  0.4271  1.2818
   54CHL1   C16 3943   2.519   1.853   7.389  0.1598  0.4070  0.3177
   54CHL1  H16A 3944   2.619   1.895   7.414  0.3580  0.8126 -1.0886
   54CHL1  H16B 3945   2.433   1.905   7.436  0.4286  0.0589  1.2201
   54CHL1   C17 3946   2.527   1.699   7.436 -0.7580 -1.2154 -1.1741
   54CHL1   H17 3947   2.423   1.668   7.458 -0.8847 -0.5096 -0.7573
   54CHL1   C13 3948   2.552   1.624   7.300 -0.7161  0.3674 -0.2361
   54CHL1   C18 3949   2.703   1.637   7.270 -0.0542  0.1637  0.6622
   54CHL1  H18A 3950   2.750   1.561   7.337 -2.9386 -1.2645  1.2086
   54CHL1  H18B 3951   2.721   1.589   7.171 -1.3112 -1.0050  0.9752
   54CHL1  H18C 3952   2.745   1.736   7.297 -1.0008  0.1826  2.2235
   54CHL1   C12 3953   2.503   1.480   7.292  0.1161 -0.0796 -1.1475
   54CHL1  H12A 3954   2.575   1.415   7.347  1.3479  1.3754 -0.9571
   54CHL1  H12B 3955   2.400   1.473   7.334  0.5368  1.3745  0.2459
   54CHL1   C11 3956   2.503   1.427   7.150 -0.2877  0.0872  0.1796
   54CHL1  H11A 3957   2.608   1.416   7.117  0.2182 -0.0961  1.8107
   54CHL1  H11B 3958   2.440   1.335   7.151  0.3218 -0.3544 -0.6766
   54CHL1    C9 3959   2.428   1.520   7.054  0.2140 -0.3770 -0.3026
   54CHL1    H9 3960   2.324   1.510   7.092  0.5950 -3.7056  0.2015
   54CHL1   C10 3961   2.431   1.473   6.903 -0.0468 -0.3207 -0.1558
   54CHL1   C19 3962   2.571   1.430   6.863  0.0681  0.0749 -0.5885
   54CHL1  H19A 3963   2.620   1.357   6.932 -0.2052 -1.6580 -2.1560
   54CHL1  H19B 3964   2.578   1.386   6.761  2.3417 -0.0117 -0.4377
   54CHL1  H19C 3965   2.629   1.524   6.854  0.4570 -0.1073 -0.1079
   54CHL1    C1 3966   2.331   1.353   6.883  0.6434  0.2532 -0.1927
   54CHL1   H1A 3967   2.362   1.261   6.936  1.1126  0.4360 -0.1431
   54CHL1   H1B 3968   2.235   1.374   6.935  1.4641  0.2738  1.3681
   54CHL1    C2 3969   2.298   1.303   6.742  0.0405 -0.1540 -0.1414
   54CHL1   H2A 3970   2.203   1.245   6.746 -1.7096  2.5455 -0.1963
   54CHL1   H2B 3971   2.379   1.236   6.706 -0.3600 -1.4156  1.1766
   54CHL1   C20 3972   2.627   1.688   7.559  0.3160 -0.5206  0.3586
   54CHL1   H20 3973   2.730   1.717   7.532  0.2243 -0.4672  0.0600
   54CHL1   C21 3974   2.626   1.546   7.617 -0.7339 -0.2995  0.3725
   54CHL1  H21A 3975   2.671   1.480   7.540 -0.0856 -0.6532  1.0439
   54CHL1  H21B 3976   2.522   1.511   7.635 -0.3810 -0.7830  1.5192
   54CHL1  H21C 3977   2.688   1.564   7.707  1.1374  1.8726 -1.2049
   54CHL1   C22 3978   2.597   1.792   7.673  0.3148  0.1556  0.7926
   54CHL1  H22A 3979   2.688   1.789   7.738  1.7893  0.5971 -1.1529
   54CHL1  H22B 3980   2.601   1.895   7.631 -0.0423  0.0267  0.4427
   54CHL1   C23 3981   2.470   1.761   7.763 -0.2425 -0.1819 -0.2659
   54CHL1  H23A 3982   2.380   1.733   7.704 -0.4443 -0.3136  0.1052
   54CHL1  H23B 3983   2.503   1.676   7.826  2.4528  0.5959 -0.4825
   54CHL1   C24 3984   2.463   1.874   7.869 -0.3034 -0.6183  1.0002
   54CHL1  H24A 3985   2.564   1.874   7.916  0.8268 -1.2874 -1.2666
   54CHL1  H24B 3986   2.458   1.972   7.817 -0.1950 -1.7973 -1.3619
   54CHL1   C25 3987   2.353   1.849   7.981  0.0043 -0.6236 -0.2842
   54CHL1   H25 3988   2.371   1.749   8.026  0.4121 -0.8743 -0.9872
   54CHL1   C26 3989   2.361   1.955   8.095  0.6032 -0.5528  0.5617
   54CHL1  H26A 3990   2.358   1.919   8.200 -0.2149  3.2294  2.0227
   54CHL1  H26B 3991   2.460   2.003   8.080 -0.3436  1.0674 -0.8646
   54CHL1  H26C 3992   2.284   2.035   8.085  0.7504 -0.3811  0.7762
   54CHL1   C27 3993   2.217   1.851   7.918  0.5732  0.4694  0.3142
   54CHL1  H27A 3994   2.204   1.781   7.832  1.8546  0.5595  0.0404
   54CHL1  H27B 3995   2.139   1.837   7.996 -0.5017  0.1917 -0.7674
   54CHL1  H27C 3996   2.193   1.956   7.890 -1.1090  0.0345 -0.0147
   55CHL1    C3 3997   5.118   3.694   6.522 -0.1589 -0.1055  0.1456
   55CHL1    H3 3998   5.028   3.634   6.547  0.0265 -0.0305  0.9973
   55CHL1    O3 3999   5.179   3.658   6.399  0.3744 -0.0301  0.5195
   55CHL1   H3' 4000   5.254   3.604   6.429  0.3321 -0.1362  0.4346
   55CHL1    C4 4001   5.070   3.837   6.524 -0.7285  0.1626  0.3993
   55CHL1   H4A 4002   5.150   3.904   6.486  0.6119 -0.5060  1.9232
   55CHL1   H4B 4003   4.989   3.836   6.448 -0.3358  3.7633 -0.2269
   55CHL1    C5 4004   5.017   3.873   6.664 -0.3266  0.4729 -0.8894
   55CHL1    C6 4005   4.886   3.902   6.684  0.2739  0.5146 -0.3883
   55CHL1    H6 4006   4.819   3.888   6.598  1.3860 -1.4659 -0.9948
   55CHL1    C7 4007   4.832   3.948   6.822 -0.0486  0.1228 -0.2762
   55CHL1   H7A 4008   4.775   4.040   6.799  0.4491  0.4622 -0.1715
   55CHL1   H7B 4009   4.780   3.862   6.869  1.0144  0.2162  1.1460
   55CHL1    C8 4010   4.949   3.986   6.920  0.1144  0.2764 -0.4904
   55CHL1    H8 4011   4.987   4.085   6.888 -1.1135  1.1045  0.5404
   55CHL1   C14 4012   4.883   3.991   7.055 -0.8924 -0.2351 -0.2666
   55CHL1   H14 4013   4.837   3.892   7.077 -2.2911 -0.2996 -3.0624
   55CHL1   C15 4014   4.762   4.086   7.075 -0.0695  0.1970  0.6084
   55CHL1  H15A 4015   4.783   4.176   7.013 -0.1597  0.1917  0.5718
   55CHL1  H15B 4016   4.679   4.031   7.026 -1.2723  2.2525  0.2024
   55CHL1   C16 4017   4.752   4.112   7.220 -0.0833  0.1352 -0.1650
   55CHL1  H16A 4018   4.764   4.220   7.242 -2.2714  0.2405  0.7318
   55CHL1  H16B 4019   4.662   4.080   7.275 -1.8064  0.2817 -2.7055
   55CHL1   C17 4020   4.876   4.039   7.288  0.1603  0.1873 -0.1088
   55CHL1   H17 4021   4.847   3.935   7.316  2.6398 -1.3578 -2.8076
   55CHL1   C13 4022   4.978   4.024   7.177 -0.7449  0.0470 -0.5425
   55CHL1   C18 4023   5.055   4.156   7.165  0.0771 -0.6714  0.4372
   55CHL1  H18A 4024   5.126   4.168   7.250  0.0234  0.7406  0.3038
   55CHL1  H18B 4025   5.119   4.156   7.073 -0.8988  2.0670 -0.3355
   55CHL1  H18C 4026   4.981   4.238   7.157 -0.4914 -1.0276  1.8410
   55CHL1   C12 4027   5.066   3.898   7.180 -0.3120 -0.3566 -0.2077
   55CHL1  H12A 4028   5.135   3.887   7.266 -0.0555 -0.0094 -0.3669
   55CHL1  H12B 4029   5.000   3.808   7.185 -0.1605 -0.4371  0.3355
   55CHL1   C11 4030   5.147   3.887   7.042 -0.6447  0.3097 -0.0124
   55CHL1  H11A 4031   5.228   3.962   7.047  1.0811 -1.5466  2.6383
   55CHL1  H11B 4032   5.208   3.794   7.041  0.3438  0.9098 -1.6552
   55CHL1    C9 4033   5.059   3.873   6.922 -0.6017  0.7792 -0.7254
   55CHL1    H9 4034   4.998   3.783   6.944 -1.9965  1.8118 -0.2335
   55CHL1   C10 4035   5.119   3.861   6.783 -0.3483  0.4335 -0.4181
   55CHL1   C19 4036   5.223   3.970   6.761  0.0541  0.9675  0.0426
   55CHL1  H19A 4037   5.288   3.954   6.850 -1.0512 -2.6542  0.3402
   55CHL1  H19B 4038   5.272   3.970   6.661  0.0927  0.8361  0.0620
   55CHL1  H19C 4039   5.178   4.072   6.763 -2.2546  0.0038 -0.6466
   55CHL1    C1 4040   5.181   3.715   6.771  0.3288 -0.6367  0.0255
   55CHL1   H1A 4041   5.272   3.701   6.832  1.3098  1.9221 -0.7075
   55CHL1   H1B 4042   5.101   3.645   6.803 -0.5344 -0.0353 -0.7355
   55CHL1    C2 4043   5.223   3.666   6.631  0.2414  0.3177  0.0495
   55CHL1   H2A 4044   5.241   3.557   6.643  1.9835  0.3833 -1.6291
   55CHL1   H2B 4045   5.320   3.714   6.603  1.1870 -0.3591  1.9841
   55CHL1   C20 4046   4.911   4.101   7.428 -0.7717 -0.0782  0.3288
   55CHL1   H20 4047   4.940   4.205   7.403 -0.5417 -0.1685  0.2178
   55CHL1   C21 4048   5.023   4.023   7.501  0.3565 -0.0805  0.4060
   55CHL1  H21A 4049   5.108   4.001   7.433 -0.2167 -0.2328 -0.2639
   55CHL1  H21B 4050   4.980   3.939   7.560 -1.5584  1.2582  1.0206
   55CHL1  H21C 4051   5.066   4.089   7.580 -0.5124  0.1412  0.6967
   55CHL1   C22 4052   4.786   4.131   7.517 -0.3345  0.8244 -0.2397
   55CHL1  H22A 4053   4.697   4.171   7.463 -1.7827 -2.2320 -0.3745
   55CHL1  H22B 4054   4.744   4.034   7.551  1.4616 -0.2923 -1.0785
   55CHL1   C23 4055   4.818   4.208   7.641 -0.5464  0.3699 -0.0405
   55CHL1  H23A 4056   4.871   4.139   7.711  0.1090 -0.5746 -1.4293
   55CHL1  H23B 4057   4.883   4.296   7.617 -1.8189  1.0879 -0.9835
   55CHL1   C24 4058   4.703   4.271   7.708  0.0122  0.7757  0.3376
   55CHL1  H24A 4059   4.649   4.330   7.631  0.3090 -1.4441 -1.7038
   55CHL1  H24B 4060   4.634   4.192   7.746  1.9528 -0.8738  0.6591
   55CHL1   C25 4061   4.749   4.371   7.818  0.1353  0.0421 -0.4383
   55CHL1   H25 4062   4.823   4.439   7.770  0.8569  0.1259  0.7516
   55CHL1   C26 4063   4.637   4.465   7.867  0.2636  0.1048 -0.0318
   55CHL1  H26A 4064   4.554   4.405   7.909 -1.3618  2.0372 -0.3072
   55CHL1  H26B 4065   4.674   4.532   7.947  1.8683 -0.3106 -0.3810
   55CHL1  H26C 4066   4.591   4.518   7.781 -1.0219 -0.3559  0.3589
   55CHL1   C27 4067   4.809   4.286   7.940 -0.0427  0.5150  0.2768
   55CHL1  H27A 4068   4.749   4.193   7.951 -2.2746  1.8162 -0.3023
   55CHL1  H27B 4069   4.906   4.239   7.913 -1.1237 -1.0423 -1.1284
   55CHL1  H27C 4070   4.810   4.334   8.040 -0.6468 -0.9071  0.9984
   56CHL1    C3 4071   6.539   0.533   6.987  0.3441  0.0285  0.6091
   56CHL1    H3 4072   6.453   0.471   7.021 -0.4055  0.7341  0.0459
   56CHL1    O3 4073   6.561   0.520   6.843  0.5210  0.7928 -0.2645
   56CHL1   H3' 4074   6.622   0.590   6.820  0.8042  0.3600 -0.8626
   56CHL1    C4 4075   6.508   0.682   7.012  0.0929 -0.4956  0.1526
   56CHL1   H4A 4076   6.588   0.743   6.963  1.1981 -1.2376  0.9733
   56CHL1   H4B 4077   6.414   0.700   6.957 -1.2136 -0.1557  2.3864
   56CHL1    C5 4078   6.487   0.710   7.158  0.0991 -0.4302  0.3018
   56CHL1    C6 4079   6.374   0.770   7.206  0.4066  0.4019 -0.5361
   56CHL1    H6 4080   6.299   0.812   7.138 -0.1428 -0.9387 -0.7960
   56CHL1    C7 4081   6.361   0.795   7.355 -0.2117 -0.0679 -0.1535
   56CHL1   H7A 4082   6.317   0.897   7.361 -0.3501 -0.1830  1.1334
   56CHL1   H7B 4083   6.281   0.726   7.389 -0.4402  1.5387  3.0155
   56CHL1    C8 4084   6.491   0.789   7.438 -0.2890  0.7119 -0.2989
   56CHL1    H8 4085   6.568   0.864   7.408 -0.9964  0.4814 -2.9275
   56CHL1   C14 4086   6.478   0.816   7.591  0.0544  0.7170  0.0416
   56CHL1   H14 4087   6.401   0.743   7.623  0.5236  0.2032  0.0237
   56CHL1   C15 4088   6.422   0.949   7.639 -0.3978  0.6389 -0.4060
   56CHL1  H15A 4089   6.484   1.028   7.591  0.7928 -1.8687 -3.3856
   56CHL1  H15B 4090   6.314   0.955   7.613 -1.1960  0.0684  2.4783
   56CHL1   C16 4091   6.452   0.937   7.790 -0.1583 -1.1780 -0.4250
   56CHL1  H16A 4092   6.508   1.028   7.820 -1.2590 -0.2525 -1.0899
   56CHL1  H16B 4093   6.351   0.929   7.835 -0.9532 -0.3899 -1.9803
   56CHL1   C17 4094   6.544   0.819   7.814 -0.9528  0.1298 -0.4609
   56CHL1   H17 4095   6.484   0.729   7.842 -1.2606  0.6613  0.6277
   56CHL1   C13 4096   6.604   0.779   7.680  0.5081 -1.1659  0.3858
   56CHL1   C18 4097   6.720   0.873   7.641  0.2154 -0.2080 -0.4180
   56CHL1  H18A 4098   6.742   0.868   7.532 -2.6466 -1.9736 -1.0173
   56CHL1  H18B 4099   6.688   0.979   7.653 -0.5713 -0.2943 -1.5898
   56CHL1  H18C 4100   6.813   0.854   7.699  1.5490  0.9260 -2.0855
   56CHL1   C12 4101   6.637   0.630   7.641  0.2044 -0.1629 -0.1030
   56CHL1  H12A 4102   6.717   0.595   7.709 -0.0208 -0.5158 -0.0165
   56CHL1  H12B 4103   6.540   0.578   7.659 -0.1013  0.9229  1.6344
   56CHL1   C11 4104   6.680   0.618   7.493  0.4950  0.5109  0.1776
   56CHL1  H11A 4105   6.778   0.665   7.468  1.1107 -0.2796  1.0519
   56CHL1  H11B 4106   6.700   0.510   7.481  1.3164  0.5335  1.2098
   56CHL1    C9 4107   6.567   0.657   7.395 -0.1236  0.0821  0.4114
   56CHL1    H9 4108   6.482   0.585   7.396 -1.1419  1.0623 -3.1994
   56CHL1   C10 4109   6.605   0.657   7.248 -0.0938 -0.7658 -0.1473
   56CHL1   C19 4110   6.722   0.749   7.215 -0.0047  0.2072  0.5004
   56CHL1  H19A 4111   6.710   0.855   7.247 -2.2433 -0.1725  1.1092
   56CHL1  H19B 4112   6.819   0.721   7.262 -1.3755 -1.5986  2.4518
   56CHL1  H19C 4113   6.745   0.755   7.107 -0.5545  1.5941  0.4364
   56CHL1    C1 4114   6.649   0.511   7.210  0.0322 -0.1564  0.6312
   56CHL1   H1A 4115   6.743   0.472   7.252  1.5796 -0.7544 -3.0434
   56CHL1   H1B 4116   6.561   0.451   7.243 -0.7501  0.3701 -0.4250
   56CHL1    C2 4117   6.667   0.490   7.064  0.5054  0.3696  0.4500
   56CHL1   H2A 4118   6.697   0.385   7.042  1.8907 -0.0005  3.5404
   56CHL1   H2B 4119   6.754   0.543   7.019  1.7945 -0.0168  2.3697
   56CHL1   C20 4120   6.645   0.834   7.928 -0.1194 -0.4789 -0.0106
   56CHL1   H20 4121   6.719   0.913   7.903  0.6539 -1.8419 -2.3648
   56CHL1   C21 4122   6.719   0.697   7.942  0.3130  0.3993  0.1257
   56CHL1  H21A 4123   6.643   0.616   7.932  1.7458 -0.9346 -0.4041
   56CHL1  H21B 4124   6.758   0.690   8.045  1.1047  0.0864 -0.1840
   56CHL1  H21C 4125   6.802   0.692   7.868 -0.6639  0.9958 -1.0457
   56CHL1   C22 4126   6.579   0.879   8.061 -0.0225 -0.4071  1.2612
   56CHL1  H22A 4127   6.660   0.867   8.135 -1.4261 -2.1936  2.5835
   56CHL1  H22B 4128   6.561   0.989   8.060  2.6599  0.1047  0.0814
   56CHL1   C23 4129   6.460   0.803   8.114 -0.3191  0.5772  0.1193
   56CHL1  H23A 4130   6.374   0.813   8.045  1.2635 -1.2317 -2.2680
   56CHL1  H23B 4131   6.480   0.694   8.128 -0.4868  0.7268  1.7797
   56CHL1   C24 4132   6.410   0.859   8.246 -0.5980  0.1974 -0.7402
   56CHL1  H24A 4133   6.492   0.851   8.320  0.3456  1.2567 -1.6439
   56CHL1  H24B 4134   6.393   0.969   8.236 -1.0550  0.3913  1.6009
   56CHL1   C25 4135   6.287   0.791   8.313 -0.2737 -0.4539  1.4388
   56CHL1   H25 4136   6.200   0.784   8.244 -0.3661  3.3456  0.9659
   56CHL1   C26 4137   6.304   0.650   8.366  0.0035 -0.4090 -0.1707
   56CHL1  H26A 4138   6.332   0.573   8.290  1.1419 -0.5456  0.3598
   56CHL1  H26B 4139   6.228   0.619   8.440 -0.4338  0.4363 -0.2576
   56CHL1  H26C 4140   6.389   0.652   8.437 -0.2649 -0.0151  0.1449
   56CHL1   C27 4141   6.235   0.875   8.435 -0.4283  0.1162  0.3788
   56CHL1  H27A 4142   6.216   0.975   8.391  1.3462  0.3515  0.0533
   56CHL1  H27B 4143   6.140   0.836   8.478  0.6274 -1.6788  1.2265
   56CHL1  H27C 4144   6.305   0.867   8.520 -0.9920  0.1584  0.8506
   57SAPC     N 4145   3.977   3.638  10.289 -0.0945 -0.5112  0.1790
   57SAPC   C12 4146   3.988   3.789  10.292 -0.3591 -0.8473 -0.3294
   57SAPC  H12A 4147   4.089   3.824  10.275 -0.0533 -0.8421  1.3318
   57SAPC  H12B 4148   3.988   3.829  10.392  1.0266  1.0010 -1.0213
   57SAPC   C13 4149   3.836   3.609  10.323  0.3775 -0.2185  0.2123
   57SAPC  H13A 4150   3.768   3.682  10.282  0.0936  0.2230  1.4371
   57SAPC  H13B 4151   3.797   3.518  10.281 -0.5754  0.0952  0.3792
   57SAPC  H13C 4152   3.812   3.615  10.428  0.7774  0.3674  0.2741
   57SAPC   C14 4153   3.992   3.601  10.145  0.2098 -0.2326  0.1567
   57SAPC  H14A 4154   3.899   3.623  10.095 -0.4912 -1.0796  1.0538
   57SAPC  H14B 4155   4.073   3.658  10.102 -1.8801  2.3386 -0.6725
   57SAPC  H14C 4156   4.004   3.495  10.128  0.4680 -0.3681  1.1415
   57SAPC   C15 4157   4.061   3.552  10.377  0.1466 -0.2272 -0.0782
   57SAPC  H15A 4158   4.168   3.557  10.363  0.4365 -1.1947  1.4983
   57SAPC  H15B 4159   4.036   3.567  10.481  0.3903  0.2975 -0.0941
   57SAPC  H15C 4160   4.039   3.447  10.362  2.2695 -1.0172  1.6860
   57SAPC   C11 4161   3.918   3.863  10.186  0.4998  0.3929  0.6708
   57SAPC  H11A 4162   3.929   3.834  10.079  0.7127  1.5047  0.3693
   57SAPC  H11B 4163   3.959   3.966  10.179 -0.4460  0.9453  2.6621
   57SAPC     P 4164   3.725   3.999  10.296 -0.2341  0.1921  0.1047
   57SAPC   O13 4165   3.636   3.966  10.412  0.1881  0.3487 -0.1328
   57SAPC   O14 4166   3.832   4.105  10.311 -0.8014 -0.2608  0.6747
   57SAPC   O12 4167   3.781   3.865  10.226 -0.0759  0.2261 -0.2641
   57SAPC   O11 4168   3.634   4.055  10.187  0.2403  0.2891 -0.0739
   57SAPC    C1 4169   3.596   4.009  10.055 -0.2262  0.4149  0.2233
   57SAPC    HA 4170   3.595   3.898  10.060  0.5697  0.3721 -0.3276
   57SAPC    HB 4171   3.497   4.037  10.013 -1.6540 -4.2950 -0.0612
   57SAPC    C2 4172   3.701   4.060   9.951  0.7058  1.2440 -0.4207
   57SAPC    HS 4173   3.794   4.012   9.987 -0.8004 -1.9805 -0.5061
   57SAPC   O21 4174   3.701   4.197   9.955 -0.6753  0.0323  0.6292
   57SAPC   C21 4175   3.818   4.258   9.965 -0.2225 -0.2121  0.3010
   57SAPC   O22 4176   3.930   4.213   9.971  1.2572  0.1498 -0.5229
   57SAPC   C22 4177   3.793   4.408   9.944 -0.1399 -0.5004 -0.3584
   57SAPC   H2R 4178   3.690   4.432   9.907 -0.0868  0.4611  0.0720
   57SAPC   H2S 4179   3.798   4.452  10.046 -0.7792 -1.6992  0.2004
   57SAPC    C3 4180   3.667   4.004   9.810  0.3021  0.7052  0.8866
   57SAPC    HX 4181   3.581   4.062   9.770  0.7562  1.9528  1.6480
   57SAPC    HY 4182   3.637   3.897   9.808  1.1541  0.4180 -2.4453
   57SAPC   O31 4183   3.782   4.019   9.720  0.8568  0.2399  0.3905
   57SAPC   C31 4184   3.874   3.931   9.736  0.6941  0.3188  0.6552
   57SAPC   O32 4185   3.879   3.849   9.823  0.5914 -0.0065 -0.6000
   57SAPC   C32 4186   3.958   3.935   9.612  0.0641  0.0438 -0.3094
   57SAPC   H2X 4187   4.038   3.859   9.627  1.0777  1.4427  1.9855
   57SAPC   H2Y 4188   4.023   4.023   9.632  1.7351 -1.1216 -0.3407
   57SAPC   C23 4189   3.904   4.469   9.855 -0.2328 -0.2190  0.5424
   57SAPC   H3R 4190   4.004   4.446   9.898  0.1744 -1.7577 -1.1024
   57SAPC   H3S 4191   3.900   4.580   9.858 -0.9244 -0.2650  2.0530
   57SAPC   C24 4192   3.880   4.431   9.705  0.5497  1.9292  0.0523
   57SAPC   H4R 4193   3.776   4.465   9.687  0.1910  0.6481 -0.4448
   57SAPC   H4S 4194   3.861   4.321   9.701  1.2167  1.7873  0.5487
   57SAPC   C25 4195   3.969   4.475   9.596 -0.0047 -0.2668 -0.3114
   57SAPC   H5R 4196   4.045   4.548   9.628 -0.8896  1.3522 -1.6965
   57SAPC   C26 4197   3.970   4.427   9.466 -0.4815  0.5500  0.2906
   57SAPC   H6R 4198   4.036   4.472   9.390  1.8400 -3.1974 -0.1517
   57SAPC   C27 4199   3.885   4.321   9.405 -0.0941  1.2564 -0.5407
   57SAPC   H7R 4200   3.868   4.235   9.473 -1.3440  1.5702 -0.4119
   57SAPC   H7S 4201   3.941   4.275   9.321  2.4404 -1.2309  2.2849
   57SAPC   C28 4202   3.751   4.380   9.359  0.6702  0.1071  0.2314
   57SAPC   H8R 4203   3.677   4.384   9.440  1.0934 -1.0733  0.6970
   57SAPC   C29 4204   3.708   4.415   9.235 -0.7908  1.0354  0.3740
   57SAPC   H9R 4205   3.602   4.443   9.224 -0.5928  1.3364 -1.0738
   57SAPC  C210 4206   3.786   4.414   9.100  0.2058 -0.6845 -0.0262
   57SAPC  H10R 4207   3.893   4.401   9.125 -0.1709 -0.9723  1.5121
   57SAPC  H10S 4208   3.774   4.514   9.053 -0.7130 -0.8139 -0.0866
   57SAPC  C211 4209   3.745   4.302   9.004  0.8489  0.6281 -0.4925
   57SAPC  H11R 4210   3.774   4.205   9.047 -0.1682 -0.2524 -1.7274
   57SAPC  C212 4211   3.701   4.329   8.877 -0.4622 -0.2764  0.3555
   57SAPC  H12R 4212   3.661   4.240   8.827  0.9203 -0.5174 -0.3971
   57SAPC  C213 4213   3.670   4.458   8.800 -1.0948  0.2377 -0.2466
   57SAPC  H13R 4214   3.700   4.544   8.862 -1.0002 -0.8193  1.2269
   57SAPC  H13S 4215   3.560   4.467   8.788 -1.1998  2.6842  1.7427
   57SAPC  C214 4216   3.748   4.453   8.668 -0.5374 -0.2767 -0.0116
   57SAPC  H14R 4217   3.856   4.435   8.677 -1.0686 -3.4654  1.3536
   57SAPC  C215 4218   3.694   4.455   8.544  0.5031  0.6067 -0.1261
   57SAPC  H15R 4219   3.767   4.434   8.465  2.1177 -0.5364  1.5864
   57SAPC  C216 4220   3.548   4.465   8.514 -0.3910  0.1076 -0.7716
   57SAPC  H16R 4221   3.528   4.548   8.443 -2.8502 -0.7026 -1.1459
   57SAPC  H16S 4222   3.491   4.495   8.604 -1.3075 -0.5429 -1.1111
   57SAPC  C217 4223   3.485   4.345   8.451  0.3717  0.1761  0.6678
   57SAPC  H17R 4224   3.539   4.323   8.356 -1.2674 -2.1840  0.2154
   57SAPC  H17S 4225   3.388   4.389   8.421 -1.9030 -4.0152  1.2019
   57SAPC  C218 4226   3.493   4.226   8.539 -0.8368 -0.0735 -0.3530
   57SAPC  H18R 4227   3.438   4.250   8.633 -0.4925 -1.1291  0.1369
   57SAPC  H18S 4228   3.590   4.191   8.581 -0.3885  1.3316 -0.1488
   57SAPC  C219 4229   3.408   4.117   8.481 -0.2008  0.4424  0.1904
   57SAPC  H19R 4230   3.448   4.096   8.379 -0.5767  1.1249 -0.1060
   57SAPC  H19S 4231   3.299   4.138   8.472  0.0343  0.7163 -3.3440
   57SAPC  C220 4232   3.413   3.990   8.557  0.1698  0.3825 -0.3970
   57SAPC  H20R 4233   3.364   3.905   8.504  0.4832 -0.2618  0.3216
   57SAPC  H20S 4234   3.364   3.986   8.657  5.3162 -1.0218  2.4517
   57SAPC  H20T 4235   3.521   3.968   8.573  1.1163  3.9627 -1.1112
   57SAPC   C33 4236   3.889   3.926   9.477  0.1903  0.1206  0.5643
   57SAPC   H3X 4237   3.823   4.013   9.455 -0.5060 -0.6033 -0.3084
   57SAPC   H3Y 4238   3.832   3.831   9.471 -0.0442  0.3227 -0.9531
   57SAPC   C34 4239   3.992   3.934   9.368 -0.1462  0.5066 -0.0820
   57SAPC   H4X 4240   4.041   3.834   9.369  0.1185  0.6166 -0.8796
   57SAPC   H4Y 4241   4.062   4.019   9.380 -0.1770  0.9579 -2.4719
   57SAPC   C35 4242   3.936   3.952   9.222  0.4005 -0.4055 -0.3632
   57SAPC   H5X 4243   3.909   4.059   9.206  3.0013  0.5458  0.9237
   57SAPC   H5Y 4244   3.847   3.890   9.202 -1.4675  2.2772 -0.9543
   57SAPC   C36 4245   4.030   3.908   9.117 -0.3372 -0.5285  0.6480
   57SAPC   H6X 4246   4.043   3.797   9.119  0.3333 -0.4461  1.7862
   57SAPC   H6Y 4247   4.124   3.953   9.157 -0.3554  1.4139 -1.3056
   57SAPC   C37 4248   3.984   3.974   8.984  0.0039 -0.1958 -0.0421
   57SAPC   H7X 4249   4.069   3.987   8.914  0.0803 -0.1059  0.0672
   57SAPC   H7Y 4250   3.945   4.076   9.000  0.9728  0.2351 -0.3361
   57SAPC   C38 4251   3.878   3.893   8.904 -0.0448 -0.7061 -0.4419
   57SAPC   H8X 4252   3.804   3.870   8.983  0.7965 -1.9266  0.0231
   57SAPC   H8Y 4253   3.931   3.803   8.866  0.7522  0.4386 -2.1856
   57SAPC   C39 4254   3.807   3.970   8.792 -0.2594  0.3129 -0.0475
   57SAPC   H9X 4255   3.778   4.065   8.843 -0.3278  0.6450 -0.6974
   57SAPC   H9Y 4256   3.720   3.912   8.755  0.7873 -1.5667  0.2770
   57SAPC  C310 4257   3.903   4.001   8.673  0.1697 -0.0578  0.2255
   57SAPC  H10X 4258   3.991   4.051   8.720 -0.4732  0.1950  1.1980
   57SAPC  H10Y 4259   3.864   4.088   8.616  0.6387  0.4478  0.6590
   57SAPC  C311 4260   3.948   3.876   8.594  0.3994  0.0188  0.2812
   57SAPC  H11X 4261   3.948   3.909   8.488  1.4728  0.8443  0.5127
   57SAPC  H11Y 4262   3.870   3.797   8.602  0.9313 -0.5043  0.3885
   57SAPC  C312 4263   4.085   3.812   8.626  0.1437 -0.5464  0.2537
   57SAPC  H12X 4264   4.085   3.809   8.737  2.1807 -1.9034  0.2817
   57SAPC  H12Y 4265   4.162   3.880   8.584  0.1682  0.2945  1.5969
   57SAPC  C313 4266   4.097   3.669   8.575 -0.2946 -0.5078 -0.0202
   57SAPC  H13X 4267   4.009   3.606   8.600  0.5613 -1.9472 -0.4983
   57SAPC  H13Y 4268   4.189   3.628   8.620  0.1983  1.3136  0.6929
   57SAPC  C314 4269   4.110   3.672   8.415 -0.6998  0.3738 -0.4917
   57SAPC  H14X 4270   4.199   3.728   8.380  1.2299 -1.5684  1.0788
   57SAPC  H14Y 4271   4.018   3.713   8.368 -0.4259  0.5931 -0.8389
   57SAPC  C315 4272   4.128   3.526   8.351 -0.3688 -0.2365  0.0314
   57SAPC  H15X 4273   4.154   3.538   8.243 -1.5903  1.8934 -0.0733
   57SAPC  H15Y 4274   4.039   3.460   8.358  0.3301 -1.1356  0.7239
   57SAPC  C316 4275   4.247   3.457   8.423  0.8095 -0.2888 -0.5067
   57SAPC  H16X 4276   4.213   3.422   8.523  0.4370 -1.8534 -1.1684
   57SAPC  H16Y 4277   4.335   3.524   8.435 -0.0638  0.7557  0.3640
   57SAPC  C317 4278   4.307   3.344   8.348  0.4861  0.4051 -0.0620
   57SAPC  H17X 4279   4.321   3.372   8.241 -1.3206  0.6214 -0.2736
   57SAPC  H17Y 4280   4.239   3.256   8.352 -0.5667  1.0789 -1.7052
   57SAPC  C318 4281   4.447   3.294   8.398  0.6265  0.4182 -0.1780
   57SAPC  H18X 4282   4.442   3.284   8.508  2.6871 -1.0542 -0.1602
   57SAPC  H18Y 4283   4.529   3.363   8.370  0.1447  0.3001 -2.0193
   57SAPC  H18Z 4284   4.470   3.194   8.356 -0.1890  0.1373  0.0235
   58SAPC     N 4285   0.037   0.050  11.119  0.0996 -0.0386 -0.4379
   58SAPC   C12 4286   0.079  -0.060  11.032 -0.5685 -0.5485 -0.1660
   58SAPC  H12A 4287   0.136  -0.025  10.947  0.8915  0.6071  1.2121
   58SAPC  H12B 4288  -0.011  -0.111  11.000 -0.0380 -1.0229 -0.9374
   58SAPC   C13 4289   0.152   0.122  11.193  0.8316  0.7512 -0.5193
   58SAPC  H13A 4290   0.211   0.047  11.242  0.3762  0.6826 -0.0703
   58SAPC  H13B 4291   0.221   0.167  11.123 -2.4312  2.2181 -3.0394
   58SAPC  H13C 4292   0.113   0.190  11.267 -1.2074 -2.7516  1.8838
   58SAPC   C14 4293  -0.032   0.160  11.041 -0.0025  0.2480 -0.6912
   58SAPC  H14A 4294  -0.074   0.227  11.114  0.9611 -0.5952  0.7056
   58SAPC  H14B 4295   0.036   0.210  10.974 -0.2852  1.0281 -0.3980
   58SAPC  H14C 4296  -0.114   0.120  10.983 -0.5528 -0.2744  0.4151
   58SAPC   C15 4297  -0.060   0.004  11.217  0.2657  0.3305  0.1024
   58SAPC  H15A 4298  -0.151  -0.018  11.163 -0.6106  1.9805  0.8036
   58SAPC  H15B 4299  -0.027  -0.083  11.272 -0.4925  0.4226  0.7280
   58SAPC  H15C 4300  -0.089   0.077  11.291  1.7111  2.5401 -1.3956
   58SAPC   C11 4301   0.184  -0.165  11.083 -0.1945 -0.5606 -0.1971
   58SAPC  H11A 4302   0.171  -0.257  11.023  0.3774 -1.0889  0.4625
   58SAPC  H11B 4303   0.150  -0.185  11.187  0.7909  2.0595  0.7140
   58SAPC     P 4304   0.408  -0.102  10.948 -0.1818 -0.0727 -0.1141
   58SAPC   O13 4305   0.386   0.030  10.877 -0.0212 -0.3166 -0.7790
   58SAPC   O14 4306   0.545  -0.142  10.980  0.3189  0.0085 -0.2254
   58SAPC   O12 4307   0.318  -0.112  11.074 -0.0215  0.5435 -0.5651
   58SAPC   O11 4308   0.354  -0.215  10.856  0.6182 -0.4289 -0.5867
   58SAPC    C1 4309   0.306  -0.211  10.726  1.3010 -0.7809 -0.0586
   58SAPC    HA 4310   0.241  -0.301  10.716 -0.2124  0.4018 -1.4944
   58SAPC    HB 4311   0.236  -0.126  10.705  0.2353 -1.5112  0.4225
   58SAPC    C2 4312   0.420  -0.213  10.625  0.4544  0.4518 -0.1775
   58SAPC    HS 4313   0.469  -0.115  10.641  0.6158  0.4642 -0.7358
   58SAPC   O21 4314   0.367  -0.217  10.495  0.0919  0.0163 -0.5793
   58SAPC   C21 4315   0.436  -0.166  10.396 -0.3637  0.5079 -0.7245
   58SAPC   O22 4316   0.544  -0.109  10.401  0.1511  0.3184 -0.5730
   58SAPC   C22 4317   0.355  -0.196  10.268 -0.2292  0.3617  0.4593
   58SAPC   H2R 4318   0.333  -0.305  10.262  0.0368  0.2426  1.4778
   58SAPC   H2S 4319   0.254  -0.152  10.280  0.6217  2.2757  0.9222
   58SAPC    C3 4320   0.507  -0.339  10.631 -0.1054  0.5022 -0.0881
   58SAPC    HX 4321   0.458  -0.422  10.577  1.6774 -0.9598  0.4524
   58SAPC    HY 4322   0.513  -0.373  10.737 -0.8531 -1.4624 -0.6428
   58SAPC   O31 4323   0.642  -0.323  10.573 -0.1004 -0.1021  0.0211
   58SAPC   C31 4324   0.697  -0.431  10.533  0.2062 -0.2926 -0.3305
   58SAPC   O32 4325   0.653  -0.543  10.547 -0.4772 -0.0287 -0.4044
   58SAPC   C32 4326   0.823  -0.391  10.457  1.0444 -0.5303 -0.7007
   58SAPC   H2X 4327   0.897  -0.366  10.536 -1.2473 -0.8318  1.6647
   58SAPC   H2Y 4328   0.802  -0.302  10.393 -1.0690 -1.2047 -1.0229
   58SAPC   C23 4329   0.426  -0.158  10.133 -0.8393  1.4301  0.9933
   58SAPC   H3R 4330   0.377  -0.214  10.051  0.5034  1.1803  0.3258
   58SAPC   H3S 4331   0.534  -0.185  10.124 -1.1753  0.2497  0.3534
   58SAPC   C24 4332   0.414  -0.010  10.096  0.3966 -0.3944 -0.3806
   58SAPC   H4R 4333   0.495   0.008  10.023  0.9084 -0.8356  0.0657
   58SAPC   H4S 4334   0.449   0.057  10.177  2.0069  0.6344 -1.8713
   58SAPC   C25 4335   0.274   0.021  10.055 -0.4708  0.3503 -0.1759
   58SAPC   H5R 4336   0.201   0.029  10.138  0.7516  0.1640  0.9442
   58SAPC   C26 4337   0.223   0.041   9.936 -0.0818  0.5503 -0.1274
   58SAPC   H6R 4338   0.113   0.052   9.931  0.0939  2.1655 -1.2060
   58SAPC   C27 4339   0.305   0.037   9.813  0.0445  0.3034  0.2067
   58SAPC   H7R 4340   0.408  -0.003   9.831  1.0032  2.4831 -0.1165
   58SAPC   H7S 4341   0.298   0.138   9.767  1.9233 -0.5813 -2.2702
   58SAPC   C28 4342   0.244  -0.049   9.702  1.2538 -0.5026 -0.4215
   58SAPC   H8R 4343   0.195  -0.142   9.735  1.9127 -1.4370 -1.9851
   58SAPC   C29 4344   0.219  -0.003   9.580  0.3249 -0.8123  0.5245
   58SAPC   H9R 4345   0.168  -0.068   9.507 -1.9976 -0.8762  2.1213
   58SAPC  C210 4346   0.268   0.124   9.508  0.1576  0.6073  0.1069
   58SAPC  H10R 4347   0.291   0.099   9.402  2.0056 -1.9381  1.0166
   58SAPC  H10S 4348   0.357   0.166   9.559  1.8489 -1.8400 -0.6583
   58SAPC  C211 4349   0.167   0.238   9.510  0.2576 -0.0240 -0.3335
   58SAPC  H11R 4350   0.114   0.255   9.604 -1.0685  1.4525 -1.3077
   58SAPC  C212 4351   0.114   0.303   9.408  0.1984  0.6505 -0.2702
   58SAPC  H12R 4352   0.039   0.381   9.425  0.6731  0.9486  0.4961
   58SAPC  C213 4353   0.132   0.278   9.262 -0.0520 -0.7533  0.1215
   58SAPC  H13R 4354   0.089   0.181   9.229  1.7107 -1.2671 -0.7682
   58SAPC  H13S 4355   0.239   0.264   9.239 -0.5040 -2.1593 -1.2921
   58SAPC  C214 4356   0.076   0.391   9.177  0.4270 -0.5687  0.1769
   58SAPC  H14R 4357   0.077   0.491   9.223  2.4420 -0.4318 -0.0953
   58SAPC  C215 4358   0.045   0.378   9.048  0.1085  0.0414 -0.2691
   58SAPC  H15R 4359  -0.005   0.459   8.993 -0.1328  0.6489  0.8137
   58SAPC  C216 4360   0.073   0.258   8.962  0.3683 -0.4694  0.6329
   58SAPC  H16R 4361   0.053   0.165   9.020 -1.6489 -2.0485 -2.3218
   58SAPC  H16S 4362   0.182   0.256   8.938  0.6250  0.9760  1.5826
   58SAPC  C217 4363  -0.029   0.270   8.841 -0.1780  0.7679 -0.3341
   58SAPC  H17R 4364  -0.009   0.358   8.776  2.0903  2.0322  1.8628
   58SAPC  H17S 4365  -0.135   0.284   8.871 -0.6535  0.9807 -2.0139
   58SAPC  C218 4366  -0.027   0.147   8.761 -0.2288 -0.3496  0.4272
   58SAPC  H18R 4367  -0.036   0.050   8.815  4.3318 -0.3721  1.5147
   58SAPC  H18S 4368   0.063   0.149   8.696 -0.3848 -0.6333  0.1987
   58SAPC  C219 4369  -0.147   0.151   8.662 -0.1288 -0.2326 -0.0057
   58SAPC  H19R 4370  -0.115   0.082   8.581  1.0291 -1.8024  1.6918
   58SAPC  H19S 4371  -0.171   0.248   8.615  0.0409  1.4048  3.0285
   58SAPC  C220 4372  -0.279   0.092   8.718 -0.1215 -0.8396  0.5840
   58SAPC  H20R 4373  -0.317   0.148   8.806 -1.9122 -0.5589 -0.3358
   58SAPC  H20S 4374  -0.272  -0.018   8.733  0.2115 -0.6874  1.6191
   58SAPC  H20T 4375  -0.351   0.107   8.635 -0.2312  2.0135  1.0803
   58SAPC   C33 4376   0.880  -0.491  10.355  0.0626  0.0461 -0.2206
   58SAPC   H3X 4377   0.926  -0.571  10.417 -0.0990 -0.2996 -0.5475
   58SAPC   H3Y 4378   0.966  -0.442  10.304 -0.5483  0.1401 -1.1730
   58SAPC   C34 4379   0.787  -0.548  10.246 -0.5303 -0.4717 -0.1267
   58SAPC   H4X 4380   0.698  -0.595  10.294 -0.6518  0.5729  0.7023
   58SAPC   H4Y 4381   0.846  -0.631  10.202 -0.5487 -1.5462  1.7844
   58SAPC   C35 4382   0.739  -0.435  10.151  0.2387 -0.2979  0.2698
   58SAPC   H5X 4383   0.820  -0.363  10.126  0.0053 -0.8757 -2.4288
   58SAPC   H5Y 4384   0.665  -0.369  10.202  2.0836 -1.0154  4.2926
   58SAPC   C36 4385   0.668  -0.493  10.026 -1.0398  0.1969 -0.2129
   58SAPC   H6X 4386   0.602  -0.408   9.995 -1.3032 -0.1846 -0.7134
   58SAPC   H6Y 4387   0.601  -0.578  10.051 -1.4382  0.5375 -0.1113
   58SAPC   C37 4388   0.779  -0.528   9.917 -0.6007 -0.6019 -0.6143
   58SAPC   H7X 4389   0.840  -0.613   9.954 -1.1532 -1.3728 -1.4330
   58SAPC   H7Y 4390   0.844  -0.442   9.892 -0.4507 -0.1624  1.1732
   58SAPC   C38 4391   0.715  -0.582   9.789 -0.0619 -0.1003  0.8894
   58SAPC   H8X 4392   0.633  -0.516   9.752 -0.9119 -1.6019 -0.0226
   58SAPC   H8Y 4393   0.663  -0.677   9.811 -2.8989  1.3364  0.8609
   58SAPC   C39 4394   0.822  -0.614   9.676  0.0450  0.0592 -0.0934
   58SAPC   H9X 4395   0.893  -0.686   9.721  2.5395  2.5939  0.2764
   58SAPC   H9Y 4396   0.878  -0.519   9.660  0.0018  0.0442 -0.3361
   58SAPC  C310 4397   0.747  -0.650   9.546  0.5722 -0.0019 -0.0596
   58SAPC  H10X 4398   0.652  -0.592   9.548  1.1826  1.0279  2.0213
   58SAPC  H10Y 4399   0.733  -0.760   9.543 -0.6884  0.1650 -1.0439
   58SAPC  C311 4400   0.826  -0.610   9.424 -0.1523 -0.7983  0.9511
   58SAPC  H11X 4401   0.918  -0.672   9.420  1.6463  1.7230  0.6766
   58SAPC  H11Y 4402   0.857  -0.504   9.440  1.7794 -0.8211 -1.8211
   58SAPC  C312 4403   0.752  -0.632   9.294  0.2651 -0.1730 -0.2956
   58SAPC  H12X 4404   0.716  -0.737   9.287  0.0290  0.0061 -3.5742
   58SAPC  H12Y 4405   0.808  -0.601   9.203 -0.2782 -0.3762 -0.7044
   58SAPC  C313 4406   0.619  -0.548   9.277 -0.4356  0.1946 -0.2437
   58SAPC  H13X 4407   0.633  -0.438   9.272 -3.3734  0.6381 -0.2561
   58SAPC  H13Y 4408   0.552  -0.554   9.365 -1.5374  4.0756 -0.6594
   58SAPC  C314 4409   0.551  -0.571   9.141  0.0382  0.5302  0.1444
   58SAPC  H14X 4410   0.623  -0.556   9.058  0.3253  0.3926  0.3654
   58SAPC  H14Y 4411   0.497  -0.478   9.112 -0.4846  0.5121  1.0186
   58SAPC  C315 4412   0.464  -0.697   9.138 -0.1483  0.1835  0.3161
   58SAPC  H15X 4413   0.375  -0.678   9.201  0.0580 -0.5320  0.8396
   58SAPC  H15Y 4414   0.517  -0.787   9.175 -0.3316 -0.1487 -0.2249
   58SAPC  C316 4415   0.399  -0.732   9.002 -0.2332  0.4151  0.0069
   58SAPC  H16X 4416   0.348  -0.645   8.956 -1.2133  0.1676  0.5990
   58SAPC  H16Y 4417   0.313  -0.802   9.009 -0.1921  0.2979 -0.6054
   58SAPC  C317 4418   0.498  -0.792   8.900  0.2508 -0.6299  0.3900
   58SAPC  H17X 4419   0.599  -0.747   8.915 -0.7478  1.2311  2.0451
   58SAPC  H17Y 4420   0.468  -0.775   8.795 -0.0900 -1.7877  0.2914
   58SAPC  C318 4421   0.507  -0.938   8.919  0.9210 -0.1419  0.2064
   58SAPC  H18X 4422   0.588  -0.990   8.865  1.7949 -0.5453  1.8486
   58SAPC  H18Y 4423   0.408  -0.979   8.888 -0.2372  2.2438  0.4260
   58SAPC  H18Z 4424   0.528  -0.971   9.023  2.5443 -0.8536 -0.3166
   59SAPC     N 4425   0.738   3.006  10.888  0.5429  0.1373  0.1204
   59SAPC   C12 4426   0.705   3.006  10.743  0.0929 -0.2530 -0.6649
   59SAPC  H12A 4427   0.702   3.112  10.721 -1.0170  0.6739  3.1314
   59SAPC  H12B 4428   0.603   2.973  10.730 -0.1672  0.4522 -0.4822
   59SAPC   C13 4429   0.684   3.127  10.964 -0.0400 -0.6356  0.0623
   59SAPC  H13A 4430   0.694   3.121  11.071  0.8657 -1.0482 -0.0408
   59SAPC  H13B 4431   0.748   3.208  10.932 -1.9718  0.0391 -2.5198
   59SAPC  H13C 4432   0.586   3.153  10.927  0.2188 -1.8641 -1.5760
   59SAPC   C14 4433   0.666   2.880  10.941 -0.4400 -0.3309  0.0223
   59SAPC  H14A 4434   0.696   2.856  11.042 -0.1363  0.3858  0.1015
   59SAPC  H14B 4435   0.563   2.911  10.948 -0.3660 -0.0859  0.0209
   59SAPC  H14C 4436   0.694   2.796  10.879 -0.5535  0.8796 -1.7451
   59SAPC   C15 4437   0.883   2.988  10.927 -0.3517  0.3774  0.1006
   59SAPC  H15A 4438   0.943   3.077  10.914 -2.0110  1.8021  1.5631
   59SAPC  H15B 4439   0.892   2.965  11.032  0.2941  0.6834  0.1205
   59SAPC  H15C 4440   0.936   2.910  10.874 -2.2137 -1.9574  1.4706
   59SAPC   C11 4441   0.802   2.916  10.655 -1.1449  0.6477  0.6738
   59SAPC  H11A 4442   0.908   2.948  10.664 -0.8538 -0.3577  0.8847
   59SAPC  H11B 4443   0.766   2.937  10.551 -3.0837  0.3820  1.2408
   59SAPC     P 4444   0.677   2.694  10.630 -0.0520  0.1272  0.3113
   59SAPC   O13 4445   0.702   2.552  10.661  0.4319 -0.2990  0.3925
   59SAPC   O14 4446   0.553   2.752  10.674  0.5960 -0.3663 -0.2160
   59SAPC   O12 4447   0.795   2.777  10.688 -0.5679 -0.2259 -0.5757
   59SAPC   O11 4448   0.695   2.718  10.472  0.1932  0.0592  0.2789
   59SAPC    C1 4449   0.825   2.672  10.421 -0.0525  0.5301  1.0288
   59SAPC    HA 4450   0.894   2.759  10.427 -0.8357  1.3104 -0.7365
   59SAPC    HB 4451   0.866   2.573  10.451 -0.4865  0.4553  1.3881
   59SAPC    C2 4452   0.816   2.665  10.264 -0.7361  0.6137 -0.1646
   59SAPC    HS 4453   0.921   2.659  10.227 -0.3317  1.9794  0.6803
   59SAPC   O21 4454   0.748   2.784  10.212 -0.1849 -0.4887  0.1799
   59SAPC   C21 4455   0.814   2.898  10.218 -0.6378 -0.7910 -0.0091
   59SAPC   O22 4456   0.934   2.904  10.234  0.1718 -0.2348  0.4328
   59SAPC   C22 4457   0.736   3.020  10.170  0.1717  0.6996 -0.0594
   59SAPC   H2R 4458   0.632   3.026  10.209 -0.0964 -2.7946  0.0247
   59SAPC   H2S 4459   0.785   3.116  10.198  0.6789  1.3174 -2.8461
   59SAPC    C3 4460   0.737   2.539  10.223 -0.1835  0.3201 -0.1478
   59SAPC    HX 4461   0.640   2.552  10.274 -0.2802  1.5264 -0.6126
   59SAPC    HY 4462   0.791   2.447  10.256 -0.7646 -0.6756 -1.8698
   59SAPC   O31 4463   0.731   2.547  10.078 -0.4112  0.5284 -0.5701
   59SAPC   C31 4464   0.634   2.480  10.020 -0.8005  0.5766  0.4122
   59SAPC   O32 4465   0.550   2.414  10.076  0.8838 -0.0330  0.4900
   59SAPC   C32 4466   0.641   2.509   9.867  0.0981  0.7695 -0.8063
   59SAPC   H2X 4467   0.539   2.505   9.822 -0.0618 -0.0907 -0.3861
   59SAPC   H2Y 4468   0.705   2.427   9.829 -1.6032 -0.6296 -0.7956
   59SAPC   C23 4469   0.734   3.023  10.017  0.0621 -0.4575  0.3238
   59SAPC   H3R 4470   0.666   2.947   9.974 -0.3312  0.2433 -0.3039
   59SAPC   H3S 4471   0.841   3.020   9.988  0.1338 -0.2210  0.5566
   59SAPC   C24 4472   0.679   3.158   9.963  0.4695  0.9305 -0.4670
   59SAPC   H4R 4473   0.739   3.181   9.872  0.3260  1.4754 -0.4288
   59SAPC   H4S 4474   0.703   3.234  10.040 -1.6540  0.4067  0.7773
   59SAPC   C25 4475   0.533   3.150   9.929 -0.0965  0.1484  0.2816
   59SAPC   H5R 4476   0.476   3.140  10.022  0.5203 -2.1560  0.4689
   59SAPC   C26 4477   0.479   3.155   9.802 -0.2563  0.2300 -0.4380
   59SAPC   H6R 4478   0.372   3.135   9.791  0.0525 -1.6502 -0.2488
   59SAPC   C27 4479   0.557   3.151   9.676 -0.1220  0.8214  0.2257
   59SAPC   H7R 4480   0.661   3.183   9.695  0.5627 -1.0672 -0.1751
   59SAPC   H7S 4481   0.509   3.220   9.603 -0.0494  0.4565 -0.1711
   59SAPC   C28 4482   0.551   3.006   9.622 -0.5651 -0.5169 -0.4316
   59SAPC   H8R 4483   0.520   2.929   9.695  0.2077  1.3087  1.9756
   59SAPC   C29 4484   0.599   2.965   9.505  0.6267  0.2586 -0.5922
   59SAPC   H9R 4485   0.580   2.858   9.486  2.4673 -0.4393  1.0206
   59SAPC  C210 4486   0.666   3.049   9.401 -0.5172  0.1259 -0.1536
   59SAPC  H10R 4487   0.705   3.140   9.452  0.6937  0.3282 -1.3707
   59SAPC  H10S 4488   0.582   3.084   9.337 -0.6527 -1.4191 -0.8600
   59SAPC  C211 4489   0.776   2.980   9.318 -0.2361  0.1754 -0.4791
   59SAPC  H11R 4490   0.871   2.956   9.369  1.5578 -0.1231 -3.7364
   59SAPC  C212 4491   0.765   2.932   9.194  0.3997 -0.0192  0.1896
   59SAPC  H12R 4492   0.852   2.892   9.139  0.3312  0.2890 -0.1432
   59SAPC  C213 4493   0.652   2.944   9.094 -0.5071  0.1559  0.0219
   59SAPC  H13R 4494   0.563   2.972   9.153  0.4912 -0.2288  1.7654
   59SAPC  H13S 4495   0.634   2.847   9.043 -1.5568  0.1111  0.4604
   59SAPC  C214 4496   0.673   3.045   8.989 -0.5348 -0.2797 -0.2123
   59SAPC  H14R 4497   0.708   3.140   9.032  0.7810 -1.6608  1.9992
   59SAPC  C215 4498   0.646   3.039   8.863  0.5921  0.3635  0.8668
   59SAPC  H15R 4499   0.677   3.125   8.803  1.0451  0.8383  1.7563
   59SAPC  C216 4500   0.599   2.919   8.785  0.1128  1.0466  0.0482
   59SAPC  H16R 4501   0.493   2.894   8.807  0.3377  0.1101  0.0858
   59SAPC  H16S 4502   0.652   2.835   8.834 -0.6342 -0.4776 -1.6522
   59SAPC  C217 4503   0.613   2.925   8.633 -0.1329  0.6223 -0.0789
   59SAPC  H17R 4504   0.562   3.017   8.598  0.1831  0.6205 -0.5553
   59SAPC  H17S 4505   0.563   2.834   8.593  1.2203  0.3450 -1.2125
   59SAPC  C218 4506   0.762   2.920   8.591  0.5003 -0.4204 -0.3415
   59SAPC  H18R 4507   0.818   2.828   8.616  0.4072 -0.3343  0.1985
   59SAPC  H18S 4508   0.809   2.997   8.655  1.6214 -1.5636  0.2562
   59SAPC  C219 4509   0.785   2.965   8.452 -0.5426 -0.1737  0.1155
   59SAPC  H19R 4510   0.701   2.931   8.388  0.3733 -1.9845 -0.1735
   59SAPC  H19S 4511   0.873   2.909   8.414  0.4137 -0.0119  1.9739
   59SAPC  C220 4512   0.796   3.117   8.442  0.3022  0.0157 -0.0012
   59SAPC  H20R 4513   0.697   3.155   8.474  0.5208 -0.0816  0.7990
   59SAPC  H20S 4514   0.798   3.143   8.334 -1.1231 -0.5462 -0.1847
   59SAPC  H20T 4515   0.860   3.170   8.515 -1.1956 -1.3134  2.4115
   59SAPC   C33 4516   0.688   2.655   9.824  0.4699  0.0903 -0.1875
   59SAPC   H3X 4517   0.787   2.670   9.871 -0.4607  0.7639  1.6363
   59SAPC   H3Y 4518   0.613   2.733   9.849 -2.2894 -2.1493 -0.9956
   59SAPC   C34 4519   0.723   2.667   9.672  0.8005  0.1400 -0.5863
   59SAPC   H4X 4520   0.757   2.772   9.661  0.4255  0.2289 -0.9096
   59SAPC   H4Y 4521   0.635   2.656   9.606  0.6568 -0.8552 -0.2468
   59SAPC   C35 4522   0.833   2.568   9.629 -0.0832 -0.6084  0.5468
   59SAPC   H5X 4523   0.788   2.473   9.592  2.9336 -2.1149  0.4254
   59SAPC   H5Y 4524   0.910   2.553   9.708  0.2617  0.8190  0.4942
   59SAPC   C36 4525   0.898   2.640   9.506  0.1906  0.2678  0.4192
   59SAPC   H6X 4526   0.940   2.738   9.536  0.2413  1.0377 -1.9765
   59SAPC   H6Y 4527   0.816   2.649   9.432 -1.1997 -1.9364  1.5793
   59SAPC   C37 4528   1.020   2.563   9.459  0.0061 -0.1973  0.1097
   59SAPC   H7X 4529   0.999   2.457   9.433  3.4951 -0.9031 -0.4387
   59SAPC   H7Y 4530   1.089   2.558   9.546 -0.7904 -0.7147  0.7248
   59SAPC   C38 4531   1.096   2.640   9.347 -0.2546  1.2755 -0.3887
   59SAPC   H8X 4532   1.194   2.593   9.327 -0.8565  0.8436 -2.5490
   59SAPC   H8Y 4533   1.104   2.748   9.375 -1.9859  0.8008  2.3583
   59SAPC   C39 4534   1.025   2.635   9.203  0.6560  0.3835 -0.2015
   59SAPC   H9X 4535   0.928   2.689   9.202  1.0688  1.1264 -0.4181
   59SAPC   H9Y 4536   0.996   2.528   9.193  0.1787  0.7252 -3.6780
   59SAPC  C310 4537   1.113   2.662   9.088 -0.4697 -0.7181 -0.7742
   59SAPC  H10X 4538   1.200   2.593   9.087  0.0224 -0.1224 -0.2556
   59SAPC  H10Y 4539   1.149   2.765   9.109 -2.7362 -0.2092  0.9221
   59SAPC  C311 4540   1.058   2.655   8.949  0.2410 -0.9359  0.9920
   59SAPC  H11X 4541   1.142   2.635   8.880 -0.4102  2.2224 -0.9006
   59SAPC  H11Y 4542   1.019   2.750   8.907 -0.4325 -1.3162  0.7376
   59SAPC  C312 4543   0.961   2.539   8.926 -0.2785  1.1402 -0.0087
   59SAPC  H12X 4544   0.861   2.547   8.974 -0.2746 -0.2633  0.2807
   59SAPC  H12Y 4545   1.006   2.449   8.975 -2.6600 -0.0390  0.1455
   59SAPC  C313 4546   0.936   2.499   8.776  0.1580 -0.0165  0.5142
   59SAPC  H13X 4547   1.038   2.496   8.732 -0.5055  2.1108 -1.3824
   59SAPC  H13Y 4548   0.878   2.582   8.729 -0.0808 -0.9296 -0.8672
   59SAPC  C314 4549   0.868   2.361   8.768  0.4467 -0.3586 -0.2048
   59SAPC  H14X 4550   0.769   2.373   8.818  0.6619  2.0226 -0.2043
   59SAPC  H14Y 4551   0.932   2.291   8.826 -0.2937 -0.6021  0.3300
   59SAPC  C315 4552   0.832   2.300   8.627 -0.4353  0.0829 -0.2208
   59SAPC  H15X 4553   0.755   2.369   8.585  1.3187  2.3485  0.1191
   59SAPC  H15Y 4554   0.792   2.205   8.669  1.7230 -0.7568  0.0560
   59SAPC  C316 4555   0.952   2.286   8.531 -0.1500 -0.7174 -0.7439
   59SAPC  H16X 4556   1.002   2.383   8.511  0.6782 -1.1872 -0.9722
   59SAPC  H16Y 4557   0.911   2.257   8.432  0.7903 -0.0284 -1.3490
   59SAPC  C317 4558   1.052   2.176   8.568  0.1899 -0.0937 -0.2503
   59SAPC  H17X 4559   0.996   2.081   8.585 -1.2995  0.6744 -0.6397
   59SAPC  H17Y 4560   1.102   2.200   8.664 -1.4894  0.8929  0.4254
   59SAPC  C318 4561   1.162   2.166   8.468  0.1105  0.1673  0.3890
   59SAPC  H18X 4562   1.236   2.249   8.471 -0.1788  0.4768 -0.6921
   59SAPC  H18Y 4563   1.122   2.148   8.366 -0.1202 -0.8018  0.6418
   59SAPC  H18Z 4564   1.216   2.069   8.474  0.0022  0.0087 -1.0086
   60SAPC     N 4565   2.179   6.482  10.766 -0.2645 -0.1660 -0.3415
   60SAPC   C12 4566   2.102   6.352  10.809 -0.1277  0.2206  0.4357
   60SAPC  H12A 4567   2.083   6.346  10.915 -2.3081  0.7873  0.1268
   60SAPC  H12B 4568   2.172   6.272  10.791  2.4706  1.7506  2.8581
   60SAPC   C13 4569   2.108   6.605  10.799 -0.0531  0.2405  0.7183
   60SAPC  H13A 4570   2.016   6.611  10.742 -0.4505  4.8587  1.4851
   60SAPC  H13B 4571   2.071   6.609  10.900 -0.5240  2.2718  0.5137
   60SAPC  H13C 4572   2.163   6.695  10.777 -0.1508  0.3018  0.7205
   60SAPC   C14 4573   2.311   6.488  10.831  1.1817 -0.7118  0.8995
   60SAPC  H14A 4574   2.362   6.395  10.811 -0.9393 -1.1165 -4.1489
   60SAPC  H14B 4575   2.377   6.563  10.791  0.3873 -1.2183 -1.5087
   60SAPC  H14C 4576   2.297   6.514  10.935 -0.4907 -0.6663  0.6917
   60SAPC   C15 4577   2.204   6.479  10.615  0.2606  0.2506  0.8894
   60SAPC  H15A 4578   2.112   6.504  10.563  0.6901  1.2401  0.5747
   60SAPC  H15B 4579   2.280   6.551  10.586  0.8915 -1.0989 -0.9891
   60SAPC  H15C 4580   2.239   6.383  10.580 -1.1451 -0.6493  1.8624
   60SAPC   C11 4581   1.964   6.322  10.747  0.0859  0.1952 -0.1543
   60SAPC  H11A 4582   1.934   6.225  10.792 -0.2550  1.2223  1.9112
   60SAPC  H11B 4583   1.975   6.311  10.637 -1.6526 -1.5973 -0.2155
   60SAPC     P 4584   1.742   6.455  10.721 -0.0574  0.0812 -0.4312
   60SAPC   O13 4585   1.645   6.370  10.782 -0.0100  0.5790  0.1666
   60SAPC   O14 4586   1.708   6.599  10.725  0.1630 -0.2082  0.0841
   60SAPC   O12 4587   1.874   6.426  10.789  0.0918  0.1057 -0.2656
   60SAPC   O11 4588   1.756   6.421  10.563 -0.0432  0.4558  0.5035
   60SAPC    C1 4589   1.650   6.439  10.471  0.6501  0.4884  0.1057
   60SAPC    HA 4590   1.617   6.545  10.468  2.9499  1.4169  2.9888
   60SAPC    HB 4591   1.687   6.410  10.370 -0.2904  0.4711 -0.2394
   60SAPC    C2 4592   1.517   6.359  10.501  0.2076 -0.3198 -0.9538
   60SAPC    HS 4593   1.492   6.401  10.601  1.4629  0.7212 -1.0383
   60SAPC   O21 4594   1.536   6.222  10.498  1.0818  0.6575  0.9459
   60SAPC   C21 4595   1.468   6.154  10.587  1.1305 -1.2696 -0.0669
   60SAPC   O22 4596   1.387   6.201  10.666 -0.1802 -0.0873 -0.7508
   60SAPC   C22 4597   1.502   6.009  10.561  0.0842 -0.4308  0.5609
   60SAPC   H2R 4598   1.537   6.002  10.456 -1.7148 -0.2558 -0.0983
   60SAPC   H2S 4599   1.581   5.994  10.637  0.5173 -0.1964  0.1635
   60SAPC    C3 4600   1.392   6.389  10.404  0.7394 -0.3755 -0.2833
   60SAPC    HX 4601   1.309   6.339  10.458  0.2749  0.4252 -0.2388
   60SAPC    HY 4602   1.397   6.344  10.302 -0.5737 -1.3520  0.0477
   60SAPC   O31 4603   1.358   6.526  10.386 -0.6777  0.3064 -0.5876
   60SAPC   C31 4604   1.260   6.583  10.455 -0.9063 -0.0441  0.1376
   60SAPC   O32 4605   1.191   6.521  10.530 -0.0649 -0.1252 -0.0948
   60SAPC   C32 4606   1.255   6.731  10.425  0.5591  0.2924  0.2473
   60SAPC   H2X 4607   1.338   6.758  10.356 -1.0083  0.8050 -1.5259
   60SAPC   H2Y 4608   1.263   6.783  10.523  0.2614 -0.5355  0.7143
   60SAPC   C23 4609   1.386   5.907  10.570 -0.1069  0.8783 -0.0177
   60SAPC   H3R 4610   1.329   5.925  10.664  0.1046  1.3238  0.0284
   60SAPC   H3S 4611   1.444   5.812  10.574 -0.1717  0.7589 -1.3707
   60SAPC   C24 4612   1.294   5.895  10.451 -0.2393 -0.4487  0.5345
   60SAPC   H4R 4613   1.222   5.811  10.446  2.2757 -2.6578 -1.8252
   60SAPC   H4S 4614   1.371   5.889  10.371 -1.5863  2.1517 -1.0817
   60SAPC   C25 4615   1.222   6.021  10.428 -0.0205 -0.2621 -0.3543
   60SAPC   H5R 4616   1.181   6.065  10.519 -0.1369 -0.4250 -0.3269
   60SAPC   C26 4617   1.211   6.087  10.312  0.0712  0.1894  0.1826
   60SAPC   H6R 4618   1.154   6.182  10.312  0.7482  0.6049 -0.2124
   60SAPC   C27 4619   1.266   6.067  10.170 -0.7212 -0.2066 -0.5956
   60SAPC   H7R 4620   1.328   5.975  10.173 -1.6325 -0.8219  1.7053
   60SAPC   H7S 4621   1.329   6.154  10.141 -0.4792  0.0325  0.5770
   60SAPC   C28 4622   1.157   6.044  10.069  0.3393  0.2351 -0.3991
   60SAPC   H8R 4623   1.094   5.957  10.093 -0.0164  1.1426  2.3611
   60SAPC   C29 4624   1.125   6.120   9.965  0.0128  0.4599  0.8141
   60SAPC   H9R 4625   1.045   6.083   9.899  1.3954 -3.5542  1.1004
   60SAPC  C210 4626   1.188   6.256   9.920  0.0031  0.5785  0.0796
   60SAPC  H10R 4627   1.129   6.291   9.833 -0.9958 -0.0179  0.4955
   60SAPC  H10S 4628   1.289   6.235   9.878  0.6090 -0.0153  1.7479
   60SAPC  C211 4629   1.191   6.353  10.031 -0.3010 -1.2390 -0.3239
   60SAPC  H11R 4630   1.128   6.332  10.119  0.1263  1.9193  0.8721
   60SAPC  C212 4631   1.272   6.457  10.039  0.3229  0.5962  0.0589
   60SAPC  H12R 4632   1.257   6.516  10.130  1.1651  0.7985  0.0747
   60SAPC  C213 4633   1.375   6.495   9.934  0.3317 -0.7478 -0.6307
   60SAPC  H13R 4634   1.356   6.445   9.837 -1.0272 -1.5436  0.0288
   60SAPC  H13S 4635   1.472   6.458   9.974  1.6768  2.1035 -1.0001
   60SAPC  C214 4636   1.391   6.648   9.938 -0.8130 -0.2530  0.3406
   60SAPC  H14R 4637   1.450   6.685  10.024 -1.1057  0.7801  0.1103
   60SAPC  C215 4638   1.337   6.732   9.851  0.2525 -0.4432  0.4438
   60SAPC  H15R 4639   1.353   6.840   9.866 -0.9356 -0.1573 -0.2586
   60SAPC  C216 4640   1.244   6.690   9.737 -0.0525  0.5286  0.4879
   60SAPC  H16R 4641   1.166   6.768   9.736  0.3074  0.8993 -1.4285
   60SAPC  H16S 4642   1.193   6.593   9.759 -1.2020  0.7256 -1.1842
   60SAPC  C217 4643   1.310   6.692   9.594 -0.2356 -0.3860 -0.2712
   60SAPC  H17R 4644   1.402   6.630   9.593  0.7546  0.9895  0.4716
   60SAPC  H17S 4645   1.323   6.797   9.560 -0.2370 -0.2867  0.0260
   60SAPC  C218 4646   1.201   6.641   9.490 -0.0291  0.1437  0.5364
   60SAPC  H18R 4647   1.108   6.697   9.515 -0.5600 -1.2439  1.8375
   60SAPC  H18S 4648   1.177   6.533   9.501  1.7538 -0.3506 -0.0815
   60SAPC  C219 4649   1.252   6.658   9.341  0.1415  0.1203  0.3527
   60SAPC  H19R 4650   1.278   6.765   9.327 -1.1691  0.2046 -1.9329
   60SAPC  H19S 4651   1.176   6.619   9.270 -0.3770  1.3581  0.2080
   60SAPC  C220 4652   1.393   6.595   9.319 -0.5552  0.2568  0.1925
   60SAPC  H20R 4653   1.384   6.489   9.351 -0.0535 -0.9065 -3.2165
   60SAPC  H20S 4654   1.457   6.650   9.391 -2.6509  0.5582  1.9419
   60SAPC  H20T 4655   1.430   6.599   9.215 -0.0513 -1.9007  0.2320
   60SAPC   C33 4656   1.129   6.793  10.358  0.0113  0.1989  0.0350
   60SAPC   H3X 4657   1.133   6.904  10.357  1.5126  0.1737 -1.5163
   60SAPC   H3Y 4658   1.040   6.778  10.423  0.7455  1.9704  1.5458
   60SAPC   C34 4659   1.100   6.742  10.220  0.3639 -0.0636  0.4340
   60SAPC   H4X 4660   1.065   6.637  10.221 -0.3180  0.0257 -2.8133
   60SAPC   H4Y 4661   1.194   6.747  10.162  1.3039  0.6099  1.9613
   60SAPC   C35 4662   0.988   6.819  10.142 -0.0866 -0.7143 -0.4263
   60SAPC   H5X 4663   1.037   6.915  10.118 -0.3799 -0.7028 -0.9979
   60SAPC   H5Y 4664   0.897   6.848  10.199  1.1558  3.3559 -0.1919
   60SAPC   C36 4665   0.960   6.733  10.015 -1.1928 -0.5079 -0.7566
   60SAPC   H6X 4666   0.927   6.630  10.041  0.3071 -0.7444  0.4150
   60SAPC   H6Y 4667   1.050   6.717   9.952  0.0877  0.1701  0.8257
   60SAPC   C37 4668   0.856   6.798   9.933 -0.2536 -0.1246 -0.1321
   60SAPC   H7X 4669   0.890   6.898   9.899 -0.1527 -0.1480 -0.1001
   60SAPC   H7Y 4670   0.764   6.819   9.992  1.3615 -0.1456  2.5366
   60SAPC   C38 4671   0.803   6.721   9.812 -0.3398 -0.5582  0.3065
   60SAPC   H8X 4672   0.761   6.620   9.832  0.7659 -0.9639  0.6336
   60SAPC   H8Y 4673   0.889   6.708   9.744 -0.4160  1.0477 -0.1401
   60SAPC   C39 4674   0.706   6.807   9.727  0.0930 -0.7689  0.0900
   60SAPC   H9X 4675   0.760   6.889   9.675 -1.8548  0.2900 -0.3356
   60SAPC   H9Y 4676   0.623   6.839   9.793  1.3533  2.5775  0.2428
   60SAPC  C310 4677   0.646   6.744   9.600  0.1624 -0.4826  0.0618
   60SAPC  H10X 4678   0.589   6.819   9.540  0.3909  2.1663  2.8997
   60SAPC  H10Y 4679   0.572   6.666   9.629 -2.3899  1.2655 -1.3039
   60SAPC  C311 4680   0.756   6.684   9.516 -0.0618  0.4608 -0.2334
   60SAPC  H11X 4681   0.818   6.610   9.570  2.2959  0.7312 -2.3561
   60SAPC  H11Y 4682   0.826   6.769   9.500 -0.6682  1.1027  0.4547
   60SAPC  C312 4683   0.724   6.625   9.378 -0.6690 -0.5030 -0.7325
   60SAPC  H12X 4684   0.662   6.703   9.328 -1.2464 -1.2447 -1.1945
   60SAPC  H12Y 4685   0.653   6.543   9.401 -0.2627 -0.6748 -0.0596
   60SAPC  C313 4686   0.845   6.582   9.291 -0.3880  0.5564  0.0430
   60SAPC  H13X 4687   0.891   6.488   9.329  0.7709  1.1185  0.1035
   60SAPC  H13Y 4688   0.917   6.667   9.295  0.2619 -0.0178  0.9987
   60SAPC  C314 4689   0.805   6.547   9.144 -0.2054 -0.4953  0.4310
   60SAPC  H14X 4690   0.769   6.641   9.097  2.4127 -0.1966 -1.1718
   60SAPC  H14Y 4691   0.726   6.470   9.131  0.4363 -1.0513 -0.2688
   60SAPC  C315 4692   0.917   6.489   9.061  1.0373  0.2802 -0.0144
   60SAPC  H15X 4693   0.951   6.389   9.094 -2.1120 -0.2337  2.1456
   60SAPC  H15Y 4694   1.007   6.555   9.061  0.7643  0.6669  0.6336
   60SAPC  C316 4695   0.881   6.479   8.909 -0.0008  0.1378 -0.1458
   60SAPC  H16X 4696   0.809   6.558   8.877 -0.2048  0.2257  0.5117
   60SAPC  H16Y 4697   0.822   6.385   8.902 -0.5142  0.5097 -0.9809
   60SAPC  C317 4698   1.002   6.482   8.810 -0.2279 -0.1288 -0.2749
   60SAPC  H17X 4699   1.088   6.433   8.861  0.1579 -0.2155 -1.0069
   60SAPC  H17Y 4700   1.040   6.587   8.806 -0.5354 -0.0438 -1.1539
   60SAPC  C318 4701   0.971   6.445   8.669 -0.2777  0.2604 -0.3083
   60SAPC  H18X 4702   0.901   6.359   8.668 -0.3255  0.2767  0.4665
   60SAPC  H18Y 4703   1.062   6.413   8.614 -1.4433 -1.4951 -1.2886
   60SAPC  H18Z 4704   0.927   6.536   8.623 -2.1490 -1.4383 -2.0665
   61SAPC     N 4705   2.495   1.572  10.757  0.4666  0.9771 -0.3121
   61SAPC   C12 4706   2.416   1.556  10.630 -0.2739  0.1870 -0.1902
   61SAPC  H12A 4707   2.491   1.539  10.555  0.4068  0.3097  0.4434
   61SAPC  H12B 4708   2.378   1.654  10.606  0.3328  0.7006  0.8523
   61SAPC   C13 4709   2.580   1.441  10.782  0.4872  0.4655  0.1418
   61SAPC  H13A 4710   2.636   1.413  10.694 -1.1615 -3.4289  0.1313
   61SAPC  H13B 4711   2.636   1.451  10.874 -0.0786 -1.2623  0.7048
   61SAPC  H13C 4712   2.521   1.352  10.799  0.4816 -0.3691 -3.4090
   61SAPC   C14 4713   2.593   1.684  10.737 -0.0895  0.2101 -0.4158
   61SAPC  H14A 4714   2.644   1.697  10.831 -2.1541  0.5105  0.7045
   61SAPC  H14B 4715   2.658   1.675  10.651 -1.2174  0.0064 -1.2712
   61SAPC  H14C 4716   2.544   1.779  10.719  2.1122  1.6675  0.8009
   61SAPC   C15 4717   2.398   1.603  10.869  0.1994 -0.1485  0.1166
   61SAPC  H15A 4718   2.337   1.689  10.845  0.4320  0.0051  0.0707
   61SAPC  H15B 4719   2.335   1.520  10.896 -0.3504  0.4824  0.8338
   61SAPC  H15C 4720   2.450   1.622  10.963  1.2793 -1.4807 -0.1745
   61SAPC   C11 4721   2.310   1.442  10.624  0.1262 -0.3239  0.0918
   61SAPC  H11A 4722   2.244   1.465  10.538  0.2407 -0.4506 -0.0294
   61SAPC  H11B 4723   2.246   1.446  10.715  0.4609  0.8302  0.2885
   61SAPC     P 4724   2.430   1.267  10.479 -0.2375 -0.2259 -0.6760
   61SAPC   O13 4725   2.533   1.364  10.432 -0.4871 -0.3195 -0.0809
   61SAPC   O14 4726   2.474   1.124  10.483  0.2887 -0.0864 -1.1328
   61SAPC   O12 4727   2.370   1.310  10.612  0.0628  0.1893  0.5388
   61SAPC   O11 4728   2.300   1.280  10.388 -0.0519  0.4778 -0.5412
   61SAPC    C1 4729   2.181   1.209  10.421 -0.1501 -0.2441  0.0525
   61SAPC    HA 4730   2.165   1.183  10.528  1.0011  1.1853  0.6108
   61SAPC    HB 4731   2.097   1.271  10.385 -0.0923 -0.5326 -0.5895
   61SAPC    C2 4732   2.172   1.068  10.343 -0.2691  0.4509 -0.8522
   61SAPC    HS 4733   2.273   1.023  10.357 -0.0556  0.8428 -1.1285
   61SAPC   O21 4734   2.129   1.088  10.206  0.3430 -0.5486  0.5044
   61SAPC   C21 4735   2.214   1.043  10.122  0.2829 -0.1426  0.6860
   61SAPC   O22 4736   2.321   0.994  10.144 -0.2913 -0.1756  0.2668
   61SAPC   C22 4737   2.152   1.060   9.985  0.3008 -0.3122 -0.1998
   61SAPC   H2R 4738   2.041   1.052   9.985  0.0340  2.1761  1.7076
   61SAPC   H2S 4739   2.179   1.162   9.952 -0.6912 -0.1278 -0.4694
   61SAPC    C3 4740   2.061   0.976  10.400  0.6259 -0.0169  0.5885
   61SAPC    HX 4741   1.970   1.032  10.370  1.5603  0.1244 -2.2715
   61SAPC    HY 4742   2.077   0.955  10.508  0.8841  2.0338  0.9781
   61SAPC   O31 4743   2.056   0.856  10.320  0.3958 -0.7252  0.3475
   61SAPC   C31 4744   2.097   0.746  10.383  0.4808 -0.5146  0.7329
   61SAPC   O32 4745   2.162   0.747  10.486 -0.0382 -0.2809 -0.3792
   61SAPC   C32 4746   2.071   0.629  10.286 -0.6535  0.0169  0.6327
   61SAPC   H2X 4747   1.997   0.657  10.208 -0.7848 -2.0874 -0.0719
   61SAPC   H2Y 4748   2.039   0.542  10.346 -0.8200 -0.6246 -0.3548
   61SAPC   C23 4749   2.218   0.969   9.884  0.3814  0.0463 -0.6522
   61SAPC   H3R 4750   2.201   0.866   9.923  1.9720  0.3449  0.8999
   61SAPC   H3S 4751   2.327   0.988   9.883  0.4000  0.3850  2.1030
   61SAPC   C24 4752   2.157   0.985   9.748  0.0094 -0.4728  0.3868
   61SAPC   H4R 4753   2.191   1.082   9.706  1.5523  0.0433  2.6456
   61SAPC   H4S 4754   2.046   0.998   9.753  0.0893 -0.2764  2.0128
   61SAPC   C25 4755   2.205   0.882   9.653  0.3589  0.3908  0.9136
   61SAPC   H5R 4756   2.281   0.812   9.692  0.8891  0.0819 -0.5696
   61SAPC   C26 4757   2.148   0.855   9.535  1.0650  0.2193  0.6236
   61SAPC   H6R 4758   2.184   0.765   9.484  0.5878 -0.8857  2.1473
   61SAPC   C27 4759   2.044   0.935   9.460 -0.7661  0.3724 -0.4385
   61SAPC   H7R 4760   2.071   1.043   9.470  0.9260 -0.2166  2.2553
   61SAPC   H7S 4761   1.947   0.923   9.513  0.1457  0.3219  1.2699
   61SAPC   C28 4762   2.016   0.887   9.319 -0.0939 -0.4162  0.8141
   61SAPC   H8R 4763   1.984   0.782   9.304 -2.1660  0.0999  1.3336
   61SAPC   C29 4764   2.004   0.965   9.206  0.0380 -0.1075 -0.6689
   61SAPC   H9R 4765   1.977   0.916   9.112 -3.2829 -0.9040  0.5687
   61SAPC  C210 4766   2.008   1.118   9.209 -0.1866 -0.5453  0.7199
   61SAPC  H10R 4767   2.099   1.149   9.265  0.3194 -1.1468  0.2452
   61SAPC  H10S 4768   1.916   1.152   9.262 -1.1588 -0.5248 -0.9269
   61SAPC  C211 4769   2.024   1.184   9.070  0.5982 -0.1057 -0.2411
   61SAPC  H11R 4770   2.128   1.201   9.038  0.3146  1.4948 -0.3945
   61SAPC  C212 4771   1.922   1.214   8.992  0.3993 -0.1456  0.1036
   61SAPC  H12R 4772   1.939   1.272   8.901 -1.2997  0.4589  0.1421
   61SAPC  C213 4773   1.774   1.198   9.028  0.0748  0.4795  0.5184
   61SAPC  H13R 4774   1.764   1.212   9.137  0.1007 -0.1313  0.6039
   61SAPC  H13S 4775   1.739   1.096   9.003  1.8907  0.1437 -0.9130
   61SAPC  C214 4776   1.693   1.297   8.948 -0.2648 -0.1726 -0.0502
   61SAPC  H14R 4777   1.653   1.381   9.008  0.0692  0.9339 -1.3356
   61SAPC  C215 4778   1.659   1.294   8.819 -0.2183 -0.2522 -0.8940
   61SAPC  H15R 4779   1.604   1.380   8.779 -0.9928  0.2243  1.0612
   61SAPC  C216 4780   1.710   1.190   8.720 -0.2767  0.4898  0.3220
   61SAPC  H16R 4781   1.619   1.135   8.687  0.3457 -1.3155  1.4697
   61SAPC  H16S 4782   1.783   1.116   8.759 -0.3410 -1.0063 -2.1459
   61SAPC  C217 4783   1.775   1.258   8.594 -0.1176  0.3382 -0.1592
   61SAPC  H17R 4784   1.840   1.338   8.635 -3.4607  3.1524  0.0742
   61SAPC  H17S 4785   1.691   1.307   8.542  1.3121  1.0526 -1.8685
   61SAPC  C218 4786   1.837   1.159   8.499  0.3467  0.5900 -0.8784
   61SAPC  H18R 4787   1.769   1.076   8.471  1.1562 -0.6394  0.6493
   61SAPC  H18S 4788   1.928   1.121   8.551  0.4163  1.1665 -0.5736
   61SAPC  C219 4789   1.870   1.218   8.359  0.1642 -0.5981 -0.0543
   61SAPC  H19R 4790   1.776   1.265   8.322 -1.8691 -2.9543  1.7516
   61SAPC  H19S 4791   1.892   1.131   8.293  3.1260  0.9372 -1.2987
   61SAPC  C220 4792   1.977   1.324   8.355 -0.5519 -0.0008  1.8489
   61SAPC  H20R 4793   2.008   1.349   8.251 -0.6288  1.3008  2.1204
   61SAPC  H20S 4794   2.068   1.278   8.400 -0.4949  0.8526  2.6308
   61SAPC  H20T 4795   1.954   1.415   8.415 -1.5899 -0.4942  2.2150
   61SAPC   C33 4796   2.210   0.562  10.234 -0.4453  0.2143 -0.3222
   61SAPC   H3X 4797   2.237   0.509  10.328 -1.5258  1.1787  0.5656
   61SAPC   H3Y 4798   2.286   0.636  10.204 -1.9861  0.9872 -2.6366
   61SAPC   C34 4799   2.189   0.467  10.119 -0.0362  0.5004 -0.2637
   61SAPC   H4X 4800   2.115   0.387  10.142  0.8626 -0.1079  0.6005
   61SAPC   H4Y 4801   2.283   0.410  10.105  0.3647  0.5855  1.7791
   61SAPC   C35 4802   2.147   0.534   9.991 -0.2843 -0.2288 -0.2856
   61SAPC   H5X 4803   2.187   0.638   9.989  1.4385 -0.8479 -2.5891
   61SAPC   H5Y 4804   2.037   0.546   9.991 -0.1887  0.7854  0.2475
   61SAPC   C36 4805   2.174   0.451   9.867 -0.4116  0.7209 -0.3579
   61SAPC   H6X 4806   2.114   0.359   9.886  1.3493 -0.9915 -2.5871
   61SAPC   H6Y 4807   2.280   0.421   9.860 -0.1777  1.7339 -1.4446
   61SAPC   C37 4808   2.145   0.522   9.728  0.7057  0.3384  0.1510
   61SAPC   H7X 4809   2.199   0.618   9.720  0.3730  0.4143 -1.9425
   61SAPC   H7Y 4810   2.043   0.565   9.739  0.2863 -0.9728  1.8408
   61SAPC   C38 4811   2.169   0.432   9.604 -0.0442  0.2778  0.1438
   61SAPC   H8X 4812   2.125   0.332   9.620 -1.3124  0.8606  0.4474
   61SAPC   H8Y 4813   2.279   0.420   9.600  0.2705  2.7908 -1.6162
   61SAPC   C39 4814   2.105   0.491   9.478  0.2413 -0.5497 -0.0039
   61SAPC   H9X 4815   2.146   0.593   9.467  0.8631 -0.8908 -0.9488
   61SAPC   H9Y 4816   1.996   0.504   9.497  0.6528  1.0573  1.4364
   61SAPC  C310 4817   2.120   0.395   9.363  1.1015  0.1797  0.7722
   61SAPC  H10X 4818   2.067   0.300   9.387 -0.1138  0.1385 -1.7343
   61SAPC  H10Y 4819   2.229   0.372   9.359  1.4994  1.8901  1.1168
   61SAPC  C311 4820   2.082   0.452   9.227 -0.4433  0.4125  0.8562
   61SAPC  H11X 4821   2.130   0.552   9.217  0.8274 -0.2197  0.3225
   61SAPC  H11Y 4822   1.971   0.455   9.217 -0.3551 -0.3991 -0.7224
   61SAPC  C312 4823   2.141   0.358   9.116  0.0746  0.4807  0.6150
   61SAPC  H12X 4824   2.104   0.253   9.119  0.5232  0.2600 -0.7537
   61SAPC  H12Y 4825   2.248   0.345   9.140 -0.0244  2.1584  2.2233
   61SAPC  C313 4826   2.112   0.414   8.980  0.0911  0.4983  0.3105
   61SAPC  H13X 4827   2.156   0.516   8.975  0.0081  0.4926 -1.2734
   61SAPC  H13Y 4828   2.004   0.422   8.958  0.7057  1.2719 -3.1246
   61SAPC  C314 4829   2.173   0.346   8.866 -0.3198  0.3434 -0.2608
   61SAPC  H14X 4830   2.163   0.401   8.771  0.0151 -0.8223 -0.9950
   61SAPC  H14Y 4831   2.121   0.249   8.852 -3.8397  1.6863  2.0427
   61SAPC  C315 4832   2.330   0.315   8.890  0.6212  0.1830  0.1285
   61SAPC  H15X 4833   2.353   0.227   8.954 -2.4522  0.2566  1.4965
   61SAPC  H15Y 4834   2.369   0.404   8.942  0.3990 -0.4368  1.3889
   61SAPC  C316 4835   2.400   0.302   8.755 -0.8251  0.7806  0.2647
   61SAPC  H16X 4836   2.341   0.231   8.694  0.8181 -1.4873  1.1692
   61SAPC  H16Y 4837   2.501   0.257   8.766 -1.8010 -1.2361  1.5607
   61SAPC  C317 4838   2.418   0.436   8.685  0.3420  0.4358  0.2529
   61SAPC  H17X 4839   2.476   0.511   8.744  0.6131 -0.8351  1.6820
   61SAPC  H17Y 4840   2.318   0.481   8.668 -0.2499 -1.0308 -0.3261
   61SAPC  C318 4841   2.471   0.429   8.545  0.6655  0.1208 -0.4695
   61SAPC  H18X 4842   2.580   0.409   8.536  1.1388  2.0517  0.4876
   61SAPC  H18Y 4843   2.457   0.519   8.482  0.2845  0.7296  0.4743
   61SAPC  H18Z 4844   2.425   0.346   8.487  1.0754 -1.8895  1.8949
   62SAPC     N 4845   4.050   4.206  10.694  0.5748  0.7081 -0.7514
   62SAPC   C12 4846   4.021   4.351  10.702 -0.4139  0.3056  0.2367
   62SAPC  H12A 4847   4.086   4.405  10.770  0.0010  0.4956 -0.3051
   62SAPC  H12B 4848   3.925   4.363  10.750  0.8064 -0.9166  3.2209
   62SAPC   C13 4849   3.949   4.129  10.615  0.2439  0.0026  0.6738
   62SAPC  H13A 4850   3.991   4.031  10.596  0.0762 -0.2046  1.3654
   62SAPC  H13B 4851   3.855   4.115  10.666 -0.6982  0.0094 -0.9753
   62SAPC  H13C 4852   3.932   4.180  10.521 -2.2528 -1.9925 -0.0745
   62SAPC   C14 4853   4.185   4.178  10.639  0.4685 -0.4174 -0.4280
   62SAPC  H14A 4854   4.252   4.253  10.678  0.2552 -0.6887  0.4828
   62SAPC  H14B 4855   4.219   4.078  10.662  2.1928  0.0493 -0.8228
   62SAPC  H14C 4856   4.187   4.181  10.531 -0.1256 -0.0919 -0.4363
   62SAPC   C15 4857   4.038   4.148  10.833  0.6838 -0.4935  0.2482
   62SAPC  H15A 4858   3.938   4.155  10.873  0.7412  2.4529  0.0985
   62SAPC  H15B 4859   4.058   4.042  10.823 -1.0687 -0.7767 -0.9941
   62SAPC  H15C 4860   4.115   4.186  10.898  1.0688  0.1379 -0.5601
   62SAPC   C11 4861   4.023   4.433  10.570 -0.3036 -0.5518  0.5481
   62SAPC  H11A 4862   4.114   4.411  10.509 -0.8998  0.6931 -0.8603
   62SAPC  H11B 4863   4.021   4.540  10.598 -2.2391 -0.1714 -0.7982
   62SAPC     P 4864   3.765   4.461  10.544  0.4349  0.3000  0.2982
   62SAPC   O13 4865   3.654   4.378  10.490  0.5098 -0.3154  0.0165
   62SAPC   O14 4866   3.768   4.474  10.693  0.6210 -0.1477  0.1068
   62SAPC   O12 4867   3.907   4.411  10.496  0.1096  0.5825 -0.0906
   62SAPC   O11 4868   3.773   4.599  10.468  0.1841  0.6759  0.1232
   62SAPC    C1 4869   3.739   4.604  10.323  0.3460 -0.6597  0.0922
   62SAPC    HA 4870   3.777   4.512  10.273  0.4089 -1.5058  1.6317
   62SAPC    HB 4871   3.629   4.595  10.316  0.3483 -1.2066  0.5982
   62SAPC    C2 4872   3.788   4.736  10.259  0.1961 -0.4211 -0.4859
   62SAPC    HS 4873   3.727   4.816  10.306  0.4815 -1.1801  1.2606
   62SAPC   O21 4874   3.755   4.737  10.125  0.6562  0.2174 -0.0525
   62SAPC   C21 4875   3.688   4.837  10.071 -0.3630 -0.1174  0.0219
   62SAPC   O22 4876   3.666   4.944  10.120  0.2321 -0.0943 -0.1830
   62SAPC   C22 4877   3.654   4.796   9.930 -0.0903  0.6201  0.2803
   62SAPC   H2R 4878   3.733   4.728   9.891 -1.2250 -1.3827  1.3670
   62SAPC   H2S 4879   3.563   4.735   9.942  1.7120 -2.0983  0.9993
   62SAPC    C3 4880   3.935   4.772  10.276  0.3879  1.0511  0.3330
   62SAPC    HX 4881   3.999   4.692  10.231  0.9549  2.6619 -1.9234
   62SAPC    HY 4882   3.956   4.777  10.385  1.5894  1.5555  0.1032
   62SAPC   O31 4883   3.987   4.892  10.216 -0.2564 -0.3732  0.4081
   62SAPC   C31 4884   4.113   4.917  10.251  0.2812  0.0680  0.1088
   62SAPC   O32 4885   4.175   4.882  10.349  0.2482 -0.5443 -0.2568
   62SAPC   C32 4886   4.193   4.991  10.149  0.3696 -0.0288  0.0579
   62SAPC   H2X 4887   4.299   4.963  10.165  0.2269 -0.2408  0.6261
   62SAPC   H2Y 4888   4.178   5.099  10.170 -0.2841  0.1783 -1.3517
   62SAPC   C23 4889   3.633   4.925   9.843 -0.1376  0.6633  0.1569
   62SAPC   H3R 4890   3.721   4.992   9.848 -0.0005  0.8215 -2.6975
   62SAPC   H3S 4891   3.549   4.982   9.888  2.8957  3.2886  2.9917
   62SAPC   C24 4892   3.587   4.877   9.704  0.5317 -0.4874  0.1882
   62SAPC   H4R 4893   3.532   4.959   9.654  0.3851 -0.7584 -0.0998
   62SAPC   H4S 4894   3.527   4.786   9.724  0.7450 -0.2388  2.1749
   62SAPC   C25 4895   3.713   4.828   9.638 -0.5450 -0.2316 -0.2823
   62SAPC   H5R 4896   3.770   4.747   9.685  1.7894  0.1613 -2.2260
   62SAPC   C26 4897   3.758   4.866   9.518  0.5517 -0.1691  0.4690
   62SAPC   H6R 4898   3.843   4.815   9.470 -0.7755 -0.5456 -1.6592
   62SAPC   C27 4899   3.676   4.965   9.427  0.3643 -0.1080 -0.3281
   62SAPC   H7R 4900   3.651   5.059   9.481  1.0606 -0.1957  0.1635
   62SAPC   H7S 4901   3.576   4.920   9.413  0.8716 -1.1861 -0.6229
   62SAPC   C28 4902   3.752   4.998   9.297 -0.3967 -0.6050 -0.6925
   62SAPC   H8R 4903   3.828   5.076   9.310 -3.8352  2.6821  1.7685
   62SAPC   C29 4904   3.724   4.942   9.178  0.2143  0.0079  0.0409
   62SAPC   H9R 4905   3.790   4.963   9.093  2.6263 -0.2244  1.7450
   62SAPC  C210 4906   3.607   4.844   9.141 -0.0427  0.0567  0.0021
   62SAPC  H10R 4907   3.595   4.773   9.226 -1.0476 -1.1938 -1.1328
   62SAPC  H10S 4908   3.647   4.777   9.063  0.6976  0.4518  0.0391
   62SAPC  C211 4909   3.473   4.910   9.109 -0.7846  1.2377  0.2447
   62SAPC  H11R 4910   3.446   5.002   9.162 -1.6499  0.2557  1.5677
   62SAPC  C212 4911   3.380   4.855   9.025  0.0029  1.0404  0.0254
   62SAPC  H12R 4912   3.280   4.897   9.008 -0.2760  1.6886  2.8813
   62SAPC  C213 4913   3.410   4.730   8.936  0.3465  0.6115 -0.1922
   62SAPC  H13R 4914   3.312   4.676   8.939  1.1848 -0.9220  1.6442
   62SAPC  H13S 4915   3.487   4.666   8.983  0.1065 -0.5464 -1.3201
   62SAPC  C214 4916   3.458   4.761   8.795  0.4158  0.1616  0.0012
   62SAPC  H14R 4917   3.567   4.765   8.779  0.1703 -0.4289 -2.1338
   62SAPC  C215 4918   3.390   4.775   8.680 -0.3357 -0.1044  0.5950
   62SAPC  H15R 4919   3.440   4.795   8.584  0.0808 -1.8167  0.4092
   62SAPC  C216 4920   3.242   4.755   8.680 -0.2574  0.8749  0.3987
   62SAPC  H16R 4921   3.199   4.805   8.591  1.2235  1.2011 -0.1555
   62SAPC  H16S 4922   3.188   4.788   8.771 -0.4525 -0.8895  0.9598
   62SAPC  C217 4923   3.217   4.601   8.681  0.5143 -0.1471 -0.0579
   62SAPC  H17R 4924   3.239   4.562   8.783 -1.5307 -3.3466 -0.6876
   62SAPC  H17S 4925   3.285   4.537   8.622  0.9625 -2.0152  2.3039
   62SAPC  C218 4926   3.062   4.571   8.647  0.5979  0.5287 -0.7711
   62SAPC  H18R 4927   3.004   4.638   8.715  0.6051 -0.3640  0.1347
   62SAPC  H18S 4928   3.065   4.463   8.672  0.6471  0.9275  1.1232
   62SAPC  C219 4929   3.023   4.599   8.499  0.7202 -0.0721 -0.8819
   62SAPC  H19R 4930   3.040   4.707   8.484 -0.5713  0.1441 -0.8735
   62SAPC  H19S 4931   2.914   4.580   8.492  0.2464  1.3963  1.5739
   62SAPC  C220 4932   3.089   4.508   8.403 -0.1850  0.3824 -0.5468
   62SAPC  H20R 4933   3.078   4.400   8.425  2.0465 -0.2202 -1.9659
   62SAPC  H20S 4934   3.199   4.522   8.392 -0.1540 -0.2811 -1.2187
   62SAPC  H20T 4935   3.058   4.536   8.300 -0.7540  1.0490 -0.2018
   62SAPC   C33 4936   4.143   4.955  10.012 -0.8384 -0.1337 -0.8322
   62SAPC   H3X 4937   4.033   4.971  10.002 -1.1479 -0.5915  1.3217
   62SAPC   H3Y 4938   4.148   4.848   9.982  2.8254 -0.8402  1.6280
   62SAPC   C34 4939   4.208   5.039   9.899 -0.5561 -0.7327 -0.1736
   62SAPC   H4X 4940   4.305   4.993   9.868 -0.4570 -0.6372 -0.0071
   62SAPC   H4Y 4941   4.232   5.143   9.930  2.3978 -1.7586  1.4270
   62SAPC   C35 4942   4.118   5.065   9.776  0.2737  0.5125 -0.5221
   62SAPC   H5X 4943   4.169   5.127   9.699 -0.6010  1.0544 -0.6779
   62SAPC   H5Y 4944   4.032   5.130   9.803 -1.0891 -0.8239 -1.4917
   62SAPC   C36 4945   4.062   4.938   9.715  0.0889 -0.1686 -0.4068
   62SAPC   H6X 4946   3.979   4.949   9.642 -0.5107 -1.5632  0.0369
   62SAPC   H6Y 4947   3.997   4.895   9.794  0.4480 -0.1233 -0.0862
   62SAPC   C37 4948   4.169   4.842   9.666  0.6845 -0.4127 -0.1772
   62SAPC   H7X 4949   4.128   4.739   9.659  1.7994 -0.8485 -0.6812
   62SAPC   H7Y 4950   4.265   4.843   9.723  1.5488 -1.1432 -1.5526
   62SAPC   C38 4951   4.223   4.884   9.527 -0.4030  0.4303  0.0822
   62SAPC   H8X 4952   4.325   4.841   9.530 -0.5833  0.0681  1.2847
   62SAPC   H8Y 4953   4.228   4.995   9.526  2.1798  0.3966  0.9257
   62SAPC   C39 4954   4.148   4.839   9.405 -0.1166 -0.8297  0.2604
   62SAPC   H9X 4955   4.047   4.885   9.408 -0.6176 -1.5376 -2.8584
   62SAPC   H9Y 4956   4.135   4.729   9.397  0.4465 -1.1244  2.6070
   62SAPC  C310 4957   4.219   4.898   9.282 -0.0853 -0.0989  0.4730
   62SAPC  H10X 4958   4.295   4.829   9.239 -1.4899  0.1093 -2.6263
   62SAPC  H10Y 4959   4.277   4.985   9.319 -2.5173  1.6013  0.5882
   62SAPC  C311 4960   4.105   4.943   9.175  0.3423 -0.2281  0.2221
   62SAPC  H11X 4961   4.058   5.035   9.216  1.1562  1.2826 -2.0373
   62SAPC  H11Y 4962   4.025   4.867   9.190 -1.2657  1.0183 -1.5397
   62SAPC  C312 4963   4.154   4.941   9.027 -0.3458  0.5997 -0.2434
   62SAPC  H12X 4964   4.214   4.849   9.010  0.3831  1.1586 -0.7737
   62SAPC  H12Y 4965   4.211   5.035   9.012 -2.1904  2.1204  1.7912
   62SAPC  C313 4966   4.034   4.944   8.938 -0.3978 -0.1678 -0.0331
   62SAPC  H13X 4967   3.965   5.026   8.969 -0.4616 -0.9326  1.9948
   62SAPC  H13Y 4968   3.968   4.855   8.948 -0.3117 -0.2579 -0.2637
   62SAPC  C314 4969   4.074   4.962   8.791  0.1785  0.8537  0.5281
   62SAPC  H14X 4970   4.136   4.872   8.771 -0.3275  0.3627  1.1533
   62SAPC  H14Y 4971   4.135   5.054   8.788 -0.3961  1.3303  2.4295
   62SAPC  C315 4972   3.948   4.964   8.693 -0.2980  0.4198  0.6483
   62SAPC  H15X 4973   3.894   5.059   8.711 -2.5720 -0.5385 -0.7645
   62SAPC  H15Y 4974   3.874   4.886   8.716  0.6087 -0.8076 -0.4427
   62SAPC  C316 4975   3.985   4.945   8.543 -0.0332  0.4591 -0.9676
   62SAPC  H16X 4976   4.031   4.849   8.511 -1.9319 -1.2791  1.2558
   62SAPC  H16Y 4977   4.058   5.028   8.529 -0.4416  0.6510 -2.0894
   62SAPC  C317 4978   3.862   4.960   8.453  0.4078 -0.3762  0.2998
   62SAPC  H17X 4979   3.897   4.964   8.348  0.5754 -0.4803  0.3526
   62SAPC  H17Y 4980   3.824   5.064   8.467  1.3424  0.2546 -1.5467
   62SAPC  C318 4981   3.743   4.863   8.469  0.3165  0.4430 -0.5833
   62SAPC  H18X 4982   3.769   4.760   8.436  2.1194  0.8178 -0.4198
   62SAPC  H18Y 4983   3.659   4.918   8.421  0.0394 -0.7697 -1.5313
   62SAPC  H18Z 4984   3.706   4.860   8.574 -1.3575 -0.9712 -1.1738
   63SAPC     N 4985   3.445   5.890   6.429 -0.3999  0.0323 -0.1053
   63SAPC   C12 4986   3.352   5.974   6.516  0.4991 -0.1902 -0.9394
   63SAPC  H12A 4987   3.309   5.903   6.585 -2.4696  1.8140 -0.5365
   63SAPC  H12B 4988   3.272   6.017   6.456 -1.5202 -3.2642 -0.7199
   63SAPC   C13 4989   3.451   5.941   6.287 -0.6414  0.6293 -0.8295
   63SAPC  H13A 4990   3.356   5.933   6.235 -0.9638 -0.3198 -0.1230
   63SAPC  H13B 4991   3.498   6.039   6.290  0.9451 -0.0511  3.2786
   63SAPC  H13C 4992   3.514   5.891   6.215 -1.9206  0.7770 -2.1036
   63SAPC   C14 4993   3.582   5.883   6.492  0.2689  0.6628 -0.5222
   63SAPC  H14A 4994   3.603   5.801   6.559 -1.6638  1.0862  0.7071
   63SAPC  H14B 4995   3.660   5.886   6.418  0.9925  3.2590  0.2435
   63SAPC  H14C 4996   3.600   5.968   6.557 -1.0745 -0.7367  1.8113
   63SAPC   C15 4997   3.387   5.749   6.418 -1.1787 -0.0787  0.2198
   63SAPC  H15A 4998   3.290   5.750   6.371 -0.9036 -0.0272 -0.3571
   63SAPC  H15B 4999   3.448   5.695   6.348  0.1520 -1.4116  2.3018
   63SAPC  H15C 5000   3.390   5.697   6.513  0.0604  1.2979  0.9845
   63SAPC   C11 5001   3.406   6.098   6.589 -0.1326 -0.2128 -0.0998
   63SAPC  H11A 5002   3.485   6.067   6.662  1.5493 -1.3370 -2.2721
   63SAPC  H11B 5003   3.322   6.155   6.633  0.2061 -0.1917  0.5341
   63SAPC     P 5004   3.590   6.275   6.498 -0.2538 -0.3811  0.3158
   63SAPC   O13 5005   3.712   6.195   6.495 -0.7135 -0.3420 -0.0907
   63SAPC   O14 5006   3.574   6.382   6.395 -0.6065  0.4606 -0.4775
   63SAPC   O12 5007   3.464   6.184   6.491 -0.4954 -0.8757 -0.4185
   63SAPC   O11 5008   3.580   6.349   6.640  0.5583  0.7665 -0.0748
   63SAPC    C1 5009   3.683   6.336   6.738 -0.2821  0.6871 -0.2155
   63SAPC    HA 5010   3.703   6.227   6.747 -1.5045  0.5022  0.5073
   63SAPC    HB 5011   3.776   6.390   6.711  0.3087 -0.6662 -1.0018
   63SAPC    C2 5012   3.643   6.386   6.881  0.3681 -0.1810 -0.4184
   63SAPC    HS 5013   3.735   6.374   6.943  1.5064 -5.5692 -2.5645
   63SAPC   O21 5014   3.544   6.309   6.935  0.6266  0.0275  0.5616
   63SAPC   C21 5015   3.576   6.186   6.963  0.7499  0.0353 -0.1893
   63SAPC   O22 5016   3.688   6.134   6.965  0.2727 -0.0532 -0.0426
   63SAPC   C22 5017   3.437   6.105   6.996 -0.5224 -0.0254 -0.0292
   63SAPC   H2R 5018   3.377   6.175   7.058  1.3132  4.0517 -2.4957
   63SAPC   H2S 5019   3.395   6.099   6.894  1.8030  0.9919 -1.1162
   63SAPC    C3 5020   3.591   6.530   6.876  0.4569 -0.1091 -0.5407
   63SAPC    HX 5021   3.493   6.530   6.824 -1.0544 -0.5092  2.0983
   63SAPC    HY 5022   3.662   6.596   6.822 -1.3258  2.3194 -0.0905
   63SAPC   O31 5023   3.556   6.579   7.008  0.5417  0.8884 -0.1232
   63SAPC   C31 5024   3.662   6.625   7.075  0.2462  1.2569 -0.5970
   63SAPC   O32 5025   3.776   6.609   7.039 -1.1068 -0.1111 -0.4336
   63SAPC   C32 5026   3.616   6.699   7.195 -0.0198 -0.3292  0.6367
   63SAPC   H2X 5027   3.508   6.680   7.208 -0.3648 -0.7181 -2.1300
   63SAPC   H2Y 5028   3.622   6.808   7.175  2.8591 -0.2765  1.2995
   63SAPC   C23 5029   3.457   5.965   7.053  0.5690 -0.3032  0.3417
   63SAPC   H3R 5030   3.536   5.913   6.996  2.3653  1.3696  1.1979
   63SAPC   H3S 5031   3.355   5.927   7.028 -0.1453  1.1806  0.8932
   63SAPC   C24 5032   3.476   5.957   7.207  0.1053 -0.2644  0.5011
   63SAPC   H4R 5033   3.462   5.854   7.245  5.3183 -0.8581  1.6400
   63SAPC   H4S 5034   3.377   5.999   7.233 -1.3421 -1.6562 -2.3351
   63SAPC   C25 5035   3.592   6.032   7.268 -0.8171  0.4589 -0.5886
   63SAPC   H5R 5036   3.682   6.054   7.209  0.2344 -2.6415 -0.3015
   63SAPC   C26 5037   3.601   6.055   7.400  0.1137  0.2536 -0.7674
   63SAPC   H6R 5038   3.682   6.115   7.444 -0.7620 -0.3512  1.8772
   63SAPC   C27 5039   3.491   6.025   7.497 -0.0810  0.1525  0.7195
   63SAPC   H7R 5040   3.527   5.939   7.557  2.9729  0.6676 -0.2067
   63SAPC   H7S 5041   3.400   5.998   7.440 -0.4187  2.7629 -0.1157
   63SAPC   C28 5042   3.456   6.148   7.577  1.1397 -0.0733  0.3331
   63SAPC   H8R 5043   3.443   6.233   7.509  0.7455 -0.6612 -0.3398
   63SAPC   C29 5044   3.435   6.167   7.708 -0.2162 -0.0869  0.2345
   63SAPC   H9R 5045   3.406   6.266   7.746  0.3713  0.6138 -1.0618
   63SAPC  C210 5046   3.445   6.049   7.799 -0.5574  0.1335 -0.3112
   63SAPC  H10R 5047   3.443   5.951   7.747 -0.3471 -0.0260 -0.0186
   63SAPC  H10S 5048   3.353   6.046   7.861 -0.1609 -1.2863  0.2384
   63SAPC  C211 5049   3.577   6.060   7.877 -0.2698  0.6852  0.1526
   63SAPC  H11R 5050   3.670   6.044   7.821  0.7338 -2.3040  2.4293
   63SAPC  C212 5051   3.594   6.086   8.008 -0.8737  0.3107  0.5753
   63SAPC  H12R 5052   3.695   6.086   8.050 -1.0388  3.3775  1.2261
   63SAPC  C213 5053   3.500   6.107   8.126 -0.6713 -0.1265 -0.7448
   63SAPC  H13R 5054   3.554   6.165   8.204 -1.1528  0.5776 -0.9270
   63SAPC  H13S 5055   3.469   6.009   8.169  0.1220  0.0049  0.1657
   63SAPC  C214 5056   3.376   6.187   8.083 -0.5823  0.6987  0.5023
   63SAPC  H14R 5057   3.397   6.249   7.994  0.2065 -0.1342  0.0805
   63SAPC  C215 5058   3.253   6.169   8.123  0.1912  0.3460 -0.0347
   63SAPC  H15R 5059   3.174   6.234   8.080 -0.8377 -1.7863 -1.5461
   63SAPC  C216 5060   3.209   6.090   8.245 -0.1208  0.4622  0.6453
   63SAPC  H16R 5061   3.273   6.001   8.264 -3.6408 -2.7373 -1.3053
   63SAPC  H16S 5062   3.103   6.064   8.226  0.4586 -0.2756 -1.9928
   63SAPC  C217 5063   3.213   6.183   8.369 -0.0638  0.3139  0.3225
   63SAPC  H17R 5064   3.146   6.268   8.343  2.2063  2.5704  1.3739
   63SAPC  H17S 5065   3.319   6.211   8.384  0.9564 -2.3709 -1.2706
   63SAPC  C218 5066   3.162   6.118   8.496  0.1164  1.0182 -0.7454
   63SAPC  H18R 5067   3.152   6.191   8.579 -1.9238  0.3591 -0.3697
   63SAPC  H18S 5068   3.245   6.051   8.528  0.1858  1.5588  0.2281
   63SAPC  C219 5069   3.023   6.040   8.488  0.0545 -0.6387  0.2065
   63SAPC  H19R 5070   3.043   5.941   8.441 -1.0485 -1.0192  0.5054
   63SAPC  H19S 5071   2.965   6.104   8.419 -0.3159 -0.2242  0.9025
   63SAPC  C220 5072   2.947   6.025   8.622  0.5231 -0.1191  0.6553
   63SAPC  H20R 5073   2.854   5.966   8.608  0.3195  0.1433  0.8870
   63SAPC  H20S 5074   2.920   6.127   8.655  1.3710  0.7068 -1.0645
   63SAPC  H20T 5075   3.020   5.970   8.685  0.5690  0.7542  1.3802
   63SAPC   C33 5076   3.687   6.659   7.326  0.2662 -0.3272  0.4483
   63SAPC   H3X 5077   3.648   6.727   7.405  0.2036  1.9013 -1.4063
   63SAPC   H3Y 5078   3.796   6.679   7.318 -0.0810  0.8507 -2.3934
   63SAPC   C34 5079   3.664   6.512   7.366  0.0971 -0.1616 -0.1785
   63SAPC   H4X 5080   3.714   6.451   7.287  0.6353  0.0902 -0.0334
   63SAPC   H4Y 5081   3.555   6.492   7.352 -0.1823  1.6393 -0.8648
   63SAPC   C35 5082   3.710   6.483   7.509 -0.3703 -0.0464 -1.0060
   63SAPC   H5X 5083   3.812   6.522   7.529 -0.0623 -2.1820  2.3444
   63SAPC   H5Y 5084   3.701   6.372   7.510  1.2610 -0.2322 -2.1500
   63SAPC   C36 5085   3.621   6.538   7.628 -0.0735  0.2845  0.0298
   63SAPC   H6X 5086   3.518   6.501   7.609 -0.6141  2.1875 -1.0381
   63SAPC   H6Y 5087   3.612   6.649   7.628 -1.1833  0.2779 -2.6606
   63SAPC   C37 5088   3.674   6.509   7.770  0.4820  0.2329  1.3032
   63SAPC   H7X 5089   3.784   6.525   7.765  0.3144  1.4106  1.1599
   63SAPC   H7Y 5090   3.663   6.400   7.790  1.0739  0.0553  0.7360
   63SAPC   C38 5091   3.605   6.595   7.874  0.0172 -0.0890  0.7024
   63SAPC   H8X 5092   3.495   6.579   7.867  0.3967 -2.2814 -1.4568
   63SAPC   H8Y 5093   3.627   6.702   7.854  0.7881 -0.5355 -0.9418
   63SAPC   C39 5094   3.655   6.580   8.019 -0.1863 -0.2294 -0.9540
   63SAPC   H9X 5095   3.624   6.663   8.086  0.3949  1.1453 -2.3151
   63SAPC   H9Y 5096   3.766   6.577   8.016  0.0154 -1.3579  3.0174
   63SAPC  C310 5097   3.624   6.448   8.081  0.0839 -0.2812  0.2795
   63SAPC  H10X 5098   3.698   6.377   8.036 -0.5961  0.7528 -2.6874
   63SAPC  H10Y 5099   3.525   6.409   8.048 -0.3081  1.7167 -1.1148
   63SAPC  C311 5100   3.620   6.460   8.233 -1.3328 -0.0701  0.9059
   63SAPC  H11X 5101   3.701   6.528   8.266 -1.4064 -1.1663  3.5914
   63SAPC  H11Y 5102   3.645   6.359   8.273 -1.7200 -0.7271 -0.4523
   63SAPC  C312 5103   3.480   6.490   8.294 -0.3102  0.4544  0.5290
   63SAPC  H12X 5104   3.472   6.473   8.403 -0.2622  2.1869  0.8298
   63SAPC  H12Y 5105   3.406   6.420   8.249  0.3327  0.6411 -0.8576
   63SAPC  C313 5106   3.427   6.633   8.275 -0.1678  0.5258  0.1263
   63SAPC  H13X 5107   3.394   6.648   8.170  3.4376  0.5224 -1.1767
   63SAPC  H13Y 5108   3.519   6.696   8.286 -0.4302  1.1591 -1.0939
   63SAPC  C314 5109   3.315   6.673   8.374 -0.3152 -0.4127 -0.5048
   63SAPC  H14X 5110   3.337   6.641   8.477 -1.3751  1.3443  0.3164
   63SAPC  H14Y 5111   3.219   6.620   8.354 -0.2329 -0.6695 -0.2178
   63SAPC  C315 5112   3.292   6.824   8.371 -0.0122 -0.4476  0.3072
   63SAPC  H15X 5113   3.211   6.839   8.446 -1.5640 -0.8287 -1.2491
   63SAPC  H15Y 5114   3.259   6.862   8.272  1.9800  1.7500  0.4018
   63SAPC  C316 5115   3.406   6.920   8.413 -0.0326  0.1641 -0.2754
   63SAPC  H16X 5116   3.358   7.019   8.427 -0.6869 -0.1697 -0.0759
   63SAPC  H16Y 5117   3.475   6.925   8.326  1.2899  0.5854  0.7656
   63SAPC  C317 5118   3.473   6.883   8.544  0.2711 -0.1747 -0.1905
   63SAPC  H17X 5119   3.540   6.965   8.577 -0.2962  0.0234  0.5090
   63SAPC  H17Y 5120   3.533   6.790   8.551  0.6337  0.1409  1.1815
   63SAPC  C318 5121   3.366   6.877   8.657  0.3841  0.3153  0.1910
   63SAPC  H18X 5122   3.325   6.774   8.659 -0.1882  0.5482  1.7161
   63SAPC  H18Y 5123   3.294   6.959   8.635  0.4957 -0.1714 -2.2627
   63SAPC  H18Z 5124   3.421   6.896   8.752  2.1444 -1.1170 -0.4929
   64SAPC     N 5125   6.132   4.856   5.952 -0.3688  1.0239 -0.3904
   64SAPC   C12 5126   6.080   4.966   5.865 -0.1223  0.6014  0.6273
   64SAPC  H12A 5127   6.077   4.933   5.762  0.3322  1.7005  0.2413
   64SAPC  H12B 5128   6.147   5.050   5.876  1.1799 -0.2778 -0.2300
   64SAPC   C13 5129   6.140   4.889   6.098 -0.4389 -0.0801 -0.1718
   64SAPC  H13A 5130   6.185   4.808   6.153  0.0614  0.5121  0.3125
   64SAPC  H13B 5131   6.214   4.968   6.106 -2.5992  1.9120  1.2373
   64SAPC  H13C 5132   6.045   4.922   6.137 -0.8882 -1.0814 -0.4029
   64SAPC   C14 5133   6.049   4.734   5.926 -0.5356  0.1205 -0.4657
   64SAPC  H14A 5134   5.946   4.752   5.952 -0.6805 -0.1978 -0.8228
   64SAPC  H14B 5135   6.053   4.705   5.822  1.8210 -2.5742  0.2267
   64SAPC  H14C 5136   6.100   4.653   5.977 -1.1502 -1.1893 -1.8660
   64SAPC   C15 5137   6.272   4.810   5.906  0.7894 -0.1420  0.0576
   64SAPC  H15A 5138   6.306   4.721   5.956 -1.8470 -3.2054 -3.1250
   64SAPC  H15B 5139   6.269   4.790   5.800  0.2878 -0.4228  0.1262
   64SAPC  H15C 5140   6.330   4.901   5.918  0.0086  0.2238  1.2647
   64SAPC   C11 5141   5.936   5.011   5.892 -0.5393 -0.1952  0.0515
   64SAPC  H11A 5142   5.861   4.930   5.900 -0.3744 -0.4921 -1.1971
   64SAPC  H11B 5143   5.920   5.082   5.808  2.4221  0.4096 -0.1121
   64SAPC     P 5144   6.001   5.234   6.027  0.6746 -0.4633  0.2292
   64SAPC   O13 5145   6.142   5.233   5.981  0.1229 -0.1584  0.5393
   64SAPC   O14 5146   5.909   5.324   5.953 -0.5069  0.6419  0.4119
   64SAPC   O12 5147   5.929   5.091   6.014 -0.3447 -0.2204  0.2650
   64SAPC   O11 5148   5.989   5.273   6.177  0.4862 -0.0937 -0.7977
   64SAPC    C1 5149   5.935   5.182   6.283 -0.0303 -0.4120  0.0797
   64SAPC    HA 5150   5.827   5.160   6.268 -0.0125 -0.1553 -0.4775
   64SAPC    HB 5151   6.001   5.093   6.290  0.5610  0.0960  1.2324
   64SAPC    C2 5152   5.957   5.249   6.423 -0.4457  0.0447  1.0161
   64SAPC    HS 5153   6.041   5.322   6.420 -1.0876  0.7954  0.6264
   64SAPC   O21 5154   5.982   5.149   6.523  0.5575  0.0759  0.0737
   64SAPC   C21 5155   6.057   5.169   6.621  0.4757 -0.9256 -0.1516
   64SAPC   O22 5156   6.134   5.266   6.637 -0.1920  0.3372 -0.0926
   64SAPC   C22 5157   6.022   5.071   6.728  0.2467 -0.3155 -0.2821
   64SAPC   H2R 5158   5.913   5.049   6.722 -0.3741  1.7460  2.0076
   64SAPC   H2S 5159   6.079   4.976   6.718 -0.0025 -0.5941  0.8307
   64SAPC    C3 5160   5.837   5.332   6.462 -0.1928  0.1281 -0.4784
   64SAPC    HX 5161   5.753   5.259   6.456  0.0732 -0.0859 -1.9708
   64SAPC    HY 5162   5.809   5.412   6.390 -0.6426  0.5772  0.1878
   64SAPC   O31 5163   5.850   5.380   6.597  0.1443  0.0779  0.1236
   64SAPC   C31 5164   5.919   5.499   6.612  0.0069 -0.1990  0.0015
   64SAPC   O32 5165   5.973   5.561   6.522 -0.4795  0.2233  0.2617
   64SAPC   C32 5166   5.930   5.533   6.764  0.1497 -0.3458  0.0467
   64SAPC   H2X 5167   6.035   5.545   6.800  0.3489  0.6582 -0.8255
   64SAPC   H2Y 5168   5.879   5.451   6.819 -1.5489  1.0189  0.6212
   64SAPC   C23 5169   6.045   5.127   6.871  0.2602 -0.0248  0.5468
   64SAPC   H3R 5170   5.966   5.097   6.943  0.1836 -2.4299 -0.4538
   64SAPC   H3S 5171   6.040   5.238   6.875 -1.4201 -0.0958  1.4915
   64SAPC   C24 5172   6.180   5.078   6.933  0.7220  0.2344 -0.1130
   64SAPC   H4R 5173   6.194   5.136   7.026  1.5641 -1.1601  0.6512
   64SAPC   H4S 5174   6.266   5.093   6.865 -0.3113 -1.6896 -1.9781
   64SAPC   C25 5175   6.168   4.933   6.979 -0.3373  0.2262 -0.1890
   64SAPC   H5R 5176   6.218   4.865   6.908  0.6342  0.7297 -0.0011
   64SAPC   C26 5177   6.112   4.898   7.098 -0.3898 -0.5901 -0.5652
   64SAPC   H6R 5178   6.097   4.791   7.120 -1.8909 -0.5168 -1.1320
   64SAPC   C27 5179   6.044   4.990   7.200 -0.4621  0.0838  0.4015
   64SAPC   H7R 5180   5.936   4.964   7.192 -1.2055  2.9647  0.1003
   64SAPC   H7S 5181   6.037   5.096   7.170 -1.3232 -0.0686  0.0231
   64SAPC   C28 5182   6.105   4.992   7.333 -0.1594  0.9004 -0.5852
   64SAPC   H8R 5183   6.188   5.060   7.357 -0.5423  0.8539  0.9997
   64SAPC   C29 5184   6.070   4.905   7.433  0.5330  0.2912 -0.3940
   64SAPC   H9R 5185   6.122   4.913   7.530  1.1468  0.6537 -0.7438
   64SAPC  C210 5186   5.967   4.799   7.427  0.3361 -0.1284  0.2929
   64SAPC  H10R 5187   6.011   4.704   7.463 -2.3166 -1.7304 -0.4279
   64SAPC  H10S 5188   5.940   4.785   7.320  1.7869 -0.8114 -0.0221
   64SAPC  C211 5189   5.841   4.811   7.509  0.3386 -0.3975  0.2751
   64SAPC  H11R 5190   5.761   4.864   7.456  1.0363  1.9328  1.4131
   64SAPC  C212 5191   5.821   4.783   7.644 -0.2012  0.1054 -0.1058
   64SAPC  H12R 5192   5.719   4.796   7.683  0.3046  3.3618  0.4052
   64SAPC  C213 5193   5.925   4.749   7.745  0.2301  0.3105 -0.2004
   64SAPC  H13R 5194   6.033   4.771   7.726  1.2237 -1.9614  2.1335
   64SAPC  H13S 5195   5.917   4.639   7.755 -3.4848  0.5407  0.7423
   64SAPC  C214 5196   5.891   4.822   7.878 -0.3882 -0.6220 -0.1199
   64SAPC  H14R 5197   5.804   4.889   7.874  1.2469  1.5409 -1.7126
   64SAPC  C215 5198   5.965   4.813   7.992  0.8450  0.0870  0.1596
   64SAPC  H15R 5199   5.923   4.872   8.075 -0.3339 -0.4547 -0.0269
   64SAPC  C216 5200   6.094   4.737   7.996  0.1216 -0.1472  0.1441
   64SAPC  H16R 5201   6.173   4.805   8.035  0.5412 -1.0895  0.9744
   64SAPC  H16S 5202   6.123   4.701   7.894  1.9308  0.4503  0.4186
   64SAPC  C217 5203   6.104   4.603   8.075 -0.1842  0.2946  0.4399
   64SAPC  H17R 5204   6.212   4.585   8.089 -0.0740  0.7888  0.2341
   64SAPC  H17S 5205   6.066   4.524   8.006  0.6787 -1.6538  2.0970
   64SAPC  C218 5206   6.034   4.606   8.209  0.8593 -0.4660  0.3480
   64SAPC  H18R 5207   6.035   4.499   8.241 -1.0078 -1.0512 -1.3542
   64SAPC  H18S 5208   5.933   4.645   8.183  0.2361 -2.3406 -0.2297
   64SAPC  C219 5209   6.093   4.686   8.322 -0.2245  0.2860 -0.8766
   64SAPC  H19R 5210   6.022   4.701   8.406 -0.4773  0.2920 -1.0898
   64SAPC  H19S 5211   6.113   4.790   8.287 -0.2404  1.0442  1.2485
   64SAPC  C220 5212   6.232   4.652   8.372 -0.3307 -0.2328  0.3765
   64SAPC  H20R 5213   6.216   4.558   8.429 -0.8107  0.0084  0.6469
   64SAPC  H20S 5214   6.268   4.722   8.450 -0.4553  0.3908 -0.1170
   64SAPC  H20T 5215   6.306   4.644   8.289  0.0323 -0.6627  0.7345
   64SAPC   C33 5216   5.855   5.661   6.800  0.4234  0.0402 -0.6444
   64SAPC   H3X 5217   5.756   5.651   6.752  0.8729 -1.7540 -1.2950
   64SAPC   H3Y 5218   5.911   5.739   6.744  0.4428  1.1887  0.9223
   64SAPC   C34 5219   5.854   5.693   6.948 -0.4988  0.1291 -0.3534
   64SAPC   H4X 5220   5.958   5.716   6.981 -0.5726 -1.2957  1.0178
   64SAPC   H4Y 5221   5.831   5.598   7.001 -1.9960  0.8478  0.3416
   64SAPC   C35 5222   5.775   5.819   6.991  0.5437  0.4326  0.1603
   64SAPC   H5X 5223   5.670   5.790   6.969  0.7125 -0.9577  1.0228
   64SAPC   H5Y 5224   5.802   5.908   6.932 -1.4756  0.3461 -1.0039
   64SAPC   C36 5225   5.777   5.840   7.143  0.7968 -0.1681  0.1696
   64SAPC   H6X 5226   5.720   5.928   7.179  0.9823 -0.2836  0.7567
   64SAPC   H6Y 5227   5.885   5.859   7.161  1.3466 -1.5895 -1.3670
   64SAPC   C37 5228   5.740   5.713   7.223  0.2377 -0.6251  0.1427
   64SAPC   H7X 5229   5.803   5.624   7.199  2.3978  0.7939  0.2936
   64SAPC   H7Y 5230   5.636   5.690   7.190  0.1813 -0.4357  0.1902
   64SAPC   C38 5231   5.757   5.723   7.380  1.1775  0.0837  0.3086
   64SAPC   H8X 5232   5.865   5.746   7.396  0.6431  2.1890  1.1891
   64SAPC   H8Y 5233   5.744   5.625   7.431  4.0905 -0.1908  0.7079
   64SAPC   C39 5234   5.677   5.838   7.439  0.1144 -0.5899 -0.1446
   64SAPC   H9X 5235   5.568   5.821   7.454 -0.5035  4.1454  2.4429
   64SAPC   H9Y 5236   5.686   5.924   7.370 -1.2504  0.0971  0.4992
   64SAPC  C310 5237   5.725   5.887   7.576  0.0149  0.6260 -0.0161
   64SAPC  H10X 5238   5.656   5.968   7.607  0.6171  0.0586  3.0914
   64SAPC  H10Y 5239   5.826   5.930   7.560  2.1789 -3.7759  0.0436
   64SAPC  C311 5240   5.710   5.783   7.693  0.2546 -0.1104  0.7647
   64SAPC  H11X 5241   5.759   5.686   7.673  0.7381  0.4204 -0.8058
   64SAPC  H11Y 5242   5.608   5.743   7.711  0.0862  0.5328  1.2805
   64SAPC  C312 5243   5.774   5.851   7.817 -0.3571 -0.8979  0.0826
   64SAPC  H12X 5244   5.730   5.950   7.840  1.8414  0.3412 -0.6799
   64SAPC  H12Y 5245   5.878   5.863   7.779 -1.0173 -1.4397 -2.0536
   64SAPC  C313 5246   5.759   5.759   7.937 -0.8011  0.1519  0.4648
   64SAPC  H13X 5247   5.761   5.652   7.909  2.9139 -0.7929  3.5763
   64SAPC  H13Y 5248   5.662   5.788   7.984 -0.5128  2.7040 -0.3377
   64SAPC  C314 5249   5.863   5.786   8.041  0.6144  0.8542 -0.0341
   64SAPC  H14X 5250   5.836   5.885   8.083 -0.8720 -0.2511  1.7576
   64SAPC  H14Y 5251   5.970   5.783   8.009  0.7511  1.8361  0.2914
   64SAPC  C315 5252   5.847   5.687   8.162 -0.1140 -0.4231 -0.4069
   64SAPC  H15X 5253   5.858   5.579   8.135 -0.6052 -0.2905 -1.1745
   64SAPC  H15Y 5254   5.742   5.714   8.186 -0.0470  2.3311 -2.6795
   64SAPC  C316 5255   5.933   5.726   8.286  0.5673  0.6979 -0.2115
   64SAPC  H16X 5256   5.911   5.661   8.373  1.6641  0.9063  0.2422
   64SAPC  H16Y 5257   5.904   5.826   8.323 -3.0380  0.1859 -1.2471
   64SAPC  C317 5258   6.080   5.707   8.271  0.4799 -0.1958 -0.5399
   64SAPC  H17X 5259   6.117   5.756   8.179  1.2089  1.3626  0.5345
   64SAPC  H17Y 5260   6.113   5.602   8.282 -0.4569 -0.2351  4.3010
   64SAPC  C318 5261   6.146   5.786   8.387  0.0506  0.1819 -0.2226
   64SAPC  H18X 5262   6.255   5.769   8.397 -0.2878 -2.6282 -0.6245
   64SAPC  H18Y 5263   6.094   5.769   8.483 -1.2294  1.5108 -0.6445
   64SAPC  H18Z 5264   6.127   5.895   8.375 -2.1960 -0.0344  0.8288
   65SAPC     N 5265   5.665   0.793   5.942 -0.1165 -0.1773 -0.2192
   65SAPC   C12 5266   5.622   0.670   6.022 -0.2354  0.0226 -0.2438
   65SAPC  H12A 5267   5.515   0.660   6.009 -0.2887  0.6700 -0.3253
   65SAPC  H12B 5268   5.646   0.684   6.126 -0.1398  0.6962 -0.3520
   65SAPC   C13 5269   5.597   0.926   5.977  0.1501  0.3418 -0.0227
   65SAPC  H13A 5270   5.639   1.000   5.910 -1.9746  0.8314 -0.9044
   65SAPC  H13B 5271   5.491   0.915   5.958  0.0353  1.3068 -0.0057
   65SAPC  H13C 5272   5.612   0.961   6.078  0.3970  0.4280 -0.0887
   65SAPC   C14 5273   5.812   0.830   5.951 -0.2230  0.3764 -0.2668
   65SAPC  H14A 5274   5.851   0.729   5.949 -0.0003  0.4497 -2.6984
   65SAPC  H14B 5275   5.854   0.884   5.867 -0.5108  0.2394 -0.4991
   65SAPC  H14C 5276   5.843   0.878   6.043 -0.8756 -0.8256  0.6000
   65SAPC   C15 5277   5.637   0.761   5.797 -0.2505  0.6277 -0.2394
   65SAPC  H15A 5278   5.708   0.685   5.767 -1.6769 -0.2916 -1.4210
   65SAPC  H15B 5279   5.535   0.729   5.788 -0.4370  1.0838  0.2333
   65SAPC  H15C 5280   5.653   0.853   5.742  0.7700  0.7997  0.3230
   65SAPC   C11 5281   5.675   0.527   5.985  0.2075 -0.2718 -0.0500
   65SAPC  H11A 5282   5.680   0.524   5.874 -0.4255  0.6985 -0.1171
   65SAPC  H11B 5283   5.612   0.443   6.022 -0.3080  0.2027  0.1702
   65SAPC     P 5284   5.832   0.466   6.181 -0.3115  0.1626  0.2667
   65SAPC   O13 5285   5.704   0.437   6.250  0.2923  0.0628 -0.5306
   65SAPC   O14 5286   5.926   0.352   6.177  0.1349  0.3202 -0.2939
   65SAPC   O12 5287   5.808   0.519   6.034 -0.8068 -0.3884 -0.5185
   65SAPC   O11 5288   5.903   0.588   6.262  0.3413  0.2142  0.1043
   65SAPC    C1 5289   5.810   0.693   6.315  0.2451  0.5629 -0.0423
   65SAPC    HA 5290   5.836   0.794   6.276  1.6428  0.0733 -0.4502
   65SAPC    HB 5291   5.703   0.677   6.291 -0.0239  0.7479  1.0059
   65SAPC    C2 5292   5.812   0.708   6.473 -0.8710 -0.0500 -0.2172
   65SAPC    HS 5293   5.731   0.777   6.505  1.2982  2.5011  0.1336
   65SAPC   O21 5294   5.942   0.757   6.508 -0.1140 -0.0974 -0.1304
   65SAPC   C21 5295   5.943   0.887   6.506  0.0156  0.7372  0.6934
   65SAPC   O22 5296   5.854   0.963   6.460  0.0016  0.4123 -0.4631
   65SAPC   C22 5297   6.067   0.936   6.582 -0.3325  0.6411  0.4328
   65SAPC   H2R 5298   6.114   0.855   6.642  0.3660 -0.1352 -1.0887
   65SAPC   H2S 5299   6.141   0.956   6.502  0.8632 -1.9795  0.7617
   65SAPC    C3 5300   5.802   0.568   6.544 -0.8922 -0.4374  0.4697
   65SAPC    HX 5301   5.817   0.596   6.650 -0.2638  0.7218  0.0965
   65SAPC    HY 5302   5.884   0.501   6.512  0.2345  0.8272  0.5874
   65SAPC   O31 5303   5.667   0.512   6.530  0.0763  0.8012  0.4562
   65SAPC   C31 5304   5.659   0.383   6.553  0.0071 -0.2699  0.2881
   65SAPC   O32 5305   5.755   0.308   6.586 -0.1744  0.0596  0.0227
   65SAPC   C32 5306   5.510   0.342   6.547 -0.1673  0.9252  0.3220
   65SAPC   H2X 5307   5.498   0.262   6.471 -0.4698  1.2803 -0.0076
   65SAPC   H2Y 5308   5.457   0.430   6.504  0.5631  1.4485  0.4690
   65SAPC   C23 5309   6.041   1.056   6.674  0.4176 -0.4197 -0.3083
   65SAPC   H3R 5310   5.987   1.146   6.636  0.9212  0.8796  1.8838
   65SAPC   H3S 5311   6.137   1.096   6.714 -0.4623  0.8644  0.6285
   65SAPC   C24 5312   5.961   1.021   6.799  0.2533 -0.1068  1.0312
   65SAPC   H4R 5313   5.863   0.974   6.776  0.2687  0.1369  0.4318
   65SAPC   H4S 5314   5.928   1.118   6.843  0.2285  1.1754 -1.6182
   65SAPC   C25 5315   6.031   0.935   6.892 -0.3170 -0.1254  0.1979
   65SAPC   H5R 5316   6.089   0.851   6.852 -0.1324 -0.5613  1.3730
   65SAPC   C26 5317   6.046   0.952   7.021 -0.3652  0.0569 -0.3437
   65SAPC   H6R 5318   6.115   0.886   7.076  0.8060  1.2215 -0.3592
   65SAPC   C27 5319   5.968   1.059   7.102  0.4042 -0.0901 -0.0399
   65SAPC   H7R 5320   5.864   1.024   7.122  0.1058  0.2053 -0.9863
   65SAPC   H7S 5321   5.946   1.149   7.041  0.2035  0.2505  0.5332
   65SAPC   C28 5322   6.024   1.108   7.234 -0.0853  0.8561  0.6092
   65SAPC   H8R 5323   6.061   1.211   7.239  1.8656  0.1427  3.2293
   65SAPC   C29 5324   6.033   1.041   7.348  0.1316  0.0517 -0.0424
   65SAPC   H9R 5325   6.071   1.096   7.435 -0.2349  0.8349 -0.3686
   65SAPC  C210 5326   5.975   0.908   7.365  0.1446  0.8770  0.0729
   65SAPC  H10R 5327   5.990   0.834   7.284  0.5927 -0.2471  1.1477
   65SAPC  H10S 5328   5.865   0.921   7.368  0.1709  1.0979  0.0701
   65SAPC  C211 5329   6.023   0.833   7.488 -0.4666  0.1096  0.6226
   65SAPC  H11R 5330   6.132   0.827   7.502 -0.2712  0.9638 -0.4185
   65SAPC  C212 5331   5.943   0.768   7.579 -0.5274 -0.8479  0.7982
   65SAPC  H12R 5332   5.984   0.714   7.666  0.1026  0.4625  1.3404
   65SAPC  C213 5333   5.790   0.758   7.568 -0.1577  0.2078  0.0244
   65SAPC  H13R 5334   5.749   0.814   7.482  2.7748  3.7944  0.6754
   65SAPC  H13S 5335   5.737   0.804   7.654  0.2244  0.0744  0.3381
   65SAPC  C214 5336   5.749   0.611   7.561  0.3349 -0.2606 -0.4247
   65SAPC  H14R 5337   5.750   0.570   7.459  1.3560  1.1698 -1.0363
   65SAPC  C215 5338   5.713   0.532   7.666 -0.4715 -0.0399  0.3096
   65SAPC  H15R 5339   5.683   0.429   7.647  1.4913 -0.6153  0.0891
   65SAPC  C216 5340   5.715   0.581   7.809  0.3968 -0.1335 -0.1469
   65SAPC  H16R 5341   5.621   0.630   7.841  1.0800 -0.2325  2.2237
   65SAPC  H16S 5342   5.791   0.658   7.834  1.7402 -2.1033  2.3294
   65SAPC  C217 5343   5.702   0.468   7.921 -0.6400 -0.2128  0.4093
   65SAPC  H17R 5344   5.805   0.436   7.944 -0.3445 -0.4205 -1.0957
   65SAPC  H17S 5345   5.647   0.384   7.873  2.5445 -1.3659 -1.5536
   65SAPC  C218 5346   5.642   0.527   8.053 -0.3193  0.6117 -0.4254
   65SAPC  H18R 5347   5.693   0.626   8.055  1.5207 -0.0746 -4.1739
   65SAPC  H18S 5348   5.668   0.476   8.148 -1.9468  0.5864  0.0386
   65SAPC  C219 5349   5.487   0.538   8.042  0.2350 -0.7562  0.2495
   65SAPC  H19R 5350   5.457   0.433   8.061 -2.6472  0.2164  1.7415
   65SAPC  H19S 5351   5.439   0.573   7.948  2.3486  4.2729  0.6780
   65SAPC  C220 5352   5.432   0.620   8.157 -0.1592 -0.8249 -0.2846
   65SAPC  H20R 5353   5.325   0.596   8.174  0.1254 -0.8201  1.7755
   65SAPC  H20S 5354   5.439   0.728   8.131  1.3113 -0.8418 -0.0344
   65SAPC  H20T 5355   5.485   0.599   8.252 -0.9595  0.2477  0.4194
   65SAPC   C33 5356   5.456   0.292   6.681 -0.3456  0.4373  0.0110
   65SAPC   H3X 5357   5.526   0.219   6.727 -0.2660 -0.6093 -1.6858
   65SAPC   H3Y 5358   5.364   0.230   6.676 -0.0238 -0.2444  1.7645
   65SAPC   C34 5359   5.451   0.402   6.780 -0.2172  0.2925  0.3000
   65SAPC   H4X 5360   5.397   0.489   6.737  0.6828  0.8587  0.2947
   65SAPC   H4Y 5361   5.557   0.434   6.787 -0.7985  2.4695 -0.0691
   65SAPC   C35 5362   5.386   0.366   6.918 -0.0155 -0.0537  0.1375
   65SAPC   H5X 5363   5.284   0.325   6.907 -0.2569  0.4852  0.3504
   65SAPC   H5Y 5364   5.375   0.460   6.976  0.8466  1.5713 -2.1985
   65SAPC   C36 5365   5.480   0.269   6.987 -0.3234  0.3386  0.0262
   65SAPC   H6X 5366   5.580   0.316   6.995  0.3319 -1.0185 -0.0968
   65SAPC   H6Y 5367   5.475   0.180   6.922 -0.2037 -1.1166  1.9358
   65SAPC   C37 5368   5.432   0.215   7.119  0.2628 -0.1176  0.6714
   65SAPC   H7X 5369   5.504   0.140   7.158  0.0860 -0.0421  1.1496
   65SAPC   H7Y 5370   5.333   0.166   7.105  0.9489 -0.7136 -2.9266
   65SAPC   C38 5371   5.429   0.327   7.222 -0.2409 -0.1955 -0.9279
   65SAPC   H8X 5372   5.364   0.416   7.206 -1.6001 -0.9000  0.3872
   65SAPC   H8Y 5373   5.529   0.357   7.258 -0.5786  0.4102 -0.4646
   65SAPC   C39 5374   5.364   0.279   7.357  0.3386 -0.0154 -0.6014
   65SAPC   H9X 5375   5.394   0.174   7.378 -2.2730 -0.4865  1.2654
   65SAPC   H9Y 5376   5.254   0.283   7.345  0.0208  1.0011  1.9601
   65SAPC  C310 5377   5.399   0.368   7.479  0.1837  0.0355 -0.5527
   65SAPC  H10X 5378   5.359   0.463   7.436 -0.5572 -0.5444 -1.1733
   65SAPC  H10Y 5379   5.508   0.372   7.500 -0.1086  0.8119  0.9021
   65SAPC  C311 5380   5.320   0.327   7.608  0.4999 -0.7068  0.2523
   65SAPC  H11X 5381   5.374   0.243   7.657  0.5328 -0.6579  0.2995
   65SAPC  H11Y 5382   5.217   0.296   7.578  0.0618 -1.7501  2.5989
   65SAPC  C312 5383   5.279   0.444   7.698 -0.2329  0.1684 -0.3575
   65SAPC  H12X 5384   5.226   0.514   7.630 -1.8381 -2.3516 -1.9001
   65SAPC  H12Y 5385   5.375   0.489   7.729  0.1452 -0.8431 -0.0281
   65SAPC  C313 5386   5.177   0.415   7.813 -0.1110  0.1155  0.2544
   65SAPC  H13X 5387   5.076   0.395   7.771  0.5703  0.6007 -1.7627
   65SAPC  H13Y 5388   5.177   0.507   7.875  2.2045  0.0957  0.3662
   65SAPC  C314 5389   5.208   0.287   7.889  0.9112 -0.0997 -0.2779
   65SAPC  H14X 5390   5.315   0.279   7.916  0.6878 -0.1702  0.6316
   65SAPC  H14Y 5391   5.189   0.200   7.822  0.9754  0.0881 -0.5415
   65SAPC  C315 5392   5.118   0.269   8.019 -0.1601  0.0891  0.2363
   65SAPC  H15X 5393   5.113   0.159   8.032  0.4191 -0.0036 -0.2263
   65SAPC  H15Y 5394   5.012   0.299   8.012 -0.0656  0.6140  0.8910
   65SAPC  C316 5395   5.177   0.327   8.145 -0.1939 -0.0041 -0.6559
   65SAPC  H16X 5396   5.258   0.402   8.129  0.3314 -0.3359  0.3574
   65SAPC  H16Y 5397   5.215   0.253   8.218  0.1044  0.6784 -0.1015
   65SAPC  C317 5398   5.072   0.405   8.224 -0.1159  0.1040  0.2461
   65SAPC  H17X 5399   4.996   0.329   8.252 -0.0325 -1.2614 -2.8746
   65SAPC  H17Y 5400   5.033   0.482   8.155  0.3377 -0.4305 -0.6235
   65SAPC  C318 5401   5.120   0.464   8.353 -0.6253  0.1594  0.1586
   65SAPC  H18X 5402   5.076   0.565   8.367  0.6488  0.9011 -0.9796
   65SAPC  H18Y 5403   5.230   0.474   8.353 -0.3091 -2.6410 -1.1477
   65SAPC  H18Z 5404   5.086   0.406   8.441  1.5739  0.9769  1.6278
   66SAPC     N 5405   4.315   0.695   6.058 -0.3862 -0.1364 -0.5454
   66SAPC   C12 5406   4.227   0.697   5.932  0.5832  0.3640  0.7509
   66SAPC  H12A 5407   4.270   0.767   5.863 -1.0320  0.7267  0.0895
   66SAPC  H12B 5408   4.126   0.728   5.954  0.3693  0.1823  0.0285
   66SAPC   C13 5409   4.460   0.684   6.023  0.5643  0.1046  0.7036
   66SAPC  H13A 5410   4.489   0.758   5.950 -1.0579  0.9082  0.8359
   66SAPC  H13B 5411   4.523   0.698   6.110  2.8679 -0.0875 -0.8632
   66SAPC  H13C 5412   4.488   0.588   5.982 -2.1069  0.2185 -1.7266
   66SAPC   C14 5413   4.301   0.824   6.128  0.3155  0.9340  0.1680
   66SAPC  H14A 5414   4.314   0.908   6.062 -0.5173  1.9776  1.2942
   66SAPC  H14B 5415   4.203   0.846   6.170 -0.3174  1.0362 -1.3068
   66SAPC  H14C 5416   4.377   0.833   6.204 -0.6989 -1.5275  1.5983
   66SAPC   C15 5417   4.278   0.592   6.162 -0.2207 -0.0656  0.1323
   66SAPC  H15A 5418   4.182   0.612   6.206 -0.4687 -0.3437 -0.2832
   66SAPC  H15B 5419   4.276   0.501   6.104 -2.6551  0.4839 -0.7381
   66SAPC  H15C 5420   4.361   0.580   6.231  0.7310 -0.5891 -1.0725
   66SAPC   C11 5421   4.218   0.562   5.856  0.4984 -0.3275  0.2918
   66SAPC  H11A 5422   4.324   0.541   5.829 -0.0129 -1.3970 -1.0206
   66SAPC  H11B 5423   4.150   0.583   5.771 -0.4317 -2.2530  0.5117
   66SAPC     P 5424   3.997   0.471   5.965  0.1213 -0.0860 -0.3342
   66SAPC   O13 5425   3.942   0.601   5.936 -0.4525 -0.7564 -0.3797
   66SAPC   O14 5426   3.925   0.363   5.891 -0.6137  0.1190 -0.5931
   66SAPC   O12 5427   4.156   0.463   5.930 -0.0278 -0.3099 -0.1755
   66SAPC   O11 5428   4.008   0.451   6.116 -0.1719 -0.5873 -0.1495
   66SAPC    C1 5429   4.038   0.324   6.174  0.3174 -0.5444 -0.7273
   66SAPC    HA 5430   3.965   0.248   6.138  0.4266 -0.2460 -1.5875
   66SAPC    HB 5431   4.143   0.293   6.156  0.4749 -0.9161  0.6717
   66SAPC    C2 5432   4.021   0.317   6.335 -0.3169  0.6875  0.3232
   66SAPC    HS 5433   3.911   0.311   6.348 -0.5518  0.2759 -1.5432
   66SAPC   O21 5434   4.083   0.420   6.408 -0.0437 -0.3923  0.6026
   66SAPC   C21 5435   4.017   0.535   6.416 -0.1099 -0.4075 -0.2738
   66SAPC   O22 5436   3.910   0.568   6.363 -0.0359  0.1238  0.0365
   66SAPC   C22 5437   4.112   0.627   6.496 -0.2816 -0.7496  0.2242
   66SAPC   H2R 5438   4.218   0.602   6.475  0.0466 -0.7747  1.7492
   66SAPC   H2S 5439   4.100   0.729   6.454  3.3892 -0.8894 -1.5695
   66SAPC    C3 5440   4.072   0.174   6.391 -0.4262  0.1418 -0.4149
   66SAPC    HX 5441   4.152   0.137   6.323  0.3076  2.6590 -1.0371
   66SAPC    HY 5442   3.983   0.109   6.381 -0.6640  0.5816 -1.2916
   66SAPC   O31 5443   4.127   0.190   6.531  0.0881  0.7776  1.0158
   66SAPC   C31 5444   4.254   0.235   6.536  0.1883  0.3336  0.5317
   66SAPC   O32 5445   4.326   0.244   6.439  0.9385  0.3266  0.6700
   66SAPC   C32 5446   4.286   0.263   6.689  0.2577  0.4542  0.3915
   66SAPC   H2X 5447   4.195   0.264   6.753  0.3624  1.1716  0.5448
   66SAPC   H2Y 5448   4.329   0.366   6.689 -0.0100  0.5725  1.2255
   66SAPC   C23 5449   4.085   0.639   6.647 -0.2162 -0.6378 -0.3587
   66SAPC   H3R 5450   4.077   0.532   6.676 -0.2368 -0.9495 -1.4650
   66SAPC   H3S 5451   3.983   0.682   6.652  0.4132  0.7758  1.2608
   66SAPC   C24 5452   4.172   0.744   6.721  0.3980  0.7525 -0.1886
   66SAPC   H4R 5453   4.126   0.763   6.821 -0.6420 -0.9940 -0.2948
   66SAPC   H4S 5454   4.171   0.841   6.667  0.8122  0.7199 -0.2572
   66SAPC   C25 5455   4.312   0.691   6.726 -0.3021 -0.2560 -0.4628
   66SAPC   H5R 5456   4.360   0.697   6.628  0.0910 -1.2825 -0.3525
   66SAPC   C26 5457   4.375   0.644   6.830 -0.0612  0.4662 -1.0945
   66SAPC   H6R 5458   4.480   0.612   6.818 -0.1303 -0.1481 -0.1581
   66SAPC   C27 5459   4.312   0.633   6.967  0.2444 -0.5565  0.0246
   66SAPC   H7R 5460   4.206   0.601   6.959  0.8822 -2.6964 -0.4200
   66SAPC   H7S 5461   4.317   0.740   6.996 -2.3811 -0.3479 -0.0634
   66SAPC   C28 5462   4.381   0.544   7.064 -0.2448 -0.2631 -0.0871
   66SAPC   H8R 5463   4.460   0.480   7.022  0.1412  1.0855 -1.5258
   66SAPC   C29 5464   4.364   0.549   7.198 -0.6011  0.4126  0.1934
   66SAPC   H9R 5465   4.429   0.486   7.259 -2.2397 -0.3365  1.2402
   66SAPC  C210 5466   4.262   0.627   7.276  0.0051 -0.2478 -0.1420
   66SAPC  H10R 5467   4.209   0.695   7.206  0.6476 -0.8632 -1.2550
   66SAPC  H10S 5468   4.318   0.692   7.347 -2.3751  0.6948  0.9819
   66SAPC  C211 5469   4.170   0.532   7.344 -0.1325 -0.6280  1.2687
   66SAPC  H11R 5470   4.123   0.456   7.281 -0.7180 -1.4604  2.6520
   66SAPC  C212 5471   4.158   0.524   7.475  0.3148  1.3264 -0.5079
   66SAPC  H12R 5472   4.106   0.438   7.522  0.5590  0.9214 -0.9659
   66SAPC  C213 5473   4.233   0.606   7.575  0.2992  0.0727  0.6465
   66SAPC  H13R 5474   4.238   0.713   7.543 -2.1355  0.0941  0.1046
   66SAPC  H13S 5475   4.337   0.569   7.565  0.6516  0.7195  1.8091
   66SAPC  C214 5476   4.198   0.585   7.720  0.8909  0.2980  0.4751
   66SAPC  H14R 5477   4.171   0.484   7.754 -1.9754  0.7592 -0.1802
   66SAPC  C215 5478   4.209   0.674   7.818  0.5786  0.0895  0.2101
   66SAPC  H15R 5479   4.177   0.642   7.918  0.4501 -1.3098 -0.2682
   66SAPC  C216 5480   4.247   0.821   7.798  0.1183  0.1222  0.3692
   66SAPC  H16R 5481   4.181   0.869   7.723  0.8489 -1.1965 -1.1923
   66SAPC  H16S 5482   4.347   0.834   7.752  0.5993  0.9137  1.5939
   66SAPC  C217 5483   4.249   0.893   7.932 -0.4377 -0.6083 -0.7700
   66SAPC  H17R 5484   4.323   0.845   7.998  1.0098  1.8890 -0.4611
   66SAPC  H17S 5485   4.147   0.903   7.975  0.2113  1.4912  0.4106
   66SAPC  C218 5486   4.297   1.034   7.935  0.6411 -0.0318 -0.5363
   66SAPC  H18R 5487   4.216   1.085   7.877 -1.0152 -0.5593  1.2005
   66SAPC  H18S 5488   4.395   1.040   7.883  0.5063 -0.2249 -0.8123
   66SAPC  C219 5489   4.312   1.109   8.072 -0.3025  0.1380 -0.3033
   66SAPC  H19R 5490   4.212   1.107   8.121  0.0233 -4.2725  0.6368
   66SAPC  H19S 5491   4.346   1.214   8.060  1.2032 -0.0390  1.8033
   66SAPC  C220 5492   4.408   1.039   8.166  0.2541  0.6180 -0.8251
   66SAPC  H20R 5493   4.511   1.029   8.128 -0.5727 -4.2846 -2.4754
   66SAPC  H20S 5494   4.375   0.937   8.195  4.2069  0.1690  3.0777
   66SAPC  H20T 5495   4.407   1.103   8.257  0.2528 -0.3903 -0.1081
   66SAPC   C33 5496   4.398   0.166   6.741 -0.3780 -0.1734  0.1944
   66SAPC   H3X 5497   4.477   0.164   6.663 -1.1556  0.8093 -0.6410
   66SAPC   H3Y 5498   4.352   0.068   6.767  1.2012 -1.1036 -0.3858
   66SAPC   C34 5499   4.452   0.215   6.872  0.1411  0.1247 -0.3923
   66SAPC   H4X 5500   4.368   0.244   6.938 -0.7600  0.8670 -1.8244
   66SAPC   H4Y 5501   4.514   0.306   6.870 -0.7714  0.7537 -1.2528
   66SAPC   C35 5502   4.520   0.106   6.959  0.0382 -0.3695 -0.6585
   66SAPC   H5X 5503   4.622   0.082   6.922  1.5597  1.1384  2.2194
   66SAPC   H5Y 5504   4.452   0.019   6.972 -1.3395  0.4421 -2.1120
   66SAPC   C36 5505   4.554   0.148   7.106 -0.4420  0.4663  0.1257
   66SAPC   H6X 5506   4.594   0.251   7.109 -1.5352  0.8985  0.5233
   66SAPC   H6Y 5507   4.628   0.083   7.158 -1.5117 -0.2279  0.8540
   66SAPC   C37 5508   4.425   0.165   7.201 -0.3455  0.0299  1.0564
   66SAPC   H7X 5509   4.360   0.086   7.157  0.6259  0.7942 -1.9976
   66SAPC   H7Y 5510   4.377   0.259   7.165 -0.4743 -0.9661 -1.5709
   66SAPC   C38 5511   4.465   0.174   7.351  0.4113  0.3961  0.2318
   66SAPC   H8X 5512   4.548   0.247   7.358  1.4008 -0.4153 -1.9010
   66SAPC   H8Y 5513   4.492   0.071   7.384 -0.8072 -1.2708 -3.3999
   66SAPC   C39 5514   4.355   0.228   7.448 -0.1742  0.1859 -0.1321
   66SAPC   H9X 5515   4.269   0.157   7.453  0.6723 -1.0425 -2.0727
   66SAPC   H9Y 5516   4.326   0.325   7.403  1.3679  0.2448 -1.0560
   66SAPC  C310 5517   4.405   0.270   7.585  0.0565 -0.0944  1.0581
   66SAPC  H10X 5518   4.316   0.298   7.645 -0.5337 -0.9205  0.5812
   66SAPC  H10Y 5519   4.468   0.361   7.589  0.1044 -0.0814  0.1827
   66SAPC  C311 5520   4.486   0.166   7.668 -0.4045  0.0101 -0.0531
   66SAPC  H11X 5521   4.573   0.127   7.612  0.8997 -0.8511  2.4127
   66SAPC  H11Y 5522   4.415   0.082   7.683 -0.4791  0.2396  0.9312
   66SAPC  C312 5523   4.508   0.215   7.811  0.1347  0.6488 -0.0620
   66SAPC  H12X 5524   4.419   0.270   7.849 -1.0058  0.5226 -2.3779
   66SAPC  H12Y 5525   4.591   0.289   7.816 -1.0060  1.8995  1.9598
   66SAPC  C313 5526   4.548   0.106   7.916 -0.1382  0.1852 -0.4804
   66SAPC  H13X 5527   4.644   0.058   7.887  2.1096  2.1533  2.9313
   66SAPC  H13Y 5528   4.467   0.030   7.923 -0.2830  0.3157 -0.7053
   66SAPC  C314 5529   4.580   0.154   8.064 -0.4385  0.5040 -0.3954
   66SAPC  H14X 5530   4.488   0.197   8.109  0.0617  0.4021  0.7513
   66SAPC  H14Y 5531   4.658   0.233   8.063  0.8132 -0.5327  3.1499
   66SAPC  C315 5532   4.642   0.040   8.150  0.0529  0.5973 -0.4166
   66SAPC  H15X 5533   4.724  -0.009   8.092  0.4763  0.3020  0.4243
   66SAPC  H15Y 5534   4.569  -0.043   8.156  0.1656  0.5413  0.2125
   66SAPC  C316 5535   4.689   0.087   8.290 -0.6309  0.6507  0.3796
   66SAPC  H16X 5536   4.604   0.111   8.356 -0.7237  0.4745  0.3255
   66SAPC  H16Y 5537   4.751   0.179   8.285 -0.1896  0.3978  1.0915
   66SAPC  C317 5538   4.771  -0.036   8.354  0.4982 -0.1554  0.1802
   66SAPC  H17X 5539   4.716  -0.131   8.333 -1.4379  0.4674  2.0538
   66SAPC  H17Y 5540   4.779  -0.020   8.464 -0.9559  0.0605  0.2819
   66SAPC  C318 5541   4.916  -0.045   8.313  0.0878  0.4875  0.0043
   66SAPC  H18X 5542   4.938  -0.076   8.208 -1.2474 -1.4240  0.2242
   66SAPC  H18Y 5543   4.971  -0.123   8.370 -1.5723 -0.6775  0.0936
   66SAPC  H18Z 5544   4.962   0.054   8.332 -0.8277  1.0648 -0.6658
   67SAPC     N 5545   0.339   2.643   6.187 -0.3144  0.2417 -0.1470
   67SAPC   C12 5546   0.296   2.499   6.155 -0.2164 -0.0849 -0.0423
   67SAPC  H12A 5547   0.226   2.468   6.231  0.0293  1.4847  0.8707
   67SAPC  H12B 5548   0.386   2.446   6.182 -0.6178 -0.9726 -0.3978
   67SAPC   C13 5549   0.436   2.628   6.300 -0.0474 -0.4985  0.4989
   67SAPC  H13A 5550   0.466   2.724   6.341  2.3616 -0.9380 -0.1341
   67SAPC  H13B 5551   0.407   2.565   6.383 -1.0575 -0.6162  0.0728
   67SAPC  H13C 5552   0.524   2.586   6.255  1.3865 -0.7190  3.2948
   67SAPC   C14 5553   0.398   2.716   6.072 -0.1926  0.1133  0.2390
   67SAPC  H14A 5554   0.476   2.659   6.025 -0.4804  0.6027 -0.8522
   67SAPC  H14B 5555   0.320   2.737   6.000 -0.4325  1.3833  0.8485
   67SAPC  H14C 5556   0.442   2.809   6.104  0.4323  0.5242 -1.6937
   67SAPC   C15 5557   0.227   2.725   6.244 -0.0404  0.0261 -0.2591
   67SAPC  H15A 5558   0.185   2.683   6.333  1.3982 -0.0674  0.4001
   67SAPC  H15B 5559   0.257   2.826   6.267  1.3389 -0.0054 -1.6851
   67SAPC  H15C 5560   0.140   2.731   6.180  1.4328  1.9265 -2.2333
   67SAPC   C11 5561   0.242   2.466   6.010 -0.4176  0.0125 -0.5687
   67SAPC  H11A 5562   0.213   2.358   6.008  0.2836 -0.2411  1.0763
   67SAPC  H11B 5563   0.325   2.488   5.939 -0.2328  0.7172 -0.1392
   67SAPC     P 5564  -0.014   2.525   6.022 -0.0209 -0.1715 -0.3042
   67SAPC   O13 5565  -0.043   2.661   6.073 -0.1230 -0.3050  0.2906
   67SAPC   O14 5566  -0.115   2.478   5.927 -0.7341  0.4851 -0.1431
   67SAPC   O12 5567   0.132   2.535   5.969 -0.0806 -0.1489 -0.5421
   67SAPC   O11 5568  -0.014   2.425   6.152  0.0961 -0.6617 -0.2701
   67SAPC    C1 5569  -0.127   2.425   6.235 -0.6434  0.5303  0.4572
   67SAPC    HA 5570  -0.198   2.509   6.221 -1.7582 -0.4833 -0.2884
   67SAPC    HB 5571  -0.182   2.331   6.213  0.9202  0.0283 -1.6898
   67SAPC    C2 5572  -0.080   2.439   6.381  0.5356  0.4564 -0.1790
   67SAPC    HS 5573  -0.176   2.414   6.431  1.0963 -2.6249 -0.4497
   67SAPC   O21 5574  -0.031   2.566   6.427  0.0461  0.5792 -0.0490
   67SAPC   C21 5575  -0.120   2.663   6.441  0.1146  0.1036  0.5367
   67SAPC   O22 5576  -0.241   2.649   6.422 -0.4264  0.0948  0.1061
   67SAPC   C22 5577  -0.044   2.789   6.477 -0.1498 -0.0974 -0.0612
   67SAPC   H2R 5578   0.065   2.781   6.492  0.0704  2.1001 -0.1823
   67SAPC   H2S 5579  -0.047   2.844   6.380  1.2211  1.1885  0.5807
   67SAPC    C3 5580   0.027   2.334   6.414  0.2703  0.1951 -0.4676
   67SAPC    HX 5581   0.115   2.357   6.349  0.2953  2.3157  0.2378
   67SAPC    HY 5582  -0.019   2.234   6.396  1.1371  0.2536 -3.6093
   67SAPC   O31 5583   0.064   2.342   6.556  0.4364 -0.3301  0.4092
   67SAPC   C31 5584   0.166   2.417   6.591  0.7918  0.6557 -0.3176
   67SAPC   O32 5585   0.253   2.458   6.516  0.4078  0.1718 -0.3808
   67SAPC   C32 5586   0.159   2.452   6.736  0.7672 -0.1452 -0.1233
   67SAPC   H2X 5587   0.193   2.364   6.794 -1.3643  0.2582  1.8813
   67SAPC   H2Y 5588   0.055   2.472   6.768  1.0158  1.5083 -0.2314
   67SAPC   C23 5589  -0.118   2.876   6.585 -0.8494 -0.8611  0.1436
   67SAPC   H3R 5590  -0.228   2.869   6.574 -1.0736 -0.3715  1.7510
   67SAPC   H3S 5591  -0.080   2.981   6.578  0.6282 -1.4403 -1.0263
   67SAPC   C24 5592  -0.074   2.830   6.725  0.5630  0.0836  0.7454
   67SAPC   H4R 5593   0.036   2.819   6.717  0.4237 -0.9338  0.0833
   67SAPC   H4S 5594  -0.125   2.733   6.741  1.0010 -0.4300 -0.8324
   67SAPC   C25 5595  -0.117   2.931   6.834  0.8949 -0.4191  0.4542
   67SAPC   H5R 5596  -0.058   3.024   6.832 -0.2310  0.2952 -0.6174
   67SAPC   C26 5597  -0.232   2.918   6.902 -0.3568  0.3007  0.7985
   67SAPC   H6R 5598  -0.257   3.001   6.970 -0.0989 -0.7291  2.1786
   67SAPC   C27 5599  -0.315   2.798   6.908  0.2984 -1.0627  0.4607
   67SAPC   H7R 5600  -0.262   2.734   6.981  1.1992 -1.9659 -0.9551
   67SAPC   H7S 5601  -0.333   2.743   6.813 -3.3317  1.9692 -0.8964
   67SAPC   C28 5602  -0.455   2.818   6.956  0.1226 -0.5754  0.3877
   67SAPC   H8R 5603  -0.529   2.839   6.877  0.6258 -1.9258 -0.4712
   67SAPC   C29 5604  -0.493   2.803   7.082  0.2881  0.3164 -0.4937
   67SAPC   H9R 5605  -0.598   2.833   7.097  0.8166  1.6796  0.7292
   67SAPC  C210 5606  -0.415   2.765   7.202  0.4729  0.1053  0.1365
   67SAPC  H10R 5607  -0.333   2.697   7.172  2.0241  1.9014  0.1310
   67SAPC  H10S 5608  -0.489   2.704   7.258 -1.0336 -0.1303 -1.9913
   67SAPC  C211 5609  -0.360   2.887   7.274 -0.2905 -0.4508 -0.7365
   67SAPC  H11R 5610  -0.377   2.979   7.216 -1.1200  1.7581  2.6859
   67SAPC  C212 5611  -0.305   2.889   7.398 -0.3351  0.5195  0.4817
   67SAPC  H12R 5612  -0.274   2.985   7.443  1.6485  0.3623 -0.4541
   67SAPC  C213 5613  -0.275   2.770   7.482  0.1463 -0.2926  0.0849
   67SAPC  H13R 5614  -0.180   2.786   7.536 -0.3502  2.3517  0.3111
   67SAPC  H13S 5615  -0.281   2.676   7.423 -3.1849 -0.1668 -0.0139
   67SAPC  C214 5616  -0.384   2.758   7.587  0.3103  0.0174  0.3088
   67SAPC  H14R 5617  -0.486   2.752   7.548  0.7568 -1.8185 -0.6898
   67SAPC  C215 5618  -0.373   2.750   7.716  0.2054 -0.5209  0.4063
   67SAPC  H15R 5619  -0.464   2.743   7.777 -0.2810 -0.7637 -0.3380
   67SAPC  C216 5620  -0.249   2.738   7.799  0.2600  0.2777 -0.2090
   67SAPC  H16R 5621  -0.155   2.756   7.742  0.1283 -0.2842 -0.6170
   67SAPC  H16S 5622  -0.228   2.643   7.853 -1.4209  1.0776  1.9698
   67SAPC  C217 5623  -0.262   2.841   7.912 -0.4708 -0.1129 -0.4555
   67SAPC  H17R 5624  -0.341   2.817   7.986 -0.7278  1.8199 -0.0654
   67SAPC  H17S 5625  -0.306   2.937   7.878 -0.7755 -0.2119 -0.3479
   67SAPC  C218 5626  -0.133   2.848   7.993  0.5068  0.1329 -0.1035
   67SAPC  H18R 5627  -0.056   2.900   7.932 -1.0981  2.3722 -0.3729
   67SAPC  H18S 5628  -0.091   2.747   8.008  0.9170  0.2992 -0.1241
   67SAPC  C219 5629  -0.142   2.925   8.120  0.0622 -0.0657  0.1021
   67SAPC  H19R 5630  -0.202   3.018   8.107 -0.7216 -0.5903 -0.1267
   67SAPC  H19S 5631  -0.042   2.966   8.143  0.4418 -0.1219 -1.4136
   67SAPC  C220 5632  -0.196   2.846   8.238  0.7280 -0.2208 -0.0111
   67SAPC  H20R 5633  -0.197   2.906   8.332 -0.4410  0.8857 -0.7047
   67SAPC  H20S 5634  -0.122   2.764   8.253  2.6489  1.1775 -1.3484
   67SAPC  H20T 5635  -0.297   2.805   8.215  0.2317 -0.6044  2.5185
   67SAPC   C33 5636   0.256   2.574   6.777 -0.8094 -0.5424 -0.6216
   67SAPC   H3X 5637   0.193   2.662   6.749 -1.5914 -1.2788 -1.2221
   67SAPC   H3Y 5638   0.344   2.581   6.710 -0.2314  0.2623  0.1953
   67SAPC   C34 5639   0.295   2.596   6.923 -0.0347 -0.4381 -0.2246
   67SAPC   H4X 5640   0.348   2.693   6.929  1.4751 -1.2396 -0.2331
   67SAPC   H4Y 5641   0.364   2.514   6.953  1.6346  0.8712 -0.3338
   67SAPC   C35 5642   0.172   2.593   7.024  0.2794 -0.2416  0.8931
   67SAPC   H5X 5643   0.132   2.489   7.025 -1.9736  0.4483 -2.2475
   67SAPC   H5Y 5644   0.089   2.648   6.975  0.5858  0.1688  0.8321
   67SAPC   C36 5645   0.203   2.642   7.164 -0.7349  0.6801 -0.2415
   67SAPC   H6X 5646   0.230   2.748   7.149  0.5559  0.1987 -1.5945
   67SAPC   H6Y 5647   0.287   2.597   7.220 -0.4317  1.0020 -0.4372
   67SAPC   C37 5648   0.080   2.622   7.254  0.6342 -0.5645  0.0322
   67SAPC   H7X 5649   0.054   2.516   7.269  0.2744 -0.4247  0.4304
   67SAPC   H7Y 5650  -0.012   2.667   7.211  0.4838  0.4906  1.3819
   67SAPC   C38 5651   0.093   2.701   7.392 -0.6209 -0.3417 -0.0477
   67SAPC   H8X 5652   0.018   2.653   7.458  2.1953  1.0616  4.6344
   67SAPC   H8Y 5653   0.061   2.805   7.374  3.2248  0.9847 -0.2957
   67SAPC   C39 5654   0.227   2.703   7.459 -0.3289  0.0227  0.1244
   67SAPC   H9X 5655   0.296   2.778   7.414  1.1372 -0.8631  0.8088
   67SAPC   H9Y 5656   0.263   2.599   7.447  0.0668 -0.1658  2.4098
   67SAPC  C310 5657   0.208   2.736   7.604 -0.3683 -0.6202  0.1008
   67SAPC  H10X 5658   0.190   2.641   7.658 -0.4788 -0.0925  1.0175
   67SAPC  H10Y 5659   0.113   2.792   7.622 -0.3871  0.1686 -2.1519
   67SAPC  C311 5660   0.324   2.817   7.663 -0.4350 -0.3647 -0.2195
   67SAPC  H11X 5661   0.331   2.915   7.611 -0.1428 -2.0241 -3.5929
   67SAPC  H11Y 5662   0.420   2.767   7.640 -0.5558 -2.1759  2.7249
   67SAPC  C312 5663   0.310   2.835   7.817  0.6746  0.0387 -0.1020
   67SAPC  H12X 5664   0.314   2.740   7.876  0.8838  1.7525  2.8588
   67SAPC  H12Y 5665   0.202   2.860   7.829  0.7115  1.1617 -1.7840
   67SAPC  C313 5666   0.410   2.922   7.881 -0.5526 -0.3951  0.4232
   67SAPC  H13X 5667   0.430   3.019   7.833  4.1311 -0.1016  2.4423
   67SAPC  H13Y 5668   0.507   2.868   7.878 -1.0652 -1.2962 -1.4105
   67SAPC  C314 5669   0.378   2.950   8.028  0.4898 -0.7777 -0.3328
   67SAPC  H14X 5670   0.281   3.005   8.034  0.1952 -1.3174  0.0015
   67SAPC  H14Y 5671   0.446   3.019   8.082  1.0049 -1.1173 -0.5386
   67SAPC  C315 5672   0.353   2.825   8.120 -0.1470  0.5641  0.2774
   67SAPC  H15X 5673   0.444   2.764   8.137 -0.9085 -1.0186 -1.0353
   67SAPC  H15Y 5674   0.272   2.760   8.081  0.6321  0.6302 -1.4979
   67SAPC  C316 5675   0.300   2.881   8.255  0.6138  0.1428  0.2465
   67SAPC  H16X 5676   0.200   2.922   8.228  1.7194  2.5458 -0.4514
   67SAPC  H16Y 5677   0.367   2.964   8.286  0.7535 -0.6030  2.1088
   67SAPC  C317 5678   0.286   2.786   8.374 -0.1983  0.0893  0.1956
   67SAPC  H17X 5679   0.333   2.825   8.467  0.2489  1.1422 -0.4556
   67SAPC  H17Y 5680   0.346   2.695   8.353  1.2171  0.8182  0.9309
   67SAPC  C318 5681   0.139   2.752   8.408 -0.0924 -0.8741  0.1097
   67SAPC  H18X 5682   0.105   2.693   8.320 -0.4905 -0.9378  0.3037
   67SAPC  H18Y 5683   0.072   2.837   8.431  0.0004 -0.9554  0.7152
   67SAPC  H18Z 5684   0.143   2.694   8.503 -1.2160 -1.0134  0.0847
   68SAPC     N 5685   4.328   1.409   5.730  0.2165 -0.9501 -0.2479
   68SAPC   C12 5686   4.405   1.531   5.701 -0.4882 -0.5860  0.0789
   68SAPC  H12A 5687   4.361   1.572   5.611 -0.7755 -1.9408 -0.4301
   68SAPC  H12B 5688   4.508   1.508   5.681  0.3339  2.5784  0.2335
   68SAPC   C13 5689   4.173   1.420   5.717  0.2055  0.5358 -0.1748
   68SAPC  H13A 5690   4.129   1.439   5.621 -1.9555 -1.6901  0.2937
   68SAPC  H13B 5691   4.136   1.321   5.737  2.3920 -0.0600  1.4326
   68SAPC  H13C 5692   4.135   1.480   5.799 -0.1489  0.9133 -0.6120
   68SAPC   C14 5693   4.343   1.299   5.623 -0.3152  0.2329 -0.1391
   68SAPC  H14A 5694   4.440   1.252   5.620 -0.1176  0.7033 -1.6470
   68SAPC  H14B 5695   4.259   1.231   5.622  0.0397 -0.2067 -1.6229
   68SAPC  H14C 5696   4.342   1.336   5.522 -1.6482  1.3870  0.2647
   68SAPC   C15 5697   4.368   1.349   5.860 -0.4644  0.3418 -0.6057
   68SAPC  H15A 5698   4.363   1.421   5.940  1.0001  0.3161 -0.4561
   68SAPC  H15B 5699   4.301   1.267   5.880  0.7298 -0.0263  2.4698
   68SAPC  H15C 5700   4.468   1.310   5.847 -0.9024 -0.5088 -1.5513
   68SAPC   C11 5701   4.411   1.642   5.810 -0.1824  1.4658 -0.6129
   68SAPC  H11A 5702   4.308   1.636   5.851 -0.0484 -2.0524 -0.4239
   68SAPC  H11B 5703   4.446   1.735   5.761  0.9795  2.4696  1.9319
   68SAPC     P 5704   4.667   1.603   5.892  0.2293 -0.4194 -0.0079
   68SAPC   O13 5705   4.707   1.497   5.793 -0.3247  0.0327  0.0174
   68SAPC   O14 5706   4.713   1.741   5.858 -0.6364 -0.2440  0.8171
   68SAPC   O12 5707   4.507   1.603   5.910  0.4365 -0.2301  0.2808
   68SAPC   O11 5708   4.730   1.561   6.034 -0.3705  0.0680  0.4705
   68SAPC    C1 5709   4.646   1.499   6.130 -0.3697 -0.1469  0.8469
   68SAPC    HA 5710   4.582   1.574   6.182 -1.0523 -0.4913  0.5167
   68SAPC    HB 5711   4.566   1.441   6.079 -2.2935  1.3343  2.0034
   68SAPC    C2 5712   4.724   1.405   6.225  0.2256 -0.6944  0.3018
   68SAPC    HS 5713   4.654   1.319   6.237 -2.2050  0.7423 -2.2369
   68SAPC   O21 5714   4.759   1.473   6.348  0.3048 -0.2446  0.2267
   68SAPC   C21 5715   4.659   1.507   6.418  0.0277  0.0440  0.3296
   68SAPC   O22 5716   4.547   1.465   6.405  0.2208 -0.0158  0.2892
   68SAPC   C22 5717   4.694   1.621   6.512  0.1191  0.4738 -0.3108
   68SAPC   H2R 5718   4.802   1.634   6.535  0.3089  0.6710 -1.2756
   68SAPC   H2S 5719   4.665   1.708   6.449 -0.4935  2.2164  2.2461
   68SAPC    C3 5720   4.846   1.337   6.158 -0.0773  0.2474  0.3423
   68SAPC    HX 5721   4.919   1.405   6.110  0.1687 -0.1103  0.2089
   68SAPC    HY 5722   4.814   1.274   6.072  1.6807  1.0431 -0.9598
   68SAPC   O31 5723   4.921   1.258   6.255  0.1341  0.1896  0.5464
   68SAPC   C31 5724   4.856   1.153   6.308  0.1463  0.7181 -0.2738
   68SAPC   O32 5725   4.748   1.110   6.277  0.3050 -0.7315  0.1455
   68SAPC   C32 5726   4.957   1.079   6.395 -0.5713  0.3926 -0.4111
   68SAPC   H2X 5727   5.054   1.070   6.341  0.7859 -0.0095  1.9635
   68SAPC   H2Y 5728   4.921   0.975   6.406  1.7357 -0.5905 -1.4486
   68SAPC   C23 5729   4.616   1.615   6.643 -0.3472  0.1039  0.1653
   68SAPC   H3R 5730   4.509   1.616   6.612 -0.1087 -2.2221 -0.9640
   68SAPC   H3S 5731   4.636   1.713   6.692  0.0113  1.1749 -1.9793
   68SAPC   C24 5732   4.653   1.493   6.729 -0.7809 -0.6225 -0.3747
   68SAPC   H4R 5733   4.764   1.499   6.736 -0.7873 -1.0881  0.1824
   68SAPC   H4S 5734   4.627   1.401   6.673 -0.2982  0.5551 -2.6747
   68SAPC   C25 5735   4.603   1.486   6.871 -0.2280 -0.4530  0.1328
   68SAPC   H5R 5736   4.526   1.409   6.878  1.3067 -2.1140 -0.4349
   68SAPC   C26 5737   4.629   1.567   6.975  0.0713 -0.6232  0.3790
   68SAPC   H6R 5738   4.573   1.547   7.068  0.2977  0.7278  0.8226
   68SAPC   C27 5739   4.737   1.663   6.997 -0.9418  0.3968  0.5040
   68SAPC   H7R 5740   4.724   1.733   7.082  0.0007  1.2761 -0.0524
   68SAPC   H7S 5741   4.742   1.726   6.906 -1.3980 -0.5381 -0.1862
   68SAPC   C28 5742   4.872   1.591   7.021  0.2390 -0.2400 -0.4613
   68SAPC   H8R 5743   4.911   1.548   6.928 -3.0603  0.2031 -2.1814
   68SAPC   C29 5744   4.936   1.565   7.140  0.1337 -0.3649 -0.3202
   68SAPC   H9R 5745   5.029   1.506   7.135  0.8577  0.7330 -0.1899
   68SAPC  C210 5746   4.898   1.611   7.275  0.8901 -1.0698 -0.5779
   68SAPC  H10R 5747   4.854   1.521   7.323 -0.5767 -0.3598 -0.5403
   68SAPC  H10S 5748   4.820   1.690   7.270  0.4095 -1.5493 -0.7239
   68SAPC  C211 5749   5.015   1.663   7.351 -0.0966 -0.2255 -0.8778
   68SAPC  H11R 5750   5.102   1.676   7.286  1.1174 -1.4227  0.4285
   68SAPC  C212 5751   5.012   1.692   7.483  0.3193 -0.0355 -0.2425
   68SAPC  H12R 5752   5.111   1.720   7.522  1.6823 -0.8166 -2.8669
   68SAPC  C213 5753   4.895   1.668   7.575 -0.2862  0.6674 -0.9290
   68SAPC  H13R 5754   4.857   1.565   7.560  0.4146  0.5367 -1.8825
   68SAPC  H13S 5755   4.811   1.737   7.553 -0.2132  1.0725 -0.0048
   68SAPC  C214 5756   4.937   1.698   7.718  0.8912 -0.3782 -0.5238
   68SAPC  H14R 5757   5.006   1.781   7.741 -2.2086  2.3518 -0.3961
   68SAPC  C215 5758   4.896   1.622   7.824  0.0927 -0.1722 -0.0703
   68SAPC  H15R 5759   4.911   1.657   7.928  1.9896  0.8468 -0.6349
   68SAPC  C216 5760   4.805   1.506   7.807 -0.7145  0.5813  0.2528
   68SAPC  H16R 5761   4.854   1.412   7.772  1.0495  1.2343  0.8358
   68SAPC  H16S 5762   4.729   1.533   7.731  1.8281  0.7745 -2.4026
   68SAPC  C217 5763   4.739   1.480   7.941  0.4031 -0.1509 -0.0992
   68SAPC  H17R 5764   4.663   1.404   7.915  0.6558 -1.6602  3.1294
   68SAPC  H17S 5765   4.688   1.569   7.982  0.7838  0.2919 -0.5677
   68SAPC  C218 5766   4.815   1.429   8.058 -0.7104  0.8474  0.4843
   68SAPC  H18R 5767   4.899   1.500   8.072 -0.8649  2.1373 -3.7768
   68SAPC  H18S 5768   4.869   1.336   8.030 -0.6148  1.2140 -0.5919
   68SAPC  C219 5769   4.732   1.412   8.181 -0.2739  0.0065 -0.0507
   68SAPC  H19R 5770   4.789   1.338   8.243 -1.3191 -0.8500 -0.0921
   68SAPC  H19S 5771   4.633   1.366   8.165 -0.6712  0.6142  0.6087
   68SAPC  C220 5772   4.725   1.548   8.254  0.4786 -0.1987  0.1822
   68SAPC  H20R 5773   4.688   1.629   8.187  1.0118  0.6258  0.8533
   68SAPC  H20S 5774   4.826   1.589   8.277  0.5207  0.0954 -0.4970
   68SAPC  H20T 5775   4.667   1.542   8.349 -1.7779 -0.6610 -1.1444
   68SAPC   C33 5776   4.983   1.153   6.535  0.4551 -0.0995  0.7156
   68SAPC   H3X 5777   5.029   1.252   6.512 -0.0283 -0.2216 -0.9129
   68SAPC   H3Y 5778   5.051   1.081   6.586  0.4317 -0.3742  0.3602
   68SAPC   C34 5779   4.852   1.171   6.622 -0.2806 -0.6569 -0.0575
   68SAPC   H4X 5780   4.809   1.068   6.631 -0.9590 -0.3847 -0.1693
   68SAPC   H4Y 5781   4.777   1.226   6.561 -0.4242 -1.2717 -0.4456
   68SAPC   C35 5782   4.883   1.210   6.773  0.5706 -0.1500  0.4796
   68SAPC   H5X 5783   4.787   1.230   6.827 -0.8575 -1.1127 -1.5733
   68SAPC   H5Y 5784   4.935   1.308   6.778  2.4799 -0.9182 -2.2978
   68SAPC   C36 5785   4.964   1.104   6.848  0.0004  0.7548 -0.2594
   68SAPC   H6X 5786   4.973   1.009   6.790  2.5294  0.5376  0.3577
   68SAPC   H6Y 5787   4.904   1.081   6.939 -2.4167  3.4218 -1.0187
   68SAPC   C37 5788   5.101   1.161   6.874 -0.0915  0.9457  0.4204
   68SAPC   H7X 5789   5.101   1.253   6.937 -2.0808  1.4799 -0.2812
   68SAPC   H7Y 5790   5.155   1.177   6.778 -0.2913 -0.9120 -0.0432
   68SAPC   C38 5791   5.187   1.059   6.956 -0.1660 -0.2413 -0.2837
   68SAPC   H8X 5792   5.294   1.085   6.939 -0.5774  2.0216  0.3077
   68SAPC   H8Y 5793   5.173   0.959   6.910  0.9292 -0.2480 -0.6382
   68SAPC   C39 5794   5.159   1.038   7.107 -0.0975  0.4271  0.5850
   68SAPC   H9X 5795   5.210   0.947   7.146  1.3830  1.3293  0.8553
   68SAPC   H9Y 5796   5.049   1.023   7.114 -0.5679  2.7945 -0.7359
   68SAPC  C310 5797   5.182   1.158   7.202  0.5770  0.1811 -1.0768
   68SAPC  H10X 5798   5.149   1.252   7.153 -0.2898  0.8154  0.6107
   68SAPC  H10Y 5799   5.293   1.159   7.206  0.5611  0.3050 -0.5682
   68SAPC  C311 5800   5.123   1.139   7.342 -0.0479 -0.0145  0.0921
   68SAPC  H11X 5801   5.181   1.059   7.394 -0.3115  0.6508  1.4601
   68SAPC  H11Y 5802   5.017   1.110   7.328 -0.1342  0.4457 -0.2234
   68SAPC  C312 5803   5.126   1.267   7.430 -0.5614 -0.2603 -0.4509
   68SAPC  H12X 5804   5.040   1.261   7.500 -1.0914  0.0710 -1.0677
   68SAPC  H12Y 5805   5.116   1.358   7.368 -1.3379 -0.1530 -0.1726
   68SAPC  C313 5806   5.256   1.278   7.517 -0.6829  0.1726  0.0863
   68SAPC  H13X 5807   5.335   1.280   7.439  0.0896 -0.9867  0.8136
   68SAPC  H13Y 5808   5.267   1.180   7.568 -0.4944  0.0021 -0.2834
   68SAPC  C314 5809   5.264   1.399   7.614 -0.3970 -0.0786  0.3839
   68SAPC  H14X 5810   5.169   1.406   7.671 -1.0066 -0.0227 -0.6243
   68SAPC  H14Y 5811   5.275   1.493   7.558  0.6113 -1.3261 -1.6323
   68SAPC  C315 5812   5.384   1.390   7.714 -0.0795 -0.0171  0.1774
   68SAPC  H15X 5813   5.483   1.403   7.664 -0.0531  0.7244  0.4181
   68SAPC  H15Y 5814   5.381   1.290   7.764  3.4001  0.2603  1.2810
   68SAPC  C316 5815   5.383   1.502   7.815 -0.3963  0.3880 -0.8228
   68SAPC  H16X 5816   5.290   1.506   7.877 -1.2294 -0.9986 -1.9263
   68SAPC  H16Y 5817   5.371   1.604   7.772 -2.1517  0.7302  0.3647
   68SAPC  C317 5818   5.501   1.508   7.911  0.2658 -0.1431  0.0245
   68SAPC  H17X 5819   5.598   1.498   7.857 -0.2156  3.1440 -1.6683
   68SAPC  H17Y 5820   5.483   1.419   7.975  2.8263  0.0808  1.2125
   68SAPC  C318 5821   5.518   1.640   7.995  0.3187  0.8573  0.0558
   68SAPC  H18X 5822   5.424   1.674   8.043 -1.1717 -2.5497 -0.1970
   68SAPC  H18Y 5823   5.548   1.711   7.915  1.7864  0.3707  0.1530
   68SAPC  H18Z 5824   5.598   1.629   8.071  1.2565 -0.8587 -1.1072
   69SLPC     N 5825   0.255   5.335  11.113 -0.3920  0.5272 -0.2571
   69SLPC   C13 5826   0.396   5.374  11.159  0.1734  0.3698 -0.1303
   69SLPC  H13A 5827   0.411   5.479  11.136 -0.3980  0.2883 -0.9057
   69SLPC  H13B 5828   0.395   5.368  11.267 -1.5309 -1.1362 -0.1835
   69SLPC  H13C 5829   0.479   5.311  11.131 -0.8332 -2.3601  2.4535
   69SLPC   C14 5830   0.149   5.394  11.188 -1.2306  0.4789 -0.2111
   69SLPC  H14A 5831   0.149   5.500  11.168  2.1071  0.2764 -2.0098
   69SLPC  H14B 5832   0.048   5.365  11.163 -1.2742  1.6178 -1.4199
   69SLPC  H14C 5833   0.163   5.363  11.291 -1.0161 -0.9293 -0.6407
   69SLPC   C15 5834   0.243   5.187  11.142  0.2548 -0.0337  0.0916
   69SLPC  H15A 5835   0.143   5.147  11.131 -0.8803  2.3484  1.0460
   69SLPC  H15B 5836   0.311   5.135  11.076 -1.9468 -0.8213 -1.6860
   69SLPC  H15C 5837   0.277   5.168  11.242 -3.5412 -1.0732  1.3690
   69SLPC   C12 5838   0.234   5.361  10.963 -0.6375  0.2289 -0.0923
   69SLPC  H12A 5839   0.131   5.337  10.941 -0.4164 -2.2396  1.1986
   69SLPC  H12B 5840   0.292   5.289  10.907 -0.0905  1.0767 -0.6310
   69SLPC   C11 5841   0.254   5.501  10.904  0.1281 -0.5484  0.3795
   69SLPC  H11A 5842   0.253   5.493  10.793 -1.1166  1.9102  0.1600
   69SLPC  H11B 5843   0.358   5.516  10.938  0.3421 -2.0317  0.4491
   69SLPC     P 5844   0.021   5.615  10.894  0.0816 -0.0063  0.2374
   69SLPC   O13 5845  -0.076   5.585  11.000  0.5550  0.5331  0.2797
   69SLPC   O14 5846   0.015   5.748  10.836 -0.3682 -0.1508  0.2748
   69SLPC   O12 5847   0.164   5.603  10.950 -0.3983  0.0551 -0.2469
   69SLPC   O11 5848   0.017   5.514  10.777 -0.1625  0.2326 -0.4920
   69SLPC    C1 5849  -0.099   5.438  10.743  0.3037 -0.1309 -0.1557
   69SLPC    HA 5850  -0.082   5.334  10.777 -3.6952 -0.6942  0.6450
   69SLPC    HB 5851  -0.186   5.487  10.792 -0.1445  1.2368 -2.2233
   69SLPC    C2 5852  -0.130   5.439  10.588 -0.2868  0.2994  0.6249
   69SLPC    HS 5853  -0.205   5.357  10.584  1.6750 -1.5218 -1.0578
   69SLPC   O21 5854  -0.011   5.417  10.502 -0.2140  0.1382 -0.1542
   69SLPC   C21 5855   0.045   5.300  10.511  0.8319 -0.0498  0.0689
   69SLPC   O22 5856   0.008   5.205  10.581 -0.0817 -0.0421 -0.7624
   69SLPC   C22 5857   0.176   5.292  10.434  0.1102  0.1193  0.1041
   69SLPC   H2R 5858   0.174   5.379  10.364  1.5178  3.3694  3.7084
   69SLPC   H2S 5859   0.258   5.313  10.505 -0.0034  1.0182 -0.0140
   69SLPC    C3 5860  -0.191   5.572  10.550  0.0618  0.6751 -0.2528
   69SLPC    HX 5861  -0.110   5.648  10.557  3.2697 -2.5024  0.4661
   69SLPC    HY 5862  -0.275   5.591  10.620 -1.3069 -2.4831 -0.8507
   69SLPC   O31 5863  -0.240   5.567  10.418  0.7697  0.7366  0.1925
   69SLPC   C31 5864  -0.282   5.671  10.352 -0.7291 -0.5922  0.2838
   69SLPC   O32 5865  -0.273   5.791  10.386  0.4956  0.2588 -0.2176
   69SLPC   C32 5866  -0.316   5.633  10.207 -0.4616 -0.3513 -0.6333
   69SLPC   H2X 5867  -0.386   5.547  10.196  2.0242 -2.5506 -0.1361
   69SLPC   H2Y 5868  -0.223   5.598  10.158  2.2131  2.0951  2.2887
   69SLPC   C23 5869   0.194   5.152  10.370 -0.4182 -0.8088  0.5000
   69SLPC   H3R 5870   0.100   5.131  10.316 -0.0778 -1.4997  0.1654
   69SLPC   H3S 5871   0.203   5.067  10.441 -0.4384 -0.3714  1.0369
   69SLPC   C24 5872   0.320   5.142  10.283  0.0703  0.1418  0.0914
   69SLPC   H4R 5873   0.313   5.043  10.231 -0.0426 -2.1276  4.0081
   69SLPC   H4S 5874   0.402   5.119  10.354 -1.0933 -3.2609  0.5399
   69SLPC   C25 5875   0.341   5.249  10.185  0.1964  0.2276  0.6167
   69SLPC   H5R 5876   0.356   5.350  10.230  0.0719  0.8835 -0.7466
   69SLPC   H5S 5877   0.246   5.261  10.128 -0.6188 -0.0816  1.8479
   69SLPC   C26 5878   0.448   5.220  10.078  0.5395  0.3633 -0.7346
   69SLPC   H6R 5879   0.453   5.113  10.047  2.4895 -0.6637  2.6009
   69SLPC   H6S 5880   0.551   5.234  10.118  0.1811  0.8443  0.0389
   69SLPC   C27 5881   0.433   5.312   9.955 -0.3980  0.5883  0.0547
   69SLPC   H7R 5882   0.445   5.420   9.981 -1.0588  1.3068 -2.3009
   69SLPC   H7S 5883   0.331   5.315   9.911  0.2224 -0.4443 -1.5530
   69SLPC   C28 5884   0.542   5.282   9.845 -0.3111  0.0782  0.1516
   69SLPC   H8R 5885   0.529   5.176   9.812 -1.0913  0.1926  0.0717
   69SLPC   H8S 5886   0.639   5.305   9.895 -1.8861  0.3776  3.3233
   69SLPC   C29 5887   0.542   5.354   9.711  0.4639  0.2601  0.6472
   69SLPC   H9R 5888   0.620   5.429   9.692 -1.6413  2.2086 -0.6904
   69SLPC  C210 5889   0.468   5.309   9.599  0.1902 -0.0033 -0.0174
   69SLPC  H10R 5890   0.475   5.386   9.520  0.0055 -0.2166 -0.2412
   69SLPC  C211 5891   0.353   5.214   9.607  0.3189 -0.3360  0.3309
   69SLPC  H11R 5892   0.328   5.182   9.711  0.7074  3.4283  1.7638
   69SLPC  H11S 5893   0.387   5.120   9.559 -0.1940 -0.7333  0.7228
   69SLPC  C212 5894   0.219   5.269   9.557 -0.0694 -0.2511  0.1681
   69SLPC  H12R 5895   0.158   5.307   9.641  0.7280 -1.9618  1.5994
   69SLPC  C213 5896   0.176   5.275   9.432 -0.0592  0.3609  0.2919
   69SLPC  H13R 5897   0.069   5.295   9.415 -0.1131 -0.5614 -0.5575
   69SLPC  C214 5898   0.249   5.220   9.312  0.2715  0.3571 -0.6057
   69SLPC  H14R 5899   0.237   5.110   9.305  0.8883  0.2092  0.4517
   69SLPC  H14S 5900   0.357   5.240   9.332  0.0760  0.5687  0.2880
   69SLPC  C215 5901   0.208   5.283   9.173  0.3180  0.1682 -0.0949
   69SLPC  H15R 5902   0.104   5.250   9.154 -0.7825  1.9488  2.1965
   69SLPC  H15S 5903   0.282   5.248   9.099  0.6518 -0.1439  0.3797
   69SLPC  C216 5904   0.209   5.438   9.190 -0.2023  0.9024  0.1163
   69SLPC  H16R 5905   0.318   5.461   9.196  0.2598 -0.5204 -1.8627
   69SLPC  H16S 5906   0.159   5.475   9.282 -0.5322 -0.0117  0.3112
   69SLPC  C217 5907   0.148   5.517   9.071  0.3288 -0.2094 -0.1127
   69SLPC  H17R 5908   0.217   5.500   8.985 -0.7288 -0.5728 -0.9168
   69SLPC  H17S 5909   0.138   5.623   9.104  0.3106 -0.3087  0.2028
   69SLPC  C218 5910   0.012   5.465   9.012 -0.3443 -0.5060  0.1949
   69SLPC  H18R 5911  -0.073   5.500   9.074 -0.7945 -0.7646 -0.2668
   69SLPC  H18S 5912  -0.012   5.357   9.006 -2.5596  0.0090 -2.1480
   69SLPC  H18T 5913  -0.011   5.505   8.911  0.1982  1.1747  0.7103
   69SLPC   C33 5914  -0.365   5.763  10.127  0.1137  0.0736 -0.5880
   69SLPC   H3X 5915  -0.328   5.863  10.161  0.3125 -0.6853  1.5540
   69SLPC   H3Y 5916  -0.472   5.769  10.153  0.0133 -0.2555 -0.9155
   69SLPC   C34 5917  -0.346   5.750   9.973  1.0886 -1.1313 -0.4389
   69SLPC   H4X 5918  -0.378   5.649   9.939 -0.8694 -0.3401 -1.1053
   69SLPC   H4Y 5919  -0.239   5.759   9.945  1.6156  1.3134  1.9637
   69SLPC   C35 5920  -0.434   5.856   9.907 -0.1015 -0.6937 -1.0257
   69SLPC   H5X 5921  -0.393   5.957   9.932 -1.7995 -0.6273  1.8460
   69SLPC   H5Y 5922  -0.536   5.851   9.950 -0.1021  1.5221 -0.6351
   69SLPC   C36 5923  -0.441   5.845   9.758 -0.5302 -0.9387  0.0613
   69SLPC   H6X 5924  -0.518   5.917   9.724  1.3058  1.5924  0.9531
   69SLPC   H6Y 5925  -0.473   5.743   9.730 -2.7769 -0.0656 -0.7774
   69SLPC   C37 5926  -0.307   5.877   9.691 -0.0192 -0.0284  0.4833
   69SLPC   H7X 5927  -0.220   5.820   9.728  0.4463 -1.6993 -2.8079
   69SLPC   H7Y 5928  -0.306   5.986   9.710 -2.1532  0.0180  0.6114
   69SLPC   C38 5929  -0.321   5.843   9.540  0.0394 -0.4377  0.3707
   69SLPC   H8X 5930  -0.362   5.740   9.546 -0.5255 -0.2140  0.4188
   69SLPC   H8Y 5931  -0.221   5.838   9.492  0.6007 -0.5398  1.5079
   69SLPC   C39 5932  -0.406   5.947   9.460  0.3193 -0.2089 -0.8212
   69SLPC   H9X 5933  -0.339   6.031   9.434  2.2456 -1.2177  0.5974
   69SLPC   H9Y 5934  -0.482   5.980   9.535  1.2906  1.1584 -0.3825
   69SLPC  C310 5935  -0.451   5.880   9.339  0.1136 -0.2471  0.1905
   69SLPC  H10X 5936  -0.526   5.947   9.293 -0.7281 -0.5742  1.0437
   69SLPC  H10Y 5937  -0.504   5.787   9.368 -1.7802  0.3224 -1.2780
   69SLPC  C311 5938  -0.345   5.844   9.234  0.0844  0.0600 -0.4497
   69SLPC  H11X 5939  -0.261   5.785   9.275  0.6529  2.0644  1.4161
   69SLPC  H11Y 5940  -0.293   5.935   9.197 -0.3078  0.9283  1.0519
   69SLPC  C312 5941  -0.410   5.759   9.124  0.6880 -0.1635 -0.2797
   69SLPC  H12X 5942  -0.515   5.791   9.107  0.1979 -0.7906  1.3732
   69SLPC  H12Y 5943  -0.429   5.662   9.176 -4.5263  0.6145 -0.1883
   69SLPC  C313 5944  -0.329   5.756   8.995 -0.4190 -0.2472 -0.2715
   69SLPC  H13X 5945  -0.224   5.739   9.026  0.0063  0.8036 -1.0879
   69SLPC  H13Y 5946  -0.339   5.858   8.951 -0.8674 -0.1858 -0.0389
   69SLPC  C314 5947  -0.362   5.660   8.883 -0.4128  0.6146  0.1053
   69SLPC  H14X 5948  -0.468   5.676   8.855 -1.0402 -0.4666  1.7162
   69SLPC  H14Y 5949  -0.358   5.557   8.925  1.5920  0.5986 -0.0058
   69SLPC  C315 5950  -0.269   5.676   8.759 -0.1104 -0.0833 -0.4776
   69SLPC  H15X 5951  -0.162   5.670   8.791  0.1298  0.9187 -1.0373
   69SLPC  H15Y 5952  -0.287   5.783   8.735  2.0604  0.4188 -0.0816
   69SLPC  C316 5953  -0.300   5.588   8.637 -0.8747  0.7479 -0.0244
   69SLPC  H16X 5954  -0.409   5.605   8.622 -0.9210 -0.1878 -0.8552
   69SLPC  H16Y 5955  -0.281   5.482   8.666  0.4671  0.4752 -1.7983
   69SLPC  C317 5956  -0.216   5.631   8.507  0.0367 -0.1582  0.2215
   69SLPC  H17X 5957  -0.110   5.636   8.537 -0.2271 -0.6636  1.2645
   69SLPC  H17Y 5958  -0.266   5.722   8.466 -0.7826  0.2105  1.9698
   69SLPC  C318 5959  -0.226   5.526   8.395  0.6377  0.0412 -0.0857
   69SLPC  H18X 5960  -0.331   5.496   8.371  1.2404 -0.5765 -2.1628
   69SLPC  H18Y 5961  -0.168   5.435   8.422  0.7304  0.5084  1.3909
   69SLPC  H18Z 5962  -0.189   5.569   8.300  2.8594  0.5084  0.9253
   70SLPC     N 5963   5.438   3.771  11.050  0.5448  0.0002  0.4322
   70SLPC   C13 5964   5.304   3.819  11.082 -1.1657 -0.3759  0.0483
   70SLPC  H13A 5965   5.228   3.756  11.038 -1.0773  1.4329 -2.9632
   70SLPC  H13B 5966   5.298   3.814  11.190  1.9335  1.5369  0.4212
   70SLPC  H13C 5967   5.291   3.925  11.066  1.4043  0.4794  2.6985
   70SLPC   C14 5968   5.443   3.619  11.048  0.0800 -0.5947  0.0434
   70SLPC  H14A 5969   5.384   3.588  11.132 -1.7912 -0.4608 -1.1679
   70SLPC  H14B 5970   5.388   3.587  10.961 -1.6915  2.0440  0.1076
   70SLPC  H14C 5971   5.544   3.581  11.040  0.8066  1.0836  0.9495
   70SLPC   C15 5972   5.534   3.823  11.143  0.2144 -0.2662 -0.2157
   70SLPC  H15A 5973   5.520   3.778  11.240 -2.0416  1.9935  0.6172
   70SLPC  H15B 5974   5.639   3.812  11.118  1.4482 -3.4043  4.8307
   70SLPC  H15C 5975   5.526   3.929  11.159  1.0646 -0.2161 -0.0324
   70SLPC   C12 5976   5.481   3.822  10.908 -0.0722 -0.4260  0.3514
   70SLPC  H12A 5977   5.573   3.769  10.889  0.5663  0.8856 -0.2768
   70SLPC  H12B 5978   5.505   3.927  10.911  1.7726 -0.7388 -1.6156
   70SLPC   C11 5979   5.396   3.791  10.783  0.0209 -0.8032 -0.6389
   70SLPC  H11A 5980   5.395   3.680  10.774  3.4706 -0.9156 -0.8801
   70SLPC  H11B 5981   5.445   3.816  10.686 -0.5384  0.5577 -0.6020
   70SLPC     P 5982   5.225   3.980  10.742 -0.2819  0.3566 -0.1953
   70SLPC   O13 5983   5.085   4.001  10.785 -0.5847  0.3137 -0.4101
   70SLPC   O14 5984   5.325   4.077  10.797 -0.1907  0.4756 -0.2091
   70SLPC   O12 5985   5.260   3.834  10.793  0.4201 -0.3499  0.3953
   70SLPC   O11 5986   5.244   3.965  10.586  0.0369 -0.3484  0.1552
   70SLPC    C1 5987   5.139   3.893  10.516 -0.6818  0.1890  0.7229
   70SLPC    HA 5988   5.039   3.913  10.561 -1.0979 -2.1051  0.9188
   70SLPC    HB 5989   5.145   3.936  10.414  0.6227  1.7231  1.3931
   70SLPC    C2 5990   5.172   3.736  10.494 -1.0166 -0.1575  0.1951
   70SLPC    HS 5991   5.202   3.693  10.592 -0.6115  1.4574  0.8133
   70SLPC   O21 5992   5.286   3.719  10.399 -0.2998  0.1920 -0.3408
   70SLPC   C21 5993   5.367   3.612  10.420  0.1658 -0.2737 -0.0634
   70SLPC   O22 5994   5.355   3.543  10.521 -0.2907  0.0133 -0.1169
   70SLPC   C22 5995   5.460   3.595  10.300 -0.6705 -0.0375 -0.2166
   70SLPC   H2R 5996   5.537   3.517  10.318 -0.8044 -0.5337 -1.7282
   70SLPC   H2S 5997   5.402   3.566  10.211  0.1451 -0.0603 -0.7542
   70SLPC    C3 5998   5.064   3.659  10.428 -0.3095 -0.0301  0.1871
   70SLPC    HX 5999   5.030   3.723  10.344  1.2773  0.5886 -0.0186
   70SLPC    HY 6000   4.973   3.658  10.491 -1.1490  1.4508 -0.9201
   70SLPC   O31 6001   5.102   3.530  10.379  0.0252  0.0063  0.1269
   70SLPC   C31 6002   5.006   3.460  10.324  0.3432  1.2300  0.2552
   70SLPC   O32 6003   4.887   3.489  10.326  0.2558  0.0403 -0.0986
   70SLPC   C32 6004   5.055   3.321  10.280  0.1458 -0.3909  0.6375
   70SLPC   H2X 6005   5.019   3.249  10.356 -1.2319  0.4186  0.7775
   70SLPC   H2Y 6006   5.165   3.311  10.295 -0.0007 -1.1270  1.3197
   70SLPC   C23 6007   5.539   3.727  10.272  0.2448  0.5270 -0.2615
   70SLPC   H3R 6008   5.625   3.739  10.341  0.7345  0.8818 -0.9271
   70SLPC   H3S 6009   5.473   3.816  10.286  0.9824  0.6378  4.1008
   70SLPC   C24 6010   5.599   3.748  10.131  0.2878  0.8255  0.4620
   70SLPC   H4R 6011   5.666   3.662  10.107  0.8110  1.1742  0.6467
   70SLPC   H4S 6012   5.665   3.836  10.147 -0.6420  1.5702  0.2709
   70SLPC   C25 6013   5.499   3.766  10.016 -0.5554 -0.0845  0.1400
   70SLPC   H5R 6014   5.438   3.850  10.054  1.0962  0.7637  0.9872
   70SLPC   H5S 6015   5.438   3.674   9.998  0.6521 -1.4386  2.5503
   70SLPC   C26 6016   5.568   3.792   9.883 -0.1384  0.1408 -0.1703
   70SLPC   H6R 6017   5.652   3.719   9.885  1.3786  1.7414 -1.5995
   70SLPC   H6S 6018   5.620   3.890   9.877  3.2104 -1.4692  0.0879
   70SLPC   C27 6019   5.475   3.770   9.757 -0.1878  0.4177  0.4198
   70SLPC   H7R 6020   5.382   3.830   9.750  0.2425  1.0246 -0.2662
   70SLPC   H7S 6021   5.446   3.663   9.758 -2.5132  0.9554 -1.0221
   70SLPC   C28 6022   5.553   3.814   9.636 -0.1638 -0.7449  0.2430
   70SLPC   H8R 6023   5.610   3.906   9.662 -0.3964 -0.5320 -0.0054
   70SLPC   H8S 6024   5.478   3.850   9.563  0.4646  0.0562 -0.0087
   70SLPC   C29 6025   5.644   3.713   9.577  0.4331 -0.7305  0.6047
   70SLPC   H9R 6026   5.725   3.669   9.637  3.1375 -0.1971 -2.3787
   70SLPC  C210 6027   5.661   3.687   9.445 -0.3527 -0.1540  0.3332
   70SLPC  H10R 6028   5.745   3.620   9.418 -1.6163 -1.8761  0.4954
   70SLPC  C211 6029   5.567   3.736   9.335 -0.4593  0.5487  0.2653
   70SLPC  H11R 6030   5.467   3.759   9.378 -0.2461  0.5858  0.7575
   70SLPC  H11S 6031   5.554   3.649   9.268 -1.3152  0.8127  0.0902
   70SLPC  C212 6032   5.624   3.857   9.265 -1.2426  0.5418 -0.1131
   70SLPC  H12R 6033   5.688   3.923   9.324 -0.0865 -1.1785  0.6399
   70SLPC  C213 6034   5.608   3.889   9.135 -0.3584  0.5248  0.0294
   70SLPC  H13R 6035   5.631   3.993   9.107  0.2792  0.5152  0.5023
   70SLPC  C214 6036   5.530   3.825   9.025  0.2106  0.6556  0.1405
   70SLPC  H14R 6037   5.462   3.755   9.077  1.0543  0.9893  1.7441
   70SLPC  H14S 6038   5.596   3.765   8.959 -1.9738  0.3742 -1.9253
   70SLPC  C215 6039   5.463   3.931   8.939 -0.1512  0.1255 -0.8301
   70SLPC  H15R 6040   5.543   3.998   8.900 -0.3176  0.3872 -0.7258
   70SLPC  H15S 6041   5.390   3.989   9.000 -1.1157 -1.0635 -0.8156
   70SLPC  C216 6042   5.387   3.876   8.813  0.0870 -0.2400 -0.1367
   70SLPC  H16R 6043   5.297   3.816   8.839 -1.3718  1.7560 -0.2864
   70SLPC  H16S 6044   5.460   3.824   8.748 -0.6744  0.4818 -1.6202
   70SLPC  C217 6045   5.335   4.003   8.741 -0.0103  0.1768 -0.3098
   70SLPC  H17R 6046   5.426   4.056   8.707  0.4098  0.2442  0.8974
   70SLPC  H17S 6047   5.280   4.069   8.812  0.0267 -0.8713  0.7170
   70SLPC  C218 6048   5.241   4.002   8.617 -0.2186 -0.0688 -0.8716
   70SLPC  H18R 6049   5.207   4.105   8.593  0.4212  0.3543 -0.0284
   70SLPC  H18S 6050   5.152   3.938   8.634 -2.4738  2.4409 -2.3774
   70SLPC  H18T 6051   5.306   3.963   8.536  0.0579  0.9252 -1.1384
   70SLPC   C33 6052   5.003   3.272  10.144  0.6290  0.2306  0.7048
   70SLPC   H3X 6053   4.893   3.261  10.152  0.8982 -2.0401  2.1184
   70SLPC   H3Y 6054   5.039   3.168  10.130  1.4296  0.7953 -1.9164
   70SLPC   C34 6055   5.062   3.346  10.023 -0.5700 -0.0568  0.2699
   70SLPC   H4X 6056   5.037   3.454  10.031  0.4192  0.1376  0.8195
   70SLPC   H4Y 6057   5.022   3.305   9.928  1.4042  0.5970 -0.8948
   70SLPC   C35 6058   5.211   3.332  10.007 -0.0204  0.1504 -0.5080
   70SLPC   H5X 6059   5.227   3.224   9.985  2.2682  0.6906 -1.8688
   70SLPC   H5Y 6060   5.257   3.366  10.102 -0.9911  4.4818 -1.3812
   70SLPC   C36 6061   5.257   3.414   9.881 -0.6682  0.3554 -0.2186
   70SLPC   H6X 6062   5.364   3.388   9.868 -0.7260  0.4705 -0.9475
   70SLPC   H6Y 6063   5.245   3.523   9.899 -2.1900  0.4832 -1.7699
   70SLPC   C37 6064   5.211   3.380   9.740  0.6150  0.1113  0.2726
   70SLPC   H7X 6065   5.100   3.383   9.730  0.7530 -0.3704 -1.9377
   70SLPC   H7Y 6066   5.230   3.271   9.730 -3.1079 -0.9400  2.3668
   70SLPC   C38 6067   5.280   3.447   9.615  0.1090  0.0143 -0.0322
   70SLPC   H8X 6068   5.391   3.456   9.618  0.2363 -1.6185  2.3084
   70SLPC   H8Y 6069   5.251   3.554   9.603  1.3697  0.3582 -0.1240
   70SLPC   C39 6070   5.251   3.376   9.485 -0.3177  0.0706  0.1481
   70SLPC   H9X 6071   5.145   3.367   9.455  0.0439 -3.2489 -0.5609
   70SLPC   H9Y 6072   5.291   3.272   9.494  3.1449  1.1885 -0.6968
   70SLPC  C310 6073   5.325   3.448   9.376  0.8981 -0.5736  0.2908
   70SLPC  H10X 6074   5.434   3.443   9.397  1.0734 -1.1151 -0.6930
   70SLPC  H10Y 6075   5.301   3.554   9.352  2.0316 -0.6139 -1.1664
   70SLPC  C311 6076   5.302   3.374   9.245 -0.1075 -0.3942  1.3165
   70SLPC  H11X 6077   5.195   3.351   9.227  0.5868 -1.9967 -1.1430
   70SLPC  H11Y 6078   5.369   3.286   9.252  1.1722  0.3672 -0.4725
   70SLPC  C312 6079   5.353   3.450   9.125  0.1457 -0.3483 -0.0839
   70SLPC  H12X 6080   5.461   3.457   9.150 -0.0236  2.9401  0.2004
   70SLPC  H12Y 6081   5.312   3.553   9.118 -0.5203 -0.7089 -3.5591
   70SLPC  C313 6082   5.350   3.372   8.991  0.1426  0.0820  0.1478
   70SLPC  H13X 6083   5.252   3.321   8.985 -1.5735  3.2746 -1.5893
   70SLPC  H13Y 6084   5.423   3.289   8.979  0.9231  1.0519 -2.3866
   70SLPC  C314 6085   5.395   3.463   8.872  0.5473  0.5594  0.1838
   70SLPC  H14X 6086   5.496   3.489   8.910  0.6734 -0.5945  0.7000
   70SLPC  H14Y 6087   5.347   3.562   8.866  1.4025  0.9350 -0.9810
   70SLPC  C315 6088   5.392   3.399   8.731 -0.1260 -1.0883 -0.3822
   70SLPC  H15X 6089   5.284   3.372   8.720 -0.7257  0.9755 -0.0923
   70SLPC  H15Y 6090   5.448   3.304   8.722  0.6938 -0.6550  0.0332
   70SLPC  C316 6091   5.450   3.495   8.634  0.1436 -0.7575  0.7168
   70SLPC  H16X 6092   5.550   3.518   8.675  0.8620 -1.1388 -0.7412
   70SLPC  H16Y 6093   5.384   3.585   8.637 -1.5105 -1.8961 -0.0787
   70SLPC  C317 6094   5.465   3.446   8.487  0.1317 -0.5399 -0.1235
   70SLPC  H17X 6095   5.504   3.538   8.438  2.1455  0.3204  2.7890
   70SLPC  H17Y 6096   5.364   3.423   8.446  0.1868  0.2621 -0.7284
   70SLPC  C318 6097   5.562   3.337   8.448 -0.1454  0.5048 -0.0943
   70SLPC  H18X 6098   5.543   3.245   8.506  2.5165 -1.6816 -2.3846
   70SLPC  H18Y 6099   5.668   3.370   8.450  0.1834 -0.4820 -0.3457
   70SLPC  H18Z 6100   5.559   3.316   8.339  2.4445  1.1458 -0.3668
   71SLPC     N 6101   5.439   1.448  10.650 -0.0182  0.0002  0.1700
   71SLPC   C13 6102   5.437   1.309  10.709 -0.3222 -0.4909 -0.3151
   71SLPC  H13A 6103   5.385   1.302  10.804  0.4718 -1.1905  0.0768
   71SLPC  H13B 6104   5.385   1.236  10.649  1.9873 -1.5812 -1.0977
   71SLPC  H13C 6105   5.535   1.265  10.714 -0.1098  0.1231  1.4867
   71SLPC   C14 6106   5.530   1.527  10.731  0.2065  0.1736  0.0580
   71SLPC  H14A 6107   5.633   1.496  10.722  0.2426  0.3367 -0.1143
   71SLPC  H14B 6108   5.527   1.627  10.689 -0.2427  0.5758  1.0172
   71SLPC  H14C 6109   5.492   1.522  10.832  1.2831 -2.3165  0.4184
   71SLPC   C15 6110   5.299   1.501  10.640 -0.1406 -0.4645 -0.3182
   71SLPC  H15A 6111   5.282   1.549  10.735  2.9455  0.0793  0.0617
   71SLPC  H15B 6112   5.290   1.579  10.566  2.5779 -0.0284 -0.3103
   71SLPC  H15C 6113   5.229   1.421  10.623 -0.5481  0.2886 -2.4567
   71SLPC   C12 6114   5.506   1.443  10.510  0.1002 -0.1339 -0.2318
   71SLPC  H12A 6115   5.502   1.540  10.463  0.4701 -1.1226 -2.4198
   71SLPC  H12B 6116   5.449   1.390  10.435 -1.0187 -0.8955  1.0994
   71SLPC   C11 6117   5.651   1.388  10.493 -0.4553  0.6105  0.4124
   71SLPC  H11A 6118   5.653   1.361  10.386  0.1799  1.5287  0.1771
   71SLPC  H11B 6119   5.657   1.299  10.559 -2.3601  0.2676  0.1600
   71SLPC     P 6120   5.779   1.598  10.416 -0.0761  0.0048 -0.0321
   71SLPC   O13 6121   5.650   1.666  10.383  0.2681  0.3329 -0.6936
   71SLPC   O14 6122   5.897   1.682  10.453  0.1791  0.4065 -0.0128
   71SLPC   O12 6123   5.744   1.491  10.527  0.1333  0.3704 -0.4014
   71SLPC   O11 6124   5.819   1.505  10.302 -0.2102 -0.0564 -0.0008
   71SLPC    C1 6125   5.956   1.497  10.274 -0.6827  0.5915 -0.5043
   71SLPC    HA 6126   6.003   1.594  10.249  0.7172  0.4327  1.2388
   71SLPC    HB 6127   6.009   1.468  10.368 -2.1380  1.7103  0.7132
   71SLPC    C2 6128   5.981   1.391  10.165  0.0218  0.5364 -0.0412
   71SLPC    HS 6129   6.091   1.393  10.152 -0.2321  2.1504 -2.6508
   71SLPC   O21 6130   5.918   1.423  10.034 -0.8792 -0.1204 -0.4805
   71SLPC   C21 6131   5.973   1.521   9.980 -0.2901  0.5664 -0.4561
   71SLPC   O22 6132   6.077   1.577  10.011 -0.7183  0.1160 -0.1181
   71SLPC   C22 6133   5.910   1.560   9.851 -0.4330 -0.8817  0.9965
   71SLPC   H2R 6134   5.878   1.466   9.803  1.5636 -1.4091  0.6303
   71SLPC   H2S 6135   5.830   1.635   9.870  0.4237  0.0300  1.1174
   71SLPC    C3 6136   5.939   1.249  10.217 -0.4481 -0.3620  0.3229
   71SLPC    HX 6137   5.830   1.266  10.226 -0.5324 -1.7474  2.5353
   71SLPC    HY 6138   5.988   1.222  10.313 -0.1912  1.2751  0.6818
   71SLPC   O31 6139   5.956   1.154  10.107  0.1430 -0.7455 -0.7252
   71SLPC   C31 6140   6.082   1.110  10.083 -0.0324  0.5687  0.3272
   71SLPC   O32 6141   6.182   1.135  10.146  0.1870 -0.1851  1.1059
   71SLPC   C32 6142   6.078   1.017   9.952  0.7342 -0.5483 -0.6831
   71SLPC   H2X 6143   5.974   1.010   9.914  0.6847  1.7567 -1.1328
   71SLPC   H2Y 6144   6.099   0.913   9.984 -2.1415 -1.0380 -0.1042
   71SLPC   C23 6145   6.020   1.619   9.761 -0.0721 -0.0934  0.2241
   71SLPC   H3R 6146   6.106   1.549   9.760 -1.2217 -1.5727  1.1241
   71SLPC   H3S 6147   6.051   1.714   9.811  1.3910 -1.7408  2.6881
   71SLPC   C24 6148   5.972   1.645   9.619  0.7562 -0.1053 -0.1199
   71SLPC   H4R 6149   5.922   1.742   9.601  3.0834  1.0086 -0.9876
   71SLPC   H4S 6150   5.907   1.560   9.589  0.7015  0.5697 -2.0711
   71SLPC   C25 6151   6.080   1.649   9.511 -0.2051 -0.1116 -0.1863
   71SLPC   H5R 6152   6.146   1.561   9.527 -0.8002 -0.9167 -1.9503
   71SLPC   H5S 6153   6.140   1.740   9.531  0.9718 -0.6096 -1.3522
   71SLPC   C26 6154   6.024   1.649   9.371  0.6770 -0.2442 -0.1254
   71SLPC   H6R 6155   5.974   1.749   9.376  1.5270  0.3076 -1.8387
   71SLPC   H6S 6156   5.956   1.564   9.349 -1.4781  1.0957  0.8797
   71SLPC   C27 6157   6.131   1.666   9.266  0.4525  0.4101  0.4170
   71SLPC   H7R 6158   6.192   1.574   9.270  0.2220  0.2557  0.3694
   71SLPC   H7S 6159   6.200   1.750   9.290  1.1032  0.2788 -0.8983
   71SLPC   C28 6160   6.071   1.674   9.120  0.1345 -0.5241  0.2761
   71SLPC   H8R 6161   5.994   1.594   9.117 -0.5327  0.1017 -2.8341
   71SLPC   H8S 6162   6.151   1.664   9.044 -0.5716 -0.9444 -0.4337
   71SLPC   C29 6163   5.997   1.809   9.106 -0.4421  0.0381  0.2209
   71SLPC   H9R 6164   5.971   1.856   9.202 -1.5611 -1.4309  0.6695
   71SLPC  C210 6165   5.940   1.852   8.993  0.8848  0.3759  0.8070
   71SLPC  H10R 6166   5.891   1.951   8.985  0.0381 -0.1720 -1.5443
   71SLPC  C211 6167   5.949   1.781   8.860  0.3220 -0.1774  0.0630
   71SLPC  H11R 6168   6.044   1.723   8.850 -1.8330 -3.9781 -0.3603
   71SLPC  H11S 6169   5.966   1.856   8.780 -0.9266 -1.5077 -1.5243
   71SLPC  C212 6170   5.836   1.680   8.842  0.0315 -0.7777 -0.2764
   71SLPC  H12R 6171   5.751   1.691   8.911 -1.2039  0.5572 -1.9376
   71SLPC  C213 6172   5.830   1.593   8.737 -0.8624 -0.0334  0.3326
   71SLPC  H13R 6173   5.741   1.530   8.726 -1.8802  1.2336  0.9840
   71SLPC  C214 6174   5.925   1.566   8.620 -0.2740 -0.3116  0.2560
   71SLPC  H14R 6175   5.945   1.459   8.598  1.0276  0.2742 -1.7455
   71SLPC  H14S 6176   6.024   1.600   8.657 -0.1404  0.2909 -0.6134
   71SLPC  C215 6177   5.884   1.640   8.494  0.3771 -0.8351  0.3912
   71SLPC  H15R 6178   5.900   1.749   8.511  1.7475 -0.8847 -0.4763
   71SLPC  H15S 6179   5.779   1.620   8.465  0.1226  1.2459 -0.2886
   71SLPC  C216 6180   5.972   1.606   8.374 -0.0161 -0.1367 -0.6831
   71SLPC  H16R 6181   5.968   1.500   8.341 -0.0275 -0.7526  1.1930
   71SLPC  H16S 6182   6.077   1.630   8.401 -0.2184  0.4199 -0.3656
   71SLPC  C217 6183   5.940   1.697   8.253  0.0841  0.6116  0.9578
   71SLPC  H17R 6184   5.833   1.678   8.230  0.1815  1.7979 -0.6917
   71SLPC  H17S 6185   6.002   1.658   8.170 -0.8270 -0.0585  0.5799
   71SLPC  C218 6186   5.965   1.844   8.278 -0.2176 -0.6421 -0.5598
   71SLPC  H18R 6187   5.900   1.881   8.359  0.9646 -1.0450  0.6038
   71SLPC  H18S 6188   5.944   1.902   8.185  0.1710  0.3541 -0.0391
   71SLPC  H18T 6189   6.072   1.850   8.309 -0.4154 -0.8438  0.1697
   71SLPC   C33 6190   6.184   1.066   9.851  0.5078  0.2167 -0.5907
   71SLPC   H3X 6191   6.189   0.980   9.781 -0.3197 -0.5558  0.2773
   71SLPC   H3Y 6192   6.280   1.071   9.907  0.5872  1.7398 -0.8208
   71SLPC   C34 6193   6.141   1.197   9.777  0.1108  0.0630  0.2408
   71SLPC   H4X 6194   6.218   1.229   9.704  1.7941 -1.9978  1.0013
   71SLPC   H4Y 6195   6.131   1.276   9.854 -1.3731  0.0316  0.1085
   71SLPC   C35 6196   6.008   1.197   9.686  0.4392  0.1522  0.2386
   71SLPC   H5X 6197   5.999   1.293   9.630  1.7520 -0.5745 -1.2863
   71SLPC   H5Y 6198   5.920   1.186   9.752  0.1232 -0.1680 -0.2315
   71SLPC   C36 6199   6.012   1.086   9.576  0.1691 -0.0476  0.1449
   71SLPC   H6X 6200   6.024   0.991   9.632 -0.2655  0.6231  1.4324
   71SLPC   H6Y 6201   6.106   1.104   9.520 -0.9471  2.0981 -1.1670
   71SLPC   C37 6202   5.898   1.090   9.485  0.2440 -0.8396  0.5926
   71SLPC   H7X 6203   5.803   1.088   9.543 -1.0422 -2.1124 -1.4053
   71SLPC   H7Y 6204   5.910   0.996   9.427  0.8115  0.1939 -1.0546
   71SLPC   C38 6205   5.894   1.207   9.388 -0.0806 -0.1548  0.8407
   71SLPC   H8X 6206   5.999   1.236   9.365 -0.4211 -0.1770 -0.8915
   71SLPC   H8Y 6207   5.850   1.297   9.437 -0.9917  1.4551 -2.6329
   71SLPC   C39 6208   5.822   1.180   9.258 -0.0771 -0.4832  0.8639
   71SLPC   H9X 6209   5.721   1.132   9.263 -1.2767  1.8325  0.3752
   71SLPC   H9Y 6210   5.884   1.108   9.201  0.3996 -0.9092  1.9112
   71SLPC  C310 6211   5.807   1.299   9.154 -0.0866 -0.6960 -0.5934
   71SLPC  H10X 6212   5.898   1.308   9.091 -0.0348 -0.5546 -0.4988
   71SLPC  H10Y 6213   5.799   1.395   9.210  0.6048 -0.2331 -1.2629
   71SLPC  C311 6214   5.676   1.287   9.072 -0.0052  0.3621 -0.1728
   71SLPC  H11X 6215   5.644   1.382   9.024 -3.0352  0.2553  1.4119
   71SLPC  H11Y 6216   5.592   1.250   9.134 -0.2369  1.9829  0.5185
   71SLPC  C312 6217   5.690   1.178   8.969 -1.2239 -0.2769  0.0574
   71SLPC  H12X 6218   5.717   1.080   9.014  2.2957 -0.2098 -1.5824
   71SLPC  H12Y 6219   5.780   1.204   8.909 -0.2757 -0.3497  1.3989
   71SLPC  C313 6220   5.569   1.159   8.867  0.7865  0.3573  0.2628
   71SLPC  H13X 6221   5.475   1.171   8.925  0.4590  1.2720 -0.4464
   71SLPC  H13Y 6222   5.572   1.049   8.851 -1.4850  0.1710  0.7970
   71SLPC  C314 6223   5.573   1.230   8.738 -0.2287  0.3055  0.1292
   71SLPC  H14X 6224   5.665   1.206   8.681 -0.5463 -2.7452  0.7405
   71SLPC  H14Y 6225   5.547   1.338   8.746 -3.0487 -0.0338 -2.4432
   71SLPC  C315 6226   5.466   1.183   8.647 -0.2304  0.3117 -0.5667
   71SLPC  H15X 6227   5.378   1.182   8.715  0.5488 -0.0422  0.4513
   71SLPC  H15Y 6228   5.478   1.079   8.609 -2.8819  0.5796 -2.4672
   71SLPC  C316 6229   5.449   1.275   8.529 -0.7029 -0.2589  0.4423
   71SLPC  H16X 6230   5.413   1.372   8.567 -1.6502 -0.7404  0.8091
   71SLPC  H16Y 6231   5.367   1.234   8.466  0.4437 -0.2464 -1.1162
   71SLPC  C317 6232   5.576   1.289   8.441  0.0601  0.0598  0.6750
   71SLPC  H17X 6233   5.633   1.194   8.432  2.3285  1.3995  0.2224
   71SLPC  H17Y 6234   5.641   1.356   8.501 -0.3362  0.5165  0.6035
   71SLPC  C318 6235   5.545   1.334   8.301 -0.2911 -0.2006  0.1112
   71SLPC  H18X 6236   5.641   1.364   8.254  0.1353 -0.7840  0.5967
   71SLPC  H18Y 6237   5.488   1.429   8.300  2.4663  1.5626 -0.5637
   71SLPC  H18Z 6238   5.494   1.264   8.231  0.0395  2.2541 -2.8252
   72SLPC     N 6239   1.253   5.902  11.101 -0.2857  0.1841  0.1388
   72SLPC   C13 6240   1.134   5.972  11.159  0.1978  0.6215  0.2842
   72SLPC  H13A 6241   1.046   5.947  11.101 -0.2417  2.0584  0.2805
   72SLPC  H13B 6242   1.118   5.936  11.260  0.8847  1.1032  0.5731
   72SLPC  H13C 6243   1.150   6.079  11.158  0.0067  0.6485  0.1219
   72SLPC   C14 6244   1.368   5.923  11.185  0.0231 -0.1785  0.3035
   72SLPC  H14A 6245   1.352   5.899  11.289 -1.6303  2.1837  0.6629
   72SLPC  H14B 6246   1.454   5.873  11.143  1.3718  2.1779  0.1076
   72SLPC  H14C 6247   1.392   6.027  11.197 -1.4412  0.3395 -0.9922
   72SLPC   C15 6248   1.266   5.940  10.959 -0.8551  0.2665 -0.8043
   72SLPC  H15A 6249   1.180   5.923  10.896 -1.6927 -0.7856  0.5749
   72SLPC  H15B 6250   1.305   6.038  10.936 -3.8282  2.0017  0.9853
   72SLPC  H15C 6251   1.337   5.876  10.908 -1.0304  0.5287 -1.3825
   72SLPC   C12 6252   1.219   5.754  11.095 -0.4451 -0.5287  0.5469
   72SLPC  H12A 6253   1.144   5.732  11.021 -0.9202 -0.2258  0.9330
   72SLPC  H12B 6254   1.164   5.726  11.183  1.9478  0.1397  2.3743
   72SLPC   C11 6255   1.343   5.657  11.086  0.7542  1.4466 -0.2605
   72SLPC  H11A 6256   1.305   5.556  11.061 -0.8576  2.3196 -1.5043
   72SLPC  H11B 6257   1.395   5.644  11.184 -0.1695  3.4770  0.5486
   72SLPC     P 6258   1.585   5.671  10.982  0.4255  0.2732  0.1286
   72SLPC   O13 6259   1.657   5.753  10.881  0.5905 -0.2945 -0.3675
   72SLPC   O14 6260   1.626   5.695  11.124  0.3122 -0.0270  0.1582
   72SLPC   O12 6261   1.428   5.694  10.976 -0.1744 -0.3430 -0.0005
   72SLPC   O11 6262   1.602   5.517  10.954  0.2583 -0.1060  0.0994
   72SLPC    C1 6263   1.516   5.450  10.860  0.0881 -0.2854  0.1462
   72SLPC    HA 6264   1.468   5.364  10.912 -0.6385 -0.9173 -1.4760
   72SLPC    HB 6265   1.428   5.506  10.822 -0.9265 -3.4796 -2.7907
   72SLPC    C2 6266   1.586   5.395  10.734 -0.9449 -0.2882 -0.5573
   72SLPC    HS 6267   1.687   5.357  10.761 -0.5382 -0.4077 -2.1688
   72SLPC   O21 6268   1.588   5.505  10.639 -0.3317  0.7653  0.4839
   72SLPC   C21 6269   1.695   5.517  10.558 -0.0716  0.4656 -0.1718
   72SLPC   O22 6270   1.791   5.441  10.564 -0.5786 -0.2658  0.0022
   72SLPC   C22 6271   1.683   5.645  10.464  0.5919  0.0059 -0.2782
   72SLPC   H2R 6272   1.586   5.699  10.461  0.9114  0.5579 -0.8542
   72SLPC   H2S 6273   1.750   5.720  10.510  0.5004 -0.1755  0.1584
   72SLPC    C3 6274   1.513   5.273  10.678 -0.0921  0.3970  0.3850
   72SLPC    HX 6275   1.402   5.275  10.683 -0.2273  2.5352 -1.4715
   72SLPC    HY 6276   1.547   5.185  10.736  0.9249 -0.4176 -1.3671
   72SLPC   O31 6277   1.561   5.235  10.548 -0.6448 -0.1457 -0.6979
   72SLPC   C31 6278   1.474   5.169  10.470  0.2674 -0.1579 -0.0732
   72SLPC   O32 6279   1.360   5.133  10.498 -0.2532  0.5648 -0.1869
   72SLPC   C32 6280   1.539   5.163  10.330  0.3506  0.3890 -0.1055
   72SLPC   H2X 6281   1.598   5.069  10.326  0.0999  0.0309  2.7787
   72SLPC   H2Y 6282   1.597   5.258  10.320 -1.7044  1.7883  0.6524
   72SLPC   C23 6283   1.729   5.612  10.322 -0.1701  0.8594  0.5710
   72SLPC   H3R 6284   1.651   5.550  10.272 -0.7840  1.7050  0.4610
   72SLPC   H3S 6285   1.825   5.555  10.322 -0.2621  0.5794 -2.0045
   72SLPC   C24 6286   1.745   5.731  10.229  0.1238  0.2607 -0.3682
   72SLPC   H4R 6287   1.847   5.775  10.240  0.8766 -1.4787 -0.0836
   72SLPC   H4S 6288   1.672   5.808  10.263 -0.4426 -1.5068  2.7637
   72SLPC   C25 6289   1.699   5.707  10.086  0.2849 -0.1462  0.5656
   72SLPC   H5R 6290   1.704   5.796  10.021 -1.0747 -0.5092 -0.0840
   72SLPC   H5S 6291   1.594   5.671  10.083  0.1340  0.1270  1.8383
   72SLPC   C26 6292   1.783   5.593  10.018  0.5449 -0.3534  0.6725
   72SLPC   H6R 6293   1.770   5.497  10.074  1.0438 -1.3619 -0.8816
   72SLPC   H6S 6294   1.890   5.621  10.031  0.9997 -2.3365  1.6463
   72SLPC   C27 6295   1.734   5.558   9.877  0.3334  0.2069 -0.8347
   72SLPC   H7R 6296   1.740   5.645   9.808 -0.0492 -2.1700 -4.0671
   72SLPC   H7S 6297   1.629   5.522   9.879  0.6019 -0.8378  3.2777
   72SLPC   C28 6298   1.825   5.463   9.794 -0.2081 -0.8685 -1.1786
   72SLPC   H8R 6299   1.790   5.477   9.690 -1.5985 -2.5285 -0.9646
   72SLPC   H8S 6300   1.815   5.356   9.821  0.3784 -0.5152  0.5802
   72SLPC   C29 6301   1.970   5.499   9.798  0.0999 -0.2134  0.5237
   72SLPC   H9R 6302   2.012   5.520   9.898 -0.5710  2.1016  0.3779
   72SLPC  C210 6303   2.051   5.496   9.687  0.8037  0.3978  0.0815
   72SLPC  H10R 6304   2.155   5.527   9.702  1.1957 -0.4629 -0.7088
   72SLPC  C211 6305   2.016   5.475   9.541 -0.6305 -0.8188  0.2497
   72SLPC  H11R 6306   2.101   5.502   9.476 -1.4269  1.6533  0.1591
   72SLPC  H11S 6307   1.935   5.547   9.518 -1.0643 -1.1301  0.7682
   72SLPC  C212 6308   1.956   5.334   9.524 -0.9011  0.1693  1.0160
   72SLPC  H12R 6309   1.922   5.288   9.618 -2.2995  0.7818  0.8358
   72SLPC  C213 6310   1.922   5.265   9.411 -0.4803  0.0081  0.0620
   72SLPC  H13R 6311   1.885   5.162   9.421 -1.0979  0.3861  2.4951
   72SLPC  C214 6312   1.952   5.311   9.266 -0.1043 -0.3164 -0.2260
   72SLPC  H14R 6313   1.989   5.229   9.201  0.1130  0.3013 -0.8924
   72SLPC  H14S 6314   2.028   5.392   9.262  0.7618 -1.1337 -0.6313
   72SLPC  C215 6315   1.825   5.372   9.203  1.1848 -0.7154  0.6943
   72SLPC  H15R 6316   1.850   5.431   9.112 -1.5285 -1.0139 -0.3218
   72SLPC  H15S 6317   1.784   5.448   9.273  2.1418  2.4500 -1.9263
   72SLPC  C216 6318   1.717   5.268   9.164  0.5914 -0.5495 -0.1724
   72SLPC  H16R 6319   1.683   5.213   9.255 -2.2164  0.4539 -0.5358
   72SLPC  H16S 6320   1.758   5.192   9.094  1.0334 -0.6582  0.1923
   72SLPC  C217 6321   1.587   5.341   9.118  0.2803 -0.1464  0.4172
   72SLPC  H17R 6322   1.599   5.399   9.024 -1.2174  1.6241  1.2495
   72SLPC  H17S 6323   1.558   5.416   9.195 -1.6111 -2.2346  1.8597
   72SLPC  C218 6324   1.474   5.237   9.103 -0.5703  0.6608  0.7234
   72SLPC  H18R 6325   1.462   5.171   9.192 -1.3960 -0.5577 -0.2528
   72SLPC  H18S 6326   1.494   5.175   9.013  1.3591  1.9683  0.1917
   72SLPC  H18T 6327   1.371   5.277   9.089 -0.7096 -0.4214 -1.9157
   72SLPC   C33 6328   1.434   5.172  10.221 -1.1967  0.3644  0.8972
   72SLPC   H3X 6329   1.406   5.277  10.196  0.7421  0.8180  0.4756
   72SLPC   H3Y 6330   1.342   5.119  10.253 -0.5282 -0.2419  1.8182
   72SLPC   C34 6331   1.486   5.107  10.085  0.2941  0.2510 -0.1404
   72SLPC   H4X 6332   1.405   5.132  10.014 -0.8336 -1.8911  0.2847
   72SLPC   H4Y 6333   1.486   4.998  10.108  3.4318  0.1665 -0.1000
   72SLPC   C35 6334   1.625   5.148  10.039 -0.1978 -1.0777 -0.3270
   72SLPC   H5X 6335   1.694   5.134  10.125 -1.4547 -0.8260  0.7719
   72SLPC   H5Y 6336   1.617   5.259  10.034  1.6148 -0.9098 -0.0845
   72SLPC   C36 6337   1.668   5.098   9.904 -0.2780 -0.2370  0.7042
   72SLPC   H6X 6338   1.768   5.126   9.864 -0.4978 -1.3653 -0.6916
   72SLPC   H6Y 6339   1.588   5.119   9.831  0.7516  0.3207 -0.2874
   72SLPC   C37 6340   1.675   4.943   9.914  1.0457  0.2666  0.7180
   72SLPC   H7X 6341   1.626   4.888   9.998  0.2000 -1.3791 -0.7886
   72SLPC   H7Y 6342   1.781   4.909   9.911  1.1170  0.5749 -1.5547
   72SLPC   C38 6343   1.602   4.871   9.805  0.2243 -0.6377  0.8988
   72SLPC   H8X 6344   1.496   4.905   9.809  0.4412  0.0993  0.5491
   72SLPC   H8Y 6345   1.607   4.762   9.825 -1.4230 -1.2218 -1.4630
   72SLPC   C39 6346   1.662   4.883   9.668  0.1692  0.3862  0.1224
   72SLPC   H9X 6347   1.633   4.801   9.598 -1.5733  1.1378 -0.0719
   72SLPC   H9Y 6348   1.771   4.866   9.683 -0.0548  0.2038  1.7431
   72SLPC  C310 6349   1.659   5.024   9.592 -0.1638  1.1376 -0.4495
   72SLPC  H10X 6350   1.707   5.009   9.493 -2.0027  2.5637 -1.6259
   72SLPC  H10Y 6351   1.713   5.104   9.648 -0.0587  1.4225 -0.9505
   72SLPC  C311 6352   1.518   5.075   9.565 -0.5241  0.3229  0.1580
   72SLPC  H11X 6353   1.458   5.074   9.659 -0.0518 -1.9238  0.4968
   72SLPC  H11Y 6354   1.471   4.995   9.504 -0.7698 -0.3806  1.2478
   72SLPC  C312 6355   1.531   5.211   9.506 -0.6314  0.8878 -0.4218
   72SLPC  H12X 6356   1.456   5.226   9.425  0.6499  1.0563 -1.6127
   72SLPC  H12Y 6357   1.627   5.218   9.451  1.8765 -3.2562  2.8922
   72SLPC  C313 6358   1.516   5.325   9.618  0.0886 -0.3945 -0.8468
   72SLPC  H13X 6359   1.589   5.299   9.698 -1.7199 -1.5627  0.5101
   72SLPC  H13Y 6360   1.410   5.327   9.649 -0.2196  1.6559 -1.8676
   72SLPC  C314 6361   1.541   5.462   9.550 -0.2709 -0.2550 -0.3985
   72SLPC  H14X 6362   1.631   5.463   9.485  0.1626  2.3235  0.1217
   72SLPC  H14Y 6363   1.567   5.531   9.633  0.4287 -0.3090 -0.5673
   72SLPC  C315 6364   1.422   5.502   9.466 -0.9043 -0.1178  0.2352
   72SLPC  H15X 6365   1.337   5.534   9.530 -0.6235  2.0004 -0.3724
   72SLPC  H15Y 6366   1.389   5.409   9.416 -0.8174  0.7417 -1.5165
   72SLPC  C316 6367   1.442   5.609   9.357  0.6602 -0.2768 -0.0039
   72SLPC  H16X 6368   1.532   5.592   9.294  0.5822  0.7245 -0.3954
   72SLPC  H16Y 6369   1.459   5.709   9.402  0.6427  1.7175 -4.0421
   72SLPC  C317 6370   1.326   5.617   9.259 -0.5811  0.0372  0.6604
   72SLPC  H17X 6371   1.240   5.666   9.308  1.7132  2.4502  2.6406
   72SLPC  H17Y 6372   1.303   5.513   9.230  0.1402  0.0601 -0.0428
   72SLPC  C318 6373   1.371   5.695   9.138  0.0626 -0.2485 -0.1194
   72SLPC  H18X 6374   1.409   5.797   9.157  0.7044 -0.4750 -0.1544
   72SLPC  H18Y 6375   1.281   5.705   9.073 -0.3861 -1.0434  0.3630
   72SLPC  H18Z 6376   1.439   5.637   9.071  0.7505 -1.1671  1.3177
   73SLPC     N 6377   1.496   4.084  11.101 -0.0065 -0.3851  0.2178
   73SLPC   C13 6378   1.447   4.011  11.218 -0.0828  0.2953 -0.1925
   73SLPC  H13A 6379   1.486   4.040  11.315  1.5805 -1.8430 -0.1309
   73SLPC  H13B 6380   1.339   4.003  11.221  0.0665 -4.1126  0.8460
   73SLPC  H13C 6381   1.468   3.905  11.208  0.5632  0.5482 -1.6116
   73SLPC   C14 6382   1.646   4.082  11.112 -0.0823 -1.1751  0.2645
   73SLPC  H14A 6383   1.693   3.994  11.072  0.2257  0.1491 -2.5508
   73SLPC  H14B 6384   1.692   4.159  11.051 -1.6434 -1.8544 -1.9082
   73SLPC  H14C 6385   1.680   4.097  11.213 -0.2290  1.8509 -0.0460
   73SLPC   C15 6386   1.443   4.223  11.106 -0.8868 -0.0591  0.1767
   73SLPC  H15A 6387   1.498   4.265  11.023 -0.5172 -0.0681  0.4147
   73SLPC  H15B 6388   1.337   4.224  11.085 -1.2442 -0.8160  1.8055
   73SLPC  H15C 6389   1.466   4.286  11.190 -0.1202  1.6428 -1.2469
   73SLPC   C12 6390   1.449   4.015  10.977 -0.4494 -0.1837 -0.7008
   73SLPC  H12A 6391   1.510   3.927  10.960  0.3851  0.0899  0.7441
   73SLPC  H12B 6392   1.479   4.081  10.897  1.1584  1.3538  1.0593
   73SLPC   C11 6393   1.301   3.986  10.952 -0.1677 -0.2115  0.2480
   73SLPC  H11A 6394   1.263   3.909  11.021 -0.8508 -0.1713 -0.0774
   73SLPC  H11B 6395   1.290   3.943  10.851  0.9631  3.3111 -1.5573
   73SLPC     P 6396   1.209   4.208  10.828  0.0785  0.1312  0.0799
   73SLPC   O13 6397   1.120   4.321  10.866  0.6255  0.4381  0.2559
   73SLPC   O14 6398   1.346   4.245  10.789  0.0013 -0.2133 -0.1233
   73SLPC   O12 6399   1.220   4.108  10.955 -0.1563  0.3161 -0.3957
   73SLPC   O11 6400   1.133   4.132  10.706 -0.3038  0.6693 -0.2451
   73SLPC    C1 6401   1.204   4.059  10.608  0.2743  0.4634 -0.3665
   73SLPC    HA 6402   1.295   4.012  10.650  1.1755  2.8570  0.4960
   73SLPC    HB 6403   1.139   3.975  10.576  1.2400 -0.4480  0.0132
   73SLPC    C2 6404   1.233   4.146  10.488 -0.1035 -0.0149 -0.0972
   73SLPC    HS 6405   1.281   4.239  10.525 -1.6256 -0.1812  2.5458
   73SLPC   O21 6406   1.105   4.188  10.428 -0.2740  0.1222 -0.1438
   73SLPC   C21 6407   1.116   4.297  10.358  0.7743  0.6308 -0.3686
   73SLPC   O22 6408   1.221   4.356  10.337  0.4337  0.3213  0.1726
   73SLPC   C22 6409   0.967   4.322  10.318  0.3712 -0.1714  0.0160
   73SLPC   H2R 6410   0.932   4.220  10.291 -0.1833  0.4040 -1.5045
   73SLPC   H2S 6411   0.895   4.346  10.400 -0.9002 -1.9797 -0.5129
   73SLPC    C3 6412   1.337   4.079  10.395 -1.0726  0.5298 -0.0188
   73SLPC    HX 6413   1.434   4.062  10.446 -1.2947 -1.3883 -0.1483
   73SLPC    HY 6414   1.365   4.150  10.314  1.7019  1.3564  1.5322
   73SLPC   O31 6415   1.289   3.952  10.345 -0.2994  0.3891 -0.2856
   73SLPC   C31 6416   1.344   3.840  10.395 -0.9134  0.7594  0.0802
   73SLPC   O32 6417   1.433   3.831  10.480 -0.4179 -0.2789  0.0731
   73SLPC   C32 6418   1.295   3.728  10.314 -0.2009 -0.5845 -0.2534
   73SLPC   H2X 6419   1.193   3.753  10.278 -1.7233 -2.7723  2.2244
   73SLPC   H2Y 6420   1.269   3.646  10.384  5.1116 -2.5412 -0.1083
   73SLPC   C23 6421   0.953   4.416  10.193  0.8311 -0.0753 -0.4021
   73SLPC   H3R 6422   1.021   4.370  10.118  2.0535  1.4930 -0.3124
   73SLPC   H3S 6423   0.992   4.519  10.203  2.3829 -0.6223 -0.5121
   73SLPC   C24 6424   0.812   4.434  10.138  0.5513 -0.4120 -0.0953
   73SLPC   H4R 6425   0.768   4.505  10.211 -1.8809 -0.8852 -1.0089
   73SLPC   H4S 6426   0.754   4.340  10.148  0.6971 -0.4571  0.3636
   73SLPC   C25 6427   0.816   4.492   9.998 -0.1000 -0.1195 -0.2483
   73SLPC   H5R 6428   0.908   4.460   9.945 -0.1683  0.4306 -0.7001
   73SLPC   H5S 6429   0.826   4.602  10.009  1.9118 -0.2662 -0.3134
   73SLPC   C26 6430   0.688   4.440   9.926  0.6377 -0.8109 -0.0512
   73SLPC   H6R 6431   0.597   4.455   9.989  0.0899 -1.4069 -0.6848
   73SLPC   H6S 6432   0.691   4.330   9.913 -1.2538 -0.8264 -0.6898
   73SLPC   C27 6433   0.673   4.501   9.782  0.1844 -0.0545 -0.5718
   73SLPC   H7R 6434   0.710   4.605   9.791  2.8277 -0.7442 -2.2765
   73SLPC   H7S 6435   0.568   4.511   9.746  0.2237  0.9375 -0.4425
   73SLPC   C28 6436   0.755   4.407   9.684  0.2088 -0.3664  0.3377
   73SLPC   H8R 6437   0.700   4.311   9.680 -2.1820  0.9311  0.5337
   73SLPC   H8S 6438   0.856   4.381   9.724  1.0986  0.4567 -1.2834
   73SLPC   C29 6439   0.773   4.469   9.548 -0.8307 -0.6490 -0.3915
   73SLPC   H9R 6440   0.851   4.547   9.539 -1.1163 -0.5698 -2.8279
   73SLPC  C210 6441   0.712   4.448   9.437  0.5835  0.5784 -0.0193
   73SLPC  H10R 6442   0.741   4.498   9.343 -1.0127 -0.4504 -1.1260
   73SLPC  C211 6443   0.584   4.365   9.420  0.0995 -0.0182  0.3928
   73SLPC  H11R 6444   0.553   4.318   9.516 -0.9457  0.1928  0.1750
   73SLPC  H11S 6445   0.619   4.279   9.358 -0.3497 -2.0769  2.8440
   73SLPC  C212 6446   0.469   4.441   9.356 -0.1666 -0.2254  0.2948
   73SLPC  H12R 6447   0.397   4.474   9.432 -2.3229 -1.2724 -1.2094
   73SLPC  C213 6448   0.434   4.457   9.223 -0.1763 -0.0460  0.4644
   73SLPC  H13R 6449   0.346   4.515   9.192 -0.0099 -0.2102 -0.3354
   73SLPC  C214 6450   0.505   4.395   9.109 -0.0911  0.4918  0.8492
   73SLPC  H14R 6451   0.477   4.288   9.098  2.6581 -0.2626  0.3843
   73SLPC  H14S 6452   0.610   4.372   9.137 -0.1711  1.0655  1.6535
   73SLPC  C215 6453   0.494   4.494   8.982 -0.2294  0.1672 -0.3816
   73SLPC  H15R 6454   0.579   4.472   8.914  1.4128  1.5691  1.1356
   73SLPC  H15S 6455   0.518   4.596   9.019 -1.0999  1.0266 -2.0465
   73SLPC  C216 6456   0.364   4.498   8.907  0.7263  0.2416  0.4469
   73SLPC  H16R 6457   0.275   4.497   8.973  1.3365 -1.6817  1.3103
   73SLPC  H16S 6458   0.363   4.410   8.839 -2.0672  1.0214 -0.6421
   73SLPC  C217 6459   0.357   4.618   8.808  0.4573 -0.7700  0.5765
   73SLPC  H17R 6460   0.296   4.586   8.721  1.0111 -0.9764  0.2674
   73SLPC  H17S 6461   0.463   4.636   8.782  0.1889  0.9638  0.5838
   73SLPC  C218 6462   0.297   4.757   8.851 -0.0783  0.6183  0.6037
   73SLPC  H18R 6463   0.365   4.801   8.927  0.0687 -0.5480  1.1604
   73SLPC  H18S 6464   0.192   4.745   8.885 -1.1590  2.0921 -1.8939
   73SLPC  H18T 6465   0.303   4.824   8.762 -0.8449  3.6282  2.6487
   73SLPC   C33 6466   1.412   3.680  10.211  0.2623 -0.1484  0.6025
   73SLPC   H3X 6467   1.402   3.578  10.168 -1.6433  0.2260  0.0656
   73SLPC   H3Y 6468   1.511   3.678  10.260  1.1471 -0.9105 -1.1131
   73SLPC   C34 6469   1.417   3.777  10.089  0.3464  0.2313  0.3050
   73SLPC   H4X 6470   1.517   3.764  10.042  0.6574 -1.6427  1.3921
   73SLPC   H4Y 6471   1.411   3.884  10.117  1.0833  0.9438 -2.0512
   73SLPC   C35 6472   1.304   3.753   9.993 -0.9617  0.1081  0.2639
   73SLPC   H5X 6473   1.220   3.817  10.027  1.0381  1.6205  2.6534
   73SLPC   H5Y 6474   1.286   3.644  10.006 -0.8223  0.1847  1.1505
   73SLPC   C36 6475   1.344   3.763   9.846 -0.3569  0.1986 -0.5119
   73SLPC   H6X 6476   1.440   3.716   9.816 -1.2004 -0.0155 -3.0644
   73SLPC   H6Y 6477   1.370   3.868   9.822  0.9633  0.2785  1.0515
   73SLPC   C37 6478   1.236   3.721   9.745  0.1364 -0.2332 -0.1127
   73SLPC   H7X 6479   1.142   3.773   9.772  0.4206  0.0835  0.2828
   73SLPC   H7Y 6480   1.223   3.611   9.748 -2.3523  0.0178  0.0056
   73SLPC   C38 6481   1.277   3.762   9.601  0.7044  0.8453  0.3115
   73SLPC   H8X 6482   1.367   3.705   9.568 -1.4366 -1.4009 -2.1793
   73SLPC   H8Y 6483   1.301   3.870   9.594 -0.3231  1.0260 -0.6964
   73SLPC   C39 6484   1.163   3.726   9.502  0.5947 -1.1228  0.3643
   73SLPC   H9X 6485   1.079   3.795   9.523  0.6168 -0.2572 -2.0648
   73SLPC   H9Y 6486   1.132   3.619   9.501  0.3506 -1.2183 -4.1749
   73SLPC  C310 6487   1.197   3.743   9.348 -0.7929 -0.1613 -0.2628
   73SLPC  H10X 6488   1.264   3.661   9.316  0.6696  0.1037  1.8844
   73SLPC  H10Y 6489   1.253   3.839   9.336 -1.1111  0.2021  1.0259
   73SLPC  C311 6490   1.089   3.744   9.245 -0.0171 -0.3244 -0.8685
   73SLPC  H11X 6491   1.024   3.832   9.266 -0.4454 -0.7197 -0.4994
   73SLPC  H11Y 6492   1.039   3.646   9.232  0.1924 -0.6451  0.5687
   73SLPC  C312 6493   1.149   3.771   9.109 -0.4380 -0.1900 -0.4167
   73SLPC  H12X 6494   1.217   3.687   9.088 -0.8094 -0.5984 -0.0123
   73SLPC  H12Y 6495   1.213   3.862   9.106 -2.4497  1.3750  0.9146
   73SLPC  C313 6496   1.055   3.762   8.992 -0.3680  0.5816 -0.0091
   73SLPC  H13X 6497   0.974   3.836   9.010 -2.1810 -1.3676  0.2945
   73SLPC  H13Y 6498   1.012   3.659   8.994 -0.8909  0.8091  1.6939
   73SLPC  C314 6499   1.129   3.794   8.854  0.1367  0.0545 -0.1105
   73SLPC  H14X 6500   1.207   3.717   8.834  1.8960  1.4621  1.0283
   73SLPC  H14Y 6501   1.180   3.892   8.868 -0.2542  0.4273 -1.2362
   73SLPC  C315 6502   1.028   3.793   8.742 -0.0848 -0.2161  0.4093
   73SLPC  H15X 6503   1.082   3.851   8.664 -0.1760 -2.0250 -1.0593
   73SLPC  H15Y 6504   0.942   3.856   8.773  0.0724  0.8861 -1.3104
   73SLPC  C316 6505   0.972   3.664   8.694 -0.6319  0.6706 -0.2442
   73SLPC  H16X 6506   0.933   3.588   8.766  3.2218 -0.4111  0.9794
   73SLPC  H16Y 6507   1.063   3.610   8.661 -0.5819  0.4971  0.1610
   73SLPC  C317 6508   0.870   3.673   8.582  0.8334  0.3991  1.0784
   73SLPC  H17X 6509   0.865   3.582   8.518 -2.7030 -0.1461  1.9033
   73SLPC  H17Y 6510   0.898   3.751   8.508  0.1762 -1.4399 -1.2415
   73SLPC  C318 6511   0.730   3.697   8.630 -0.4181  0.1071  0.3656
   73SLPC  H18X 6512   0.710   3.620   8.708  1.7142 -0.2210  0.6415
   73SLPC  H18Y 6513   0.661   3.707   8.543 -0.0942  2.0120  0.2879
   73SLPC  H18Z 6514   0.736   3.796   8.680  2.2867 -0.0660  0.5169
   74SLPC     N 6515   2.006   5.568  10.898  0.8189 -0.0305 -0.1176
   74SLPC   C13 6516   1.915   5.485  10.981  0.4051  0.8752 -0.9723
   74SLPC  H13A 6517   1.957   5.387  11.001 -0.5791  0.8495  1.3242
   74SLPC  H13B 6518   1.908   5.532  11.078  1.3735 -0.9911  0.0590
   74SLPC  H13C 6519   1.822   5.449  10.940 -0.4685 -2.9682  3.4644
   74SLPC   C14 6520   2.041   5.492  10.772 -0.1519 -0.2125  0.4435
   74SLPC  H14A 6521   2.102   5.552  10.706 -2.5799  0.3552 -1.4342
   74SLPC  H14B 6522   2.106   5.406  10.783 -0.6339 -1.0313 -2.4359
   74SLPC  H14C 6523   1.955   5.458  10.717  1.5253 -0.5415 -2.1420
   74SLPC   C15 6524   2.134   5.593  10.968 -0.0657 -0.4227  0.3699
   74SLPC  H15A 6525   2.188   5.499  10.975 -1.4422 -1.1839  1.4945
   74SLPC  H15B 6526   2.196   5.659  10.910  0.8068 -0.7579  0.8862
   74SLPC  H15C 6527   2.124   5.638  11.066  2.9244 -1.2379  1.1738
   74SLPC   C12 6528   1.928   5.685  10.856 -0.3751 -0.6172 -0.5954
   74SLPC  H12A 6529   1.932   5.759  10.934 -2.6172 -0.0408 -0.9764
   74SLPC  H12B 6530   1.826   5.649  10.854 -0.2318 -1.1073  0.3752
   74SLPC   C11 6531   1.971   5.751  10.721  0.3394 -0.0248  0.0737
   74SLPC  H11A 6532   1.891   5.825  10.700  1.0214  0.6111 -0.3203
   74SLPC  H11B 6533   1.956   5.684  10.633 -2.5138 -1.0311  1.2159
   74SLPC     P 6534   2.102   5.957  10.784  0.0746  0.1059 -0.1545
   74SLPC   O13 6535   1.998   5.977  10.887  0.1283 -0.3075  0.3576
   74SLPC   O14 6536   2.240   5.970  10.831  0.0731 -0.1610 -0.1003
   74SLPC   O12 6537   2.091   5.818  10.717 -0.0095 -0.0167 -1.0607
   74SLPC   O11 6538   2.076   6.054  10.670  0.2773  0.2262  0.1734
   74SLPC    C1 6539   2.122   6.027  10.537 -1.5400 -0.1799  0.6184
   74SLPC    HA 6540   2.167   6.121  10.498 -1.0451 -0.2739  0.9499
   74SLPC    HB 6541   2.204   5.952  10.543 -0.8786  0.5774  1.2827
   74SLPC    C2 6542   2.012   5.984  10.440  0.2346  0.3974  0.6887
   74SLPC    HS 6543   1.984   5.878  10.459 -0.7382  0.6001  0.4407
   74SLPC   O21 6544   2.057   5.991  10.299  0.3580 -0.2634  0.4121
   74SLPC   C21 6545   2.143   5.900  10.264 -0.9072  0.6498  0.2967
   74SLPC   O22 6546   2.198   5.823  10.348 -0.3946 -0.2766  0.5674
   74SLPC   C22 6547   2.177   5.895  10.113  0.1876  0.3560 -0.0645
   74SLPC   H2R 6548   2.244   5.982  10.093 -1.2458  1.6052  0.3933
   74SLPC   H2S 6549   2.231   5.800  10.090 -1.3202 -0.3553 -0.7970
   74SLPC    C3 6550   1.885   6.071  10.461 -0.4908  0.2559  0.4667
   74SLPC    HX 6551   1.930   6.173  10.459  3.8202 -1.3845  2.0362
   74SLPC    HY 6552   1.843   6.061  10.563  2.1626 -0.6993  1.5455
   74SLPC   O31 6553   1.777   6.064  10.365 -0.0871  0.0501  0.0628
   74SLPC   C31 6554   1.775   6.156  10.269 -0.9187 -0.4552 -1.1855
   74SLPC   O32 6555   1.852   6.256  10.272 -0.5495  0.6541  0.0282
   74SLPC   C32 6556   1.658   6.127  10.176 -0.0992 -0.2445 -0.2447
   74SLPC   H2X 6557   1.558   6.138  10.225 -0.2749 -3.7516  0.4092
   74SLPC   H2Y 6558   1.649   6.019  10.153  1.6083 -1.0382  2.4133
   74SLPC   C23 6559   2.048   5.910  10.028  0.2140  0.3125  0.4750
   74SLPC   H3R 6560   2.020   6.017  10.024  1.7690  0.7012 -2.2146
   74SLPC   H3S 6561   1.970   5.837  10.060 -1.7036  1.4334 -1.3619
   74SLPC   C24 6562   2.078   5.879   9.875  0.8944 -0.8470  0.1209
   74SLPC   H4R 6563   2.096   5.770   9.873  1.3085 -0.9592  3.6416
   74SLPC   H4S 6564   2.160   5.941   9.832 -0.2016  0.1653 -0.5525
   74SLPC   C25 6565   1.962   5.913   9.777 -0.3544  0.2579  0.2842
   74SLPC   H5R 6566   1.945   6.023   9.772  1.7902  0.6517  0.6862
   74SLPC   H5S 6567   1.870   5.862   9.812  0.1654 -1.5352 -0.8554
   74SLPC   C26 6568   1.981   5.857   9.634  0.2397  0.1665  0.6218
   74SLPC   H6R 6569   2.014   5.751   9.629 -0.1944  0.0106  1.0234
   74SLPC   H6S 6570   2.066   5.915   9.590  0.5077  0.2398  1.2262
   74SLPC   C27 6571   1.855   5.873   9.551  0.1451 -0.3243 -0.1081
   74SLPC   H7R 6572   1.799   5.962   9.587  0.2466  0.4087 -1.6691
   74SLPC   H7S 6573   1.795   5.780   9.564  1.1728 -1.1071 -0.8134
   74SLPC   C28 6574   1.892   5.916   9.406 -0.2565 -0.0969  0.0399
   74SLPC   H8R 6575   1.955   6.008   9.417  1.5127 -1.0241 -1.7829
   74SLPC   H8S 6576   1.801   5.948   9.350 -0.6683  0.5767  1.0583
   74SLPC   C29 6577   1.971   5.806   9.335  0.8894  0.1411 -0.9801
   74SLPC   H9R 6578   2.064   5.768   9.381  0.7768 -0.4714 -1.2627
   74SLPC  C210 6579   1.928   5.738   9.228 -0.2262 -0.4095 -0.4884
   74SLPC  H10R 6580   1.996   5.661   9.189 -2.2823 -2.9725  0.7384
   74SLPC  C211 6581   1.793   5.748   9.160 -0.0072  0.1606  0.0709
   74SLPC  H11R 6582   1.720   5.777   9.239  1.5647  4.9593  0.0571
   74SLPC  H11S 6583   1.759   5.645   9.137 -1.0551  0.3958  0.5275
   74SLPC  C212 6584   1.783   5.841   9.048 -0.4880  0.0434 -0.1114
   74SLPC  H12R 6585   1.818   5.943   9.070 -0.4033  0.1378 -0.6901
   74SLPC  C213 6586   1.733   5.817   8.923 -0.2461 -0.1453 -0.0278
   74SLPC  H13R 6587   1.723   5.901   8.853 -1.1416  1.0809  1.5223
   74SLPC  C214 6588   1.668   5.693   8.863 -0.6174 -0.3974 -1.0254
   74SLPC  H14R 6589   1.658   5.612   8.939  1.0297  1.3542  1.2105
   74SLPC  H14S 6590   1.737   5.652   8.786  0.6739  2.5265 -1.5319
   74SLPC  C215 6591   1.531   5.727   8.802 -0.4200  0.4889 -0.7818
   74SLPC  H15R 6592   1.545   5.819   8.741 -1.0120  1.1066 -0.0017
   74SLPC  H15S 6593   1.461   5.752   8.885 -0.3190 -0.8401 -0.2730
   74SLPC  C216 6594   1.470   5.632   8.703  0.1295  0.2908 -0.9145
   74SLPC  H16R 6595   1.533   5.612   8.614 -0.2672 -0.2202 -1.0830
   74SLPC  H16S 6596   1.377   5.679   8.666 -0.2267 -0.7578 -1.3931
   74SLPC  C217 6597   1.424   5.497   8.762  0.0698  0.1806  0.5071
   74SLPC  H17R 6598   1.344   5.513   8.838 -0.1584  1.4710  0.0092
   74SLPC  H17S 6599   1.508   5.454   8.822  0.6512  1.2044  0.4362
   74SLPC  C218 6600   1.386   5.390   8.658  0.5498 -0.2212  0.1592
   74SLPC  H18R 6601   1.305   5.415   8.587  0.2594 -0.1710  0.5023
   74SLPC  H18S 6602   1.361   5.289   8.698  1.3423 -1.0195 -1.2954
   74SLPC  H18T 6603   1.472   5.367   8.592 -0.1010  0.9209 -1.1325
   74SLPC   C33 6604   1.656   6.223  10.053  0.2503 -0.1244  0.1490
   74SLPC   H3X 6605   1.666   6.329  10.082  1.5688 -0.3181  0.4663
   74SLPC   H3Y 6606   1.561   6.212   9.996  0.1902 -1.0006  0.3968
   74SLPC   C34 6607   1.763   6.187   9.959 -0.1072  0.5518  0.3682
   74SLPC   H4X 6608   1.761   6.079   9.933  0.7727  0.2726  1.3890
   74SLPC   H4Y 6609   1.863   6.213  10.000  1.3473 -1.9654 -1.2893
   74SLPC   C35 6610   1.752   6.265   9.823 -0.2221 -0.1570 -0.4336
   74SLPC   H5X 6611   1.828   6.229   9.751  0.6055 -0.6957  0.6879
   74SLPC   H5Y 6612   1.776   6.372   9.843  3.7426 -0.7877 -1.0016
   74SLPC   C36 6613   1.622   6.258   9.746  0.8329  0.6113  0.0957
   74SLPC   H6X 6614   1.538   6.303   9.803 -0.1098 -1.8125  0.7389
   74SLPC   H6Y 6615   1.606   6.148   9.744 -1.7288  0.9169  0.7703
   74SLPC   C37 6616   1.611   6.308   9.595 -0.3014  0.8141 -0.6535
   74SLPC   H7X 6617   1.628   6.417   9.602 -0.8431  0.8196  1.0017
   74SLPC   H7Y 6618   1.507   6.294   9.558  0.2362 -0.9920 -1.6496
   74SLPC   C38 6619   1.714   6.243   9.506  0.1116  0.1977 -0.2652
   74SLPC   H8X 6620   1.698   6.134   9.493  1.3458  0.1179 -1.3935
   74SLPC   H8Y 6621   1.815   6.248   9.553 -0.6958  0.0336  1.5576
   74SLPC   C39 6622   1.714   6.296   9.369  0.6523  0.3357 -0.3103
   74SLPC   H9X 6623   1.802   6.260   9.312  1.2686  1.8548 -0.3778
   74SLPC   H9Y 6624   1.729   6.406   9.381 -1.8623  0.6283  0.8517
   74SLPC  C310 6625   1.573   6.277   9.301  0.3267 -0.9124  0.0469
   74SLPC  H10X 6626   1.492   6.316   9.367  0.3743  0.2593 -0.5556
   74SLPC  H10Y 6627   1.552   6.169   9.292 -2.0405 -0.5386  0.2870
   74SLPC  C311 6628   1.566   6.339   9.165 -0.5525  0.1057  0.0450
   74SLPC  H11X 6629   1.595   6.446   9.176  1.1574 -0.3437  0.1876
   74SLPC  H11Y 6630   1.464   6.346   9.123  0.3006  0.7365 -2.0923
   74SLPC  C312 6631   1.651   6.271   9.056  0.0351 -0.3483 -0.1775
   74SLPC  H12X 6632   1.633   6.161   9.050  1.2513 -0.6521  1.0939
   74SLPC  H12Y 6633   1.757   6.259   9.089  0.7743  0.4253 -2.1099
   74SLPC  C313 6634   1.641   6.328   8.916 -0.0798  0.4594  0.2074
   74SLPC  H13X 6635   1.701   6.261   8.851  0.0105 -0.8768  1.6129
   74SLPC  H13Y 6636   1.679   6.433   8.919 -2.7682  1.5059  0.3441
   74SLPC  C314 6637   1.495   6.352   8.872  0.0716 -0.7546 -0.6398
   74SLPC  H14X 6638   1.431   6.272   8.915 -2.0653  2.0856  1.8718
   74SLPC  H14Y 6639   1.481   6.352   8.762 -1.1671 -1.3650 -0.4928
   74SLPC  C315 6640   1.446   6.490   8.918  0.5598  0.1282 -0.7785
   74SLPC  H15X 6641   1.532   6.544   8.965  0.1207 -0.0610  0.2733
   74SLPC  H15Y 6642   1.367   6.489   8.996  2.3110 -1.5525  1.0952
   74SLPC  C316 6643   1.390   6.578   8.806  0.1456 -0.5172  0.0249
   74SLPC  H16X 6644   1.319   6.512   8.753  1.8470 -1.4970 -1.1624
   74SLPC  H16Y 6645   1.477   6.606   8.742  1.3749 -1.3911  1.2533
   74SLPC  C317 6646   1.312   6.703   8.848  0.0487 -0.2752 -0.4762
   74SLPC  H17X 6647   1.242   6.680   8.931 -0.8926  3.7525  0.0593
   74SLPC  H17Y 6648   1.240   6.716   8.765 -2.2287 -0.1620  1.4156
   74SLPC  C318 6649   1.396   6.831   8.870  0.0759  0.6876 -0.2695
   74SLPC  H18X 6650   1.466   6.817   8.955  0.8283 -1.3094 -1.1520
   74SLPC  H18Y 6651   1.318   6.907   8.894 -2.0751 -1.9857  1.9786
   74SLPC  H18Z 6652   1.462   6.861   8.786  1.3730  0.9085  0.7921
   75SLPC     N 6653   3.168   3.103   5.587 -0.1745 -0.5895 -0.3052
   75SLPC   C13 6654   3.306   3.087   5.535  0.4946 -0.3662 -0.3380
   75SLPC  H13A 6655   3.320   3.164   5.461 -2.6888 -0.3389 -1.0342
   75SLPC  H13B 6656   3.373   3.088   5.620 -1.8702 -2.2486  1.6972
   75SLPC  H13C 6657   3.315   2.998   5.475 -1.2958  0.0489 -1.2899
   75SLPC   C14 6658   3.074   3.122   5.468  0.6021  0.5889 -0.1113
   75SLPC  H14A 6659   3.063   3.025   5.421 -1.3072  0.9469 -0.4670
   75SLPC  H14B 6660   2.977   3.163   5.492  0.2978 -0.8515  1.2757
   75SLPC  H14C 6661   3.121   3.189   5.397  1.9562  1.0614  1.1882
   75SLPC   C15 6662   3.160   3.238   5.656 -0.4151 -0.1518  0.0132
   75SLPC  H15A 6663   3.223   3.248   5.743 -1.2376  0.4095  0.5493
   75SLPC  H15B 6664   3.194   3.314   5.587  0.3223 -1.9512 -1.7085
   75SLPC  H15C 6665   3.064   3.268   5.693  0.0870  0.8479  0.5291
   75SLPC   C12 6666   3.127   2.990   5.676  0.0502  0.1048 -0.0832
   75SLPC  H12A 6667   3.131   2.905   5.610 -0.2667 -0.1406  0.2095
   75SLPC  H12B 6668   3.024   3.008   5.703 -0.4413 -0.9569 -1.1594
   75SLPC   C11 6669   3.207   2.966   5.812 -0.3828 -0.7154 -0.1627
   75SLPC  H11A 6670   3.314   2.970   5.783 -0.6683  2.1349 -1.1898
   75SLPC  H11B 6671   3.183   2.865   5.851 -0.7989 -1.0489 -1.2516
   75SLPC     P 6672   3.058   3.062   6.003 -0.1753 -0.3846  0.0399
   75SLPC   O13 6673   2.933   3.093   5.932 -0.3367 -0.2012  0.1276
   75SLPC   O14 6674   3.068   2.931   6.078 -0.3715 -0.5970  0.5870
   75SLPC   O12 6675   3.186   3.078   5.908 -0.4350  0.4460  0.6869
   75SLPC   O11 6676   3.100   3.174   6.104 -0.2717 -0.1911  0.5079
   75SLPC    C1 6677   3.024   3.296   6.085 -0.5335  0.0961  0.1158
   75SLPC    HA 6678   3.025   3.331   5.979  1.4522  0.0583  0.0870
   75SLPC    HB 6679   2.919   3.285   6.120 -1.2725  1.9421 -1.3823
   75SLPC    C2 6680   3.085   3.411   6.170 -0.1055 -0.5300 -0.1677
   75SLPC    HS 6681   3.190   3.434   6.143  0.2098 -0.0139  1.3674
   75SLPC   O21 6682   3.092   3.360   6.304 -0.2114  0.1566 -0.1603
   75SLPC   C21 6683   3.150   3.441   6.393  0.2443  0.6833  0.6590
   75SLPC   O22 6684   3.195   3.549   6.362  0.3376 -0.9597 -0.5787
   75SLPC   C22 6685   3.146   3.377   6.538  0.2862  0.4689 -0.4491
   75SLPC   H2R 6686   3.067   3.434   6.592 -0.7833 -1.1895 -0.1727
   75SLPC   H2S 6687   3.107   3.274   6.517 -1.6371  1.1151 -0.2822
   75SLPC    C3 6688   3.008   3.545   6.142 -0.2282  0.7799  0.0844
   75SLPC    HX 6689   3.016   3.562   6.033  2.5785  0.0684  0.0977
   75SLPC    HY 6690   3.061   3.634   6.183  1.5341 -0.3359  0.3151
   75SLPC   O31 6691   2.864   3.542   6.172 -0.2544  0.1192  0.5824
   75SLPC   C31 6692   2.827   3.601   6.280  0.3925 -0.1473 -0.2578
   75SLPC   O32 6693   2.891   3.679   6.343 -0.5556  0.2220 -0.1703
   75SLPC   C32 6694   2.686   3.550   6.317 -0.4405 -0.0241 -0.6047
   75SLPC   H2X 6695   2.698   3.457   6.377 -0.9520  2.1793  3.2275
   75SLPC   H2Y 6696   2.625   3.526   6.228 -2.7254  0.5036  0.7368
   75SLPC   C23 6697   3.280   3.362   6.600 -0.3636 -0.2289  0.0072
   75SLPC   H3R 6698   3.322   3.464   6.614 -1.9326  0.6495 -1.3040
   75SLPC   H3S 6699   3.343   3.300   6.531 -0.6172 -0.5315  0.0463
   75SLPC   C24 6700   3.274   3.292   6.735 -0.6572 -0.6161  0.2543
   75SLPC   H4R 6701   3.247   3.186   6.715 -0.6349 -0.1688 -2.6530
   75SLPC   H4S 6702   3.195   3.336   6.800 -0.8476  0.8923 -0.9260
   75SLPC   C25 6703   3.405   3.291   6.811 -0.4578  0.2755 -0.4329
   75SLPC   H5R 6704   3.422   3.391   6.857 -0.2214 -0.0118  0.1222
   75SLPC   H5S 6705   3.503   3.275   6.762  0.7131 -0.1876  1.8947
   75SLPC   C26 6706   3.391   3.189   6.929  0.5306 -0.5163  0.2957
   75SLPC   H6R 6707   3.376   3.086   6.891 -0.4990 -0.7595  1.3022
   75SLPC   H6S 6708   3.298   3.218   6.982  0.7548  0.9743 -0.0778
   75SLPC   C27 6709   3.510   3.196   7.022  0.4845 -0.3728 -0.1317
   75SLPC   H7R 6710   3.538   3.303   7.035 -1.4601  0.1840 -0.1099
   75SLPC   H7S 6711   3.595   3.154   6.963 -0.0078  0.9302 -1.8766
   75SLPC   C28 6712   3.510   3.119   7.159 -0.0827  0.5467  0.4584
   75SLPC   H8R 6713   3.614   3.111   7.197 -0.0627  0.7262  0.4454
   75SLPC   H8S 6714   3.476   3.017   7.128  1.0005  0.0505  0.8855
   75SLPC   C29 6715   3.423   3.186   7.265 -0.4982 -0.0459  0.0173
   75SLPC   H9R 6716   3.317   3.175   7.236  0.1885 -1.2350 -2.3257
   75SLPC  C210 6717   3.461   3.233   7.383  0.0839  0.1412 -0.2516
   75SLPC  H10R 6718   3.394   3.276   7.458  2.0506 -0.6982  2.0946
   75SLPC  C211 6719   3.597   3.245   7.438 -0.2161  0.0182  0.1440
   75SLPC  H11R 6720   3.619   3.347   7.476  0.4457 -0.0885  0.0684
   75SLPC  H11S 6721   3.671   3.241   7.355  0.0197 -2.0339  0.4030
   75SLPC  C212 6722   3.640   3.151   7.540  0.4940 -0.1373  0.5482
   75SLPC  H12R 6723   3.585   3.057   7.552 -0.8422  0.5618  0.1172
   75SLPC  C213 6724   3.745   3.164   7.619  0.3573  0.0912  0.1685
   75SLPC  H13R 6725   3.764   3.089   7.697 -2.7980 -0.9332  0.0703
   75SLPC  C214 6726   3.841   3.284   7.610  0.3104  0.4233  0.2435
   75SLPC  H14R 6727   3.783   3.379   7.604 -0.4683  0.0835  1.8555
   75SLPC  H14S 6728   3.904   3.283   7.518 -0.2766 -0.1853 -0.1667
   75SLPC  C215 6729   3.937   3.295   7.732  0.6178  0.4840  0.6761
   75SLPC  H15R 6730   3.994   3.388   7.711 -0.6952  0.8765 -1.3729
   75SLPC  H15S 6731   4.007   3.209   7.741 -1.0118 -0.8525  1.2125
   75SLPC  C216 6732   3.863   3.313   7.863  0.2867 -0.5119 -0.3675
   75SLPC  H16R 6733   3.807   3.218   7.877 -0.3671 -0.2559 -1.1769
   75SLPC  H16S 6734   3.791   3.396   7.862  0.5888 -0.2269  0.6179
   75SLPC  C217 6735   3.946   3.326   7.990  0.2408  0.8357 -0.7976
   75SLPC  H17R 6736   3.869   3.311   8.069 -0.4817 -1.7198 -1.8844
   75SLPC  H17S 6737   3.991   3.425   8.011 -0.2517  0.9121 -0.0698
   75SLPC  C218 6738   4.054   3.219   8.015  0.6169 -0.1400 -0.1164
   75SLPC  H18R 6739   4.055   3.189   8.122  3.0280 -0.4889 -0.1782
   75SLPC  H18S 6740   4.154   3.255   7.983  1.4949 -2.1996  0.1397
   75SLPC  H18T 6741   4.040   3.128   7.952  1.4821  0.6555 -1.5353
   75SLPC   C33 6742   2.611   3.661   6.400 -0.2299  0.3174 -0.4720
   75SLPC   H3X 6743   2.656   3.671   6.501 -0.0227 -3.0591 -0.1166
   75SLPC   H3Y 6744   2.602   3.759   6.347 -2.6144  0.8171  0.7624
   75SLPC   C34 6745   2.463   3.627   6.430 -0.5546  0.5784  0.2456
   75SLPC   H4X 6746   2.450   3.523   6.466 -0.5735  0.2770 -0.6145
   75SLPC   H4Y 6747   2.400   3.648   6.340 -1.0273  5.5113  1.4549
   75SLPC   C35 6748   2.403   3.720   6.536  0.2015  0.2298 -0.0425
   75SLPC   H5X 6749   2.292   3.711   6.537  0.2909 -1.0535 -0.3380
   75SLPC   H5Y 6750   2.436   3.823   6.508  0.1834 -0.1149 -1.3860
   75SLPC   C36 6751   2.447   3.689   6.681  0.2653 -0.4510 -0.1400
   75SLPC   H6X 6752   2.554   3.717   6.696 -0.2765  1.3481  0.5851
   75SLPC   H6Y 6753   2.433   3.579   6.693 -0.1356 -0.4120 -0.2340
   75SLPC   C37 6754   2.362   3.764   6.784 -0.1274  0.0624  0.9001
   75SLPC   H7X 6755   2.253   3.766   6.765  0.0262 -0.4655 -0.1055
   75SLPC   H7Y 6756   2.397   3.869   6.772  0.1516  0.1095  1.9799
   75SLPC   C38 6757   2.391   3.732   6.933 -0.2583  0.0821 -0.1816
   75SLPC   H8X 6758   2.302   3.770   6.987  0.5295  1.3269  0.2907
   75SLPC   H8Y 6759   2.481   3.793   6.957 -2.1594  3.3627 -0.7672
   75SLPC   C39 6760   2.385   3.579   6.960 -0.9473  0.1125  0.7004
   75SLPC   H9X 6761   2.492   3.551   6.948 -0.4229  2.7376 -1.7623
   75SLPC   H9Y 6762   2.328   3.522   6.883 -0.8782  0.8255  0.1047
   75SLPC  C310 6763   2.332   3.545   7.096  0.2914 -0.6215 -0.0509
   75SLPC  H10X 6764   2.334   3.435   7.110  2.1664 -0.7633 -1.0818
   75SLPC  H10Y 6765   2.224   3.568   7.092  0.2613 -0.6207  0.6276
   75SLPC  C311 6766   2.399   3.616   7.213 -0.1899  0.1531 -0.2046
   75SLPC  H11X 6767   2.399   3.725   7.193  1.2904  0.0936 -0.6916
   75SLPC  H11Y 6768   2.503   3.577   7.219 -1.3402 -3.2621 -0.3081
   75SLPC  C312 6769   2.324   3.582   7.343 -0.2529 -0.6144  0.0338
   75SLPC  H12X 6770   2.310   3.474   7.364 -0.6940 -0.4467  0.6290
   75SLPC  H12Y 6771   2.223   3.630   7.347 -0.2500 -0.6893  3.2421
   75SLPC  C313 6772   2.417   3.638   7.454  0.1711  0.8095 -0.6709
   75SLPC  H13X 6773   2.430   3.747   7.440  4.0155  0.8205  1.5480
   75SLPC  H13Y 6774   2.515   3.586   7.447 -0.8564 -1.1707 -1.2550
   75SLPC  C314 6775   2.355   3.622   7.589  0.2513  0.1484 -0.8635
   75SLPC  H14X 6776   2.349   3.516   7.620  0.2491  1.1106  2.9468
   75SLPC  H14Y 6777   2.250   3.658   7.588 -0.1027 -0.8447 -0.6697
   75SLPC  C315 6778   2.440   3.694   7.698  0.0581 -0.0114 -0.5206
   75SLPC  H15X 6779   2.433   3.803   7.680  0.2096 -0.2016 -1.8867
   75SLPC  H15Y 6780   2.541   3.648   7.694 -0.2018 -0.5471 -1.3831
   75SLPC  C316 6781   2.396   3.676   7.845 -0.4461 -0.3052  0.8606
   75SLPC  H16X 6782   2.484   3.692   7.910  0.3973 -2.0957  0.2307
   75SLPC  H16Y 6783   2.374   3.569   7.862  0.1371 -0.4992  0.4328
   75SLPC  C317 6784   2.266   3.752   7.874 -0.1323 -0.0537  0.4460
   75SLPC  H17X 6785   2.180   3.703   7.824 -1.9100  1.4474  1.9031
   75SLPC  H17Y 6786   2.297   3.851   7.834  6.0917 -1.3221  1.0876
   75SLPC  C318 6787   2.221   3.775   8.021  0.2763 -0.0548  0.4484
   75SLPC  H18X 6788   2.308   3.781   8.090  0.2234  0.8088  0.4446
   75SLPC  H18Y 6789   2.156   3.691   8.055 -0.4802  0.6643  0.7917
   75SLPC  H18Z 6790   2.157   3.864   8.038  1.2794  0.7482  0.1657
   76SLPC     N 6791   3.941   3.172   6.015 -0.2170 -0.0313  0.4108
   76SLPC   C13 6792   3.875   3.133   5.891  1.0580  0.7223 -0.0271
   76SLPC  H13A 6793   3.775   3.099   5.912  2.7021 -4.5521  0.7277
   76SLPC  H13B 6794   3.862   3.215   5.823  1.7997  0.5516 -0.3926
   76SLPC  H13C 6795   3.921   3.042   5.855  1.6112 -0.1331  2.5807
   76SLPC   C14 6796   4.080   3.145   5.989 -0.0967 -0.0796  0.2128
   76SLPC  H14A 6797   4.101   3.044   5.957  0.4310 -0.5340  1.8705
   76SLPC  H14B 6798   4.124   3.211   5.916  1.3443 -1.8363 -0.5820
   76SLPC  H14C 6799   4.126   3.156   6.086 -1.3301  0.6097  0.7444
   76SLPC   C15 6800   3.884   3.092   6.129 -0.5939 -0.6164 -0.1165
   76SLPC  H15A 6801   3.777   3.108   6.134 -0.6120 -0.0729 -1.7261
   76SLPC  H15B 6802   3.912   2.988   6.127 -2.2265 -1.0722 -0.5787
   76SLPC  H15C 6803   3.924   3.128   6.223 -0.9295 -3.3535  1.1715
   76SLPC   C12 6804   3.916   3.327   6.029 -0.2384 -0.1596  0.0559
   76SLPC  H12A 6805   3.970   3.370   5.946  1.2060 -1.4575  0.2849
   76SLPC  H12B 6806   3.957   3.357   6.124 -0.3860  2.0518 -0.5364
   76SLPC   C11 6807   3.771   3.375   6.044 -0.6505 -0.0738 -0.3404
   76SLPC  H11A 6808   3.717   3.351   5.950 -1.6598  2.3419 -0.4651
   76SLPC  H11B 6809   3.784   3.485   6.054 -0.7109  0.1021 -1.9971
   76SLPC     P 6810   3.573   3.378   6.198  0.2226 -0.6136  0.2492
   76SLPC   O13 6811   3.560   3.524   6.180 -0.7684  0.7111  0.2217
   76SLPC   O14 6812   3.472   3.293   6.123 -0.2549 -0.0273  0.0449
   76SLPC   O12 6813   3.717   3.325   6.165  0.0164 -0.5947 -0.0155
   76SLPC   O11 6814   3.555   3.345   6.354 -0.4675 -0.1204 -0.0345
   76SLPC    C1 6815   3.641   3.413   6.446  0.3822  0.1108 -0.3495
   76SLPC    HA 6816   3.669   3.516   6.417  1.1133 -0.1957 -0.7639
   76SLPC    HB 6817   3.575   3.411   6.536 -0.2413 -1.8731 -0.8112
   76SLPC    C2 6818   3.769   3.334   6.478  0.2382  0.0516 -0.2077
   76SLPC    HS 6819   3.805   3.297   6.380  2.5131  1.3905  0.0501
   76SLPC   O21 6820   3.739   3.235   6.573  0.3180 -0.9698  0.1991
   76SLPC   C21 6821   3.795   3.112   6.557 -0.3861 -0.0091  0.6675
   76SLPC   O22 6822   3.864   3.080   6.458 -0.0581  0.0612 -0.5133
   76SLPC   C22 6823   3.739   3.021   6.661  0.0744  0.0847  0.1452
   76SLPC   H2R 6824   3.629   3.027   6.671 -0.1794  0.9043 -2.4710
   76SLPC   H2S 6825   3.758   2.919   6.622  0.1653  0.7594 -1.6463
   76SLPC    C3 6826   3.889   3.433   6.520  0.5370 -0.3208  0.4430
   76SLPC    HX 6827   3.890   3.514   6.444 -1.6745 -1.4917 -0.9367
   76SLPC    HY 6828   3.982   3.373   6.510 -0.8765 -2.2637 -2.3397
   76SLPC   O31 6829   3.863   3.489   6.650  0.2088 -0.0474 -0.0084
   76SLPC   C31 6830   3.914   3.407   6.747 -0.3552 -0.1741  0.4199
   76SLPC   O32 6831   3.996   3.323   6.733  0.8157 -0.2625 -0.5388
   76SLPC   C32 6832   3.836   3.443   6.880 -0.1736 -0.0845  0.4932
   76SLPC   H2X 6833   3.730   3.413   6.864  0.4359 -1.2023 -2.1268
   76SLPC   H2Y 6834   3.843   3.552   6.900  0.0451  0.2552 -1.2488
   76SLPC   C23 6835   3.813   3.034   6.800 -0.5808 -0.0382  0.3361
   76SLPC   H3R 6836   3.743   2.987   6.873  2.2272 -2.6354  1.6000
   76SLPC   H3S 6837   3.827   3.141   6.823 -0.3767 -0.3418  1.7089
   76SLPC   C24 6838   3.947   2.968   6.809 -0.3821 -0.3775 -0.0689
   76SLPC   H4R 6839   4.001   2.997   6.717  0.2955  1.5379  0.8622
   76SLPC   H4S 6840   3.935   2.858   6.807  1.9015 -0.8033  2.4047
   76SLPC   C25 6841   4.033   3.016   6.926 -0.8754  0.7200  0.3747
   76SLPC   H5R 6842   4.035   3.126   6.945  0.7438  0.3609  2.6136
   76SLPC   H5S 6843   4.138   2.994   6.900 -0.3899  2.8938  0.2821
   76SLPC   C26 6844   3.984   2.944   7.054  0.7413 -0.4087  0.2620
   76SLPC   H6R 6845   4.020   2.839   7.045 -1.4669 -1.0553 -2.7523
   76SLPC   H6S 6846   3.874   2.957   7.050  0.9439  1.2456 -1.3483
   76SLPC   C27 6847   4.031   3.019   7.179 -0.5705 -0.2340  0.0708
   76SLPC   H7R 6848   4.048   3.125   7.148 -0.3478 -0.9846 -2.7053
   76SLPC   H7S 6849   4.133   2.982   7.203 -0.4863 -1.7908 -2.3428
   76SLPC   C28 6850   3.936   3.002   7.299 -0.5429  0.4211 -0.4875
   76SLPC   H8R 6851   3.959   3.083   7.371 -3.9051 -1.5463  3.1202
   76SLPC   H8S 6852   3.830   3.016   7.270 -0.4379 -1.1998 -1.8021
   76SLPC   C29 6853   3.961   2.871   7.374  0.1604  0.3780 -0.2679
   76SLPC   H9R 6854   3.933   2.783   7.313  0.7804 -0.2212  0.2997
   76SLPC  C210 6855   4.027   2.845   7.488 -0.5245  0.5244 -0.1430
   76SLPC  H10R 6856   4.027   2.740   7.521  2.5229 -0.4634 -2.7411
   76SLPC  C211 6857   4.083   2.942   7.584 -0.0473 -0.4346  0.5423
   76SLPC  H11R 6858   4.043   2.913   7.683  0.1583 -2.4373  0.0746
   76SLPC  H11S 6859   4.044   3.044   7.562 -0.1178 -0.3928  0.8603
   76SLPC  C212 6860   4.236   2.940   7.575 -0.0704  0.2370  0.2361
   76SLPC  H12R 6861   4.284   2.959   7.478 -2.2952 -0.7512 -1.1245
   76SLPC  C213 6862   4.321   2.915   7.677 -0.0016  0.4485 -0.3677
   76SLPC  H13R 6863   4.430   2.906   7.667  0.3779 -0.2705  3.0666
   76SLPC  C214 6864   4.278   2.883   7.818  1.0325  0.4234 -0.1594
   76SLPC  H14R 6865   4.250   2.776   7.826  1.2423  0.3355 -0.5662
   76SLPC  H14S 6866   4.189   2.942   7.848  0.4234 -0.6277  0.1629
   76SLPC  C215 6867   4.392   2.911   7.917  0.7948  0.0405  0.6387
   76SLPC  H15R 6868   4.483   2.854   7.889  0.1669 -0.0761 -1.3617
   76SLPC  H15S 6869   4.357   2.872   8.014  0.3150 -2.5579 -0.4975
   76SLPC  C216 6870   4.434   3.057   7.930 -0.7530  0.8493 -0.1293
   76SLPC  H16R 6871   4.348   3.113   7.973 -2.0064 -0.4421 -0.9001
   76SLPC  H16S 6872   4.471   3.101   7.835  1.8394 -0.0730  0.3657
   76SLPC  C217 6873   4.552   3.081   8.019 -0.1632 -0.3998 -0.4315
   76SLPC  H17R 6874   4.639   3.021   7.985 -0.2222 -1.3712  1.0451
   76SLPC  H17S 6875   4.515   3.034   8.113 -2.5838  2.9658  0.4590
   76SLPC  C218 6876   4.574   3.232   8.042 -0.6149  0.1468 -0.0841
   76SLPC  H18R 6877   4.480   3.280   8.077 -0.6004 -0.5575  0.9451
   76SLPC  H18S 6878   4.607   3.276   7.945 -0.6670  0.1218 -0.1128
   76SLPC  H18T 6879   4.655   3.248   8.116 -0.3886 -0.1925 -0.2587
   76SLPC   C33 6880   3.904   3.367   6.996  0.2506  0.9550 -0.5375
   76SLPC   H3X 6881   4.015   3.368   6.993  0.3036 -0.7722 -0.2733
   76SLPC   H3Y 6882   3.870   3.261   7.001 -1.3978  1.5129  0.9806
   76SLPC   C34 6883   3.863   3.419   7.135  0.0307  0.2895  0.1057
   76SLPC   H4X 6884   3.904   3.360   7.220  0.6597  0.2640 -0.2052
   76SLPC   H4Y 6885   3.753   3.419   7.148 -0.0512 -0.9573 -0.4598
   76SLPC   C35 6886   3.918   3.558   7.169  0.3608 -0.2272  0.3534
   76SLPC   H5X 6887   3.877   3.632   7.096  1.0753 -0.8566 -0.7209
   76SLPC   H5Y 6888   4.029   3.559   7.158  0.6894  1.8110  2.9758
   76SLPC   C36 6889   3.872   3.610   7.305 -0.4564 -0.0932 -0.2098
   76SLPC   H6X 6890   3.905   3.536   7.381 -0.8420  0.1152  0.1642
   76SLPC   H6Y 6891   3.761   3.615   7.311 -0.5547  2.1723 -2.3228
   76SLPC   C37 6892   3.917   3.756   7.340 -0.3110  0.6442  0.6289
   76SLPC   H7X 6893   3.868   3.824   7.267  1.1378  0.5419 -0.4862
   76SLPC   H7Y 6894   4.026   3.763   7.320 -0.5162  2.8950 -0.0548
   76SLPC   C38 6895   3.896   3.813   7.487  0.1729 -0.5024 -0.0465
   76SLPC   H8X 6896   3.786   3.815   7.504 -0.0779 -2.5483 -1.2167
   76SLPC   H8Y 6897   3.927   3.920   7.482 -2.4654  0.3407  0.0614
   76SLPC   C39 6898   3.967   3.746   7.603  0.4116 -0.0414 -0.8918
   76SLPC   H9X 6899   4.077   3.750   7.585  0.8710  0.2638  1.6613
   76SLPC   H9Y 6900   3.931   3.641   7.601 -0.2154  0.1708 -0.6986
   76SLPC  C310 6901   3.943   3.812   7.739  0.2267  0.1573 -0.1443
   76SLPC  H10X 6902   3.836   3.807   7.768  0.3873  1.7059  0.8254
   76SLPC  H10Y 6903   3.962   3.922   7.742  0.6341  0.0639  1.4338
   76SLPC  C311 6904   4.032   3.748   7.850  0.0399  0.2089 -0.0645
   76SLPC  H11X 6905   4.137   3.777   7.831  0.4094 -1.3966 -0.5285
   76SLPC  H11Y 6906   4.033   3.639   7.833  1.0058  0.5427 -2.4812
   76SLPC  C312 6907   4.006   3.785   8.000 -0.5519  0.6761  0.5643
   76SLPC  H12X 6908   4.056   3.882   8.019  1.8435 -0.4146  0.1053
   76SLPC  H12Y 6909   4.054   3.709   8.065 -0.4770 -0.4823 -0.8010
   76SLPC  C313 6910   3.864   3.790   8.047 -0.2594 -0.1487  0.2790
   76SLPC  H13X 6911   3.805   3.848   7.972 -1.9662 -2.7376 -0.4856
   76SLPC  H13Y 6912   3.860   3.851   8.139 -2.5403  0.6333 -0.2728
   76SLPC  C314 6913   3.797   3.654   8.067 -0.4256 -0.1524 -0.2779
   76SLPC  H14X 6914   3.867   3.604   8.138  0.2316  0.2910 -0.6002
   76SLPC  H14Y 6915   3.805   3.593   7.974  1.0601 -1.1813  0.4748
   76SLPC  C315 6916   3.660   3.654   8.130 -0.0989 -0.6533 -0.6423
   76SLPC  H15X 6917   3.621   3.554   8.159  2.4449 -1.3551  0.6204
   76SLPC  H15Y 6918   3.604   3.716   8.057 -3.2615 -2.5594 -0.0047
   76SLPC  C316 6919   3.653   3.731   8.262 -0.0834 -0.4990 -0.4810
   76SLPC  H16X 6920   3.647   3.841   8.245  0.2894 -0.4002  0.0105
   76SLPC  H16Y 6921   3.741   3.696   8.321  0.4314  0.3535 -0.7174
   76SLPC  C317 6922   3.529   3.694   8.336 -1.2152  0.4442 -0.0312
   76SLPC  H17X 6923   3.546   3.738   8.436  0.4994 -0.1769 -0.0133
   76SLPC  H17Y 6924   3.514   3.585   8.348  1.7739 -0.0610 -0.1607
   76SLPC  C318 6925   3.410   3.762   8.276  0.7724 -0.1417  0.1963
   76SLPC  H18X 6926   3.320   3.719   8.324 -0.0672 -0.3863 -1.5317
   76SLPC  H18Y 6927   3.407   3.736   8.168  1.6335 -0.5364  0.2563
   76SLPC  H18Z 6928   3.410   3.873   8.280 -1.7647 -0.0770 -0.0045
   77SLPC     N 6929   1.021   2.652   6.168 -0.3361  0.2238  0.3804
   77SLPC   C13 6930   1.014   2.559   6.050  1.1340  0.5966  0.2503
   77SLPC  H13A 6931   0.914   2.557   6.010  1.4136  0.4891 -0.4514
   77SLPC  H13B 6932   1.071   2.596   5.966  1.4527  0.7765  0.5442
   77SLPC  H13C 6933   1.043   2.460   6.082 -0.7803  0.1189  0.6084
   77SLPC   C14 6934   0.994   2.796   6.120  0.6314  0.3839  0.4222
   77SLPC  H14A 6935   0.890   2.798   6.088  1.4272 -0.6110 -2.5071
   77SLPC  H14B 6936   1.016   2.857   6.207 -1.0556 -2.1997  2.8598
   77SLPC  H14C 6937   1.057   2.815   6.035  2.7111 -0.6578  1.6667
   77SLPC   C15 6938   1.170   2.640   6.221  0.2279 -0.2816  0.5867
   77SLPC  H15A 6939   1.196   2.538   6.244 -0.0279 -0.1935  1.2929
   77SLPC  H15B 6940   1.231   2.670   6.138 -1.2638 -1.4686 -1.0118
   77SLPC  H15C 6941   1.190   2.705   6.305 -0.5089 -1.0495  1.3828
   77SLPC   C12 6942   0.928   2.605   6.275 -0.3942 -0.7478 -0.3930
   77SLPC  H12A 6943   0.944   2.647   6.373 -1.5005  0.1517 -0.5729
   77SLPC  H12B 6944   0.941   2.499   6.295 -0.2285 -0.5810  0.3979
   77SLPC   C11 6945   0.777   2.626   6.248 -0.8151  0.0754  0.4692
   77SLPC  H11A 6946   0.753   2.734   6.241  0.4558  0.5233  2.2842
   77SLPC  H11B 6947   0.724   2.583   6.335 -1.2841  0.2496  0.2720
   77SLPC     P 6948   0.697   2.424   6.108  0.4033  0.2754  0.1219
   77SLPC   O13 6949   0.578   2.395   6.189 -0.2126  0.1817  0.2276
   77SLPC   O14 6950   0.687   2.406   5.963 -0.1934  0.2292  0.0608
   77SLPC   O12 6951   0.728   2.574   6.127  0.5673  0.1502  0.1718
   77SLPC   O11 6952   0.823   2.346   6.168  0.2166  0.3241  0.0956
   77SLPC    C1 6953   0.827   2.210   6.202 -0.1756 -0.8017 -0.1370
   77SLPC    HA 6954   0.732   2.159   6.173 -0.5776  0.8095 -1.8816
   77SLPC    HB 6955   0.903   2.154   6.144 -1.4865  0.3151 -3.1487
   77SLPC    C2 6956   0.837   2.199   6.354  0.1173  0.5021  0.0510
   77SLPC    HS 6957   0.811   2.095   6.382 -0.5878  0.7259  0.2399
   77SLPC   O21 6958   0.749   2.295   6.420  0.4605  0.2605 -0.1586
   77SLPC   C21 6959   0.630   2.248   6.442 -0.3352 -0.5985  0.5281
   77SLPC   O22 6960   0.588   2.143   6.397 -0.5285 -0.4279  0.0314
   77SLPC   C22 6961   0.553   2.335   6.532  0.2990  0.4309 -0.2841
   77SLPC   H2R 6962   0.610   2.422   6.573 -2.5659  1.3921  2.0226
   77SLPC   H2S 6963   0.467   2.376   6.476  0.5200  0.3134 -0.7098
   77SLPC    C3 6964   0.991   2.206   6.388 -0.4353 -0.3270  0.5936
   77SLPC    HX 6965   1.021   2.312   6.396  0.8121 -0.5212 -1.0508
   77SLPC    HY 6966   1.053   2.165   6.305  0.1693  3.6982 -1.1363
   77SLPC   O31 6967   1.020   2.132   6.511  0.1954 -0.4401  0.3742
   77SLPC   C31 6968   0.992   2.212   6.621  0.1786  0.8762 -0.0407
   77SLPC   O32 6969   0.949   2.325   6.612 -0.3952  0.7479  0.1265
   77SLPC   C32 6970   1.014   2.133   6.749 -0.8991 -0.0410 -0.1390
   77SLPC   H2X 6971   1.060   2.038   6.714 -0.0111 -0.4203  1.9212
   77SLPC   H2Y 6972   0.916   2.109   6.796 -0.0865 -0.1978  1.5569
   77SLPC   C23 6973   0.502   2.255   6.659 -0.1378  0.2506 -0.0487
   77SLPC   H3R 6974   0.441   2.172   6.617 -1.1006  1.5853 -1.3803
   77SLPC   H3S 6975   0.425   2.317   6.708 -1.5155 -0.6782 -0.9737
   77SLPC   C24 6976   0.613   2.212   6.754 -0.5181 -0.3734  0.1148
   77SLPC   H4R 6977   0.652   2.299   6.812 -0.9873  1.2323 -1.8692
   77SLPC   H4S 6978   0.692   2.156   6.700 -0.5595  2.5701 -3.3915
   77SLPC   C25 6979   0.561   2.113   6.863  0.2276 -0.8678 -0.5101
   77SLPC   H5R 6980   0.510   2.019   6.830 -2.6788  0.4969 -0.1876
   77SLPC   H5S 6981   0.485   2.161   6.929  1.3217  1.3191 -0.7729
   77SLPC   C26 6982   0.676   2.075   6.963  0.3538  0.4379 -0.3942
   77SLPC   H6R 6983   0.719   2.159   7.022  3.1394 -0.3970 -1.0865
   77SLPC   H6S 6984   0.760   2.020   6.916 -0.7809 -2.4522  0.7731
   77SLPC   C27 6985   0.618   1.987   7.074  0.1764 -0.0909  0.0017
   77SLPC   H7R 6986   0.550   1.909   7.031 -1.8050  1.4361  0.1995
   77SLPC   H7S 6987   0.559   2.059   7.135  1.7872  0.1022  1.3948
   77SLPC   C28 6988   0.717   1.930   7.174 -0.3490 -0.7382  0.0279
   77SLPC   H8R 6989   0.793   2.006   7.202  0.0141 -1.8775  2.3242
   77SLPC   H8S 6990   0.772   1.850   7.120  1.4723  0.4996 -0.0371
   77SLPC   C29 6991   0.657   1.875   7.297  0.3750  0.3189  0.3859
   77SLPC   H9R 6992   0.560   1.919   7.323  0.4818  1.2323 -0.7000
   77SLPC  C210 6993   0.730   1.799   7.392  0.2834 -0.1180  0.9390
   77SLPC  H10R 6994   0.665   1.778   7.478 -0.9502  0.1644  0.1014
   77SLPC  C211 6995   0.867   1.742   7.389  0.3124 -0.2917  0.3351
   77SLPC  H11R 6996   0.932   1.803   7.323 -1.5773  2.3367  0.7367
   77SLPC  H11S 6997   0.864   1.638   7.350 -1.0085 -0.3637  0.5770
   77SLPC  C212 6998   0.927   1.734   7.530 -0.3420  0.3200 -0.0043
   77SLPC  H12R 6999   0.944   1.630   7.562 -3.1591 -0.6122 -1.1796
   77SLPC  C213 7000   0.944   1.836   7.618 -0.2573 -0.0376  0.4076
   77SLPC  H13R 7001   0.981   1.818   7.720  1.3870  1.8742  0.2207
   77SLPC  C214 7002   0.900   1.974   7.597  0.2514 -0.6589  0.0538
   77SLPC  H14R 7003   0.901   1.994   7.488 -0.0445  0.1129  0.1799
   77SLPC  H14S 7004   0.975   2.041   7.644  1.1625 -1.1119 -0.7200
   77SLPC  C215 7005   0.756   1.997   7.641 -0.2776  0.0626 -0.1446
   77SLPC  H15R 7006   0.675   1.935   7.599 -0.9380  0.9146 -0.1459
   77SLPC  H15S 7007   0.727   2.101   7.616 -1.5197  0.1879  1.6568
   77SLPC  C216 7008   0.737   1.994   7.794  1.1971 -0.6219 -0.2016
   77SLPC  H16R 7009   0.821   2.037   7.853  0.8235  1.7059 -1.2494
   77SLPC  H16S 7010   0.716   1.891   7.830  1.0084 -2.0865 -3.9829
   77SLPC  C217 7011   0.616   2.084   7.837  0.9788  0.1084  0.0496
   77SLPC  H17R 7012   0.525   2.036   7.795  0.3087  2.6928 -1.6724
   77SLPC  H17S 7013   0.638   2.184   7.794  1.3910  0.4237  0.9671
   77SLPC  C218 7014   0.611   2.090   7.990  0.2247 -0.1354  0.3657
   77SLPC  H18R 7015   0.699   2.148   8.022 -0.9216  0.8812  1.8062
   77SLPC  H18S 7016   0.618   1.995   8.048  0.7129 -0.7892 -0.7181
   77SLPC  H18T 7017   0.524   2.151   8.020 -1.1060 -2.0877  0.6977
   77SLPC   C33 7018   1.100   2.192   6.864 -0.5234  0.1486 -0.1044
   77SLPC   H3X 7019   1.042   2.280   6.901 -0.2109  0.0890  0.5341
   77SLPC   H3Y 7020   1.199   2.226   6.828 -0.6462  1.1786  0.4826
   77SLPC   C34 7021   1.106   2.105   6.988  0.2932 -0.0524 -0.0890
   77SLPC   H4X 7022   1.159   2.011   6.966  1.6254  0.8715 -0.9667
   77SLPC   H4Y 7023   1.001   2.084   7.017  0.1184  0.9272  0.0492
   77SLPC   C35 7024   1.171   2.183   7.109 -0.3499 -0.0411  0.5807
   77SLPC   H5X 7025   1.096   2.261   7.135 -1.4565 -0.1638 -1.9288
   77SLPC   H5Y 7026   1.273   2.219   7.086 -0.6485  0.6833  0.3273
   77SLPC   C36 7027   1.176   2.087   7.223  0.8490  0.1319 -0.5598
   77SLPC   H6X 7028   1.226   1.993   7.192 -0.2072 -0.0626 -1.7617
   77SLPC   H6Y 7029   1.073   2.054   7.251  0.9831  0.5938  0.5230
   77SLPC   C37 7030   1.242   2.149   7.351 -0.4934 -0.3068  0.7460
   77SLPC   H7X 7031   1.170   2.222   7.394  2.2658  1.6791  2.3366
   77SLPC   H7Y 7032   1.336   2.201   7.324 -1.1010 -0.6641 -2.4245
   77SLPC   C38 7033   1.265   2.043   7.461 -0.0541 -0.1361  0.0993
   77SLPC   H8X 7034   1.325   1.957   7.423 -1.4980 -1.9207  1.6607
   77SLPC   H8Y 7035   1.175   1.997   7.506  0.1719 -1.3849 -0.6616
   77SLPC   C39 7036   1.336   2.096   7.586 -0.2204 -0.1657  0.1198
   77SLPC   H9X 7037   1.402   2.180   7.553 -0.0603 -0.3240  0.0341
   77SLPC   H9Y 7038   1.382   2.012   7.641  0.0855  0.4531  0.8326
   77SLPC  C310 7039   1.242   2.149   7.696 -0.3722 -0.9121  0.1197
   77SLPC  H10X 7040   1.190   2.062   7.743 -1.5108 -0.5266 -0.3944
   77SLPC  H10Y 7041   1.162   2.217   7.661  1.5700  0.7468 -1.3674
   77SLPC  C311 7042   1.310   2.212   7.812 -0.0068 -0.2783 -0.7964
   77SLPC  H11X 7043   1.361   2.304   7.777  1.4002 -0.7686 -0.1001
   77SLPC  H11Y 7044   1.378   2.144   7.868 -0.9620 -0.5306  0.1034
   77SLPC  C312 7045   1.201   2.259   7.910  0.3662 -0.5912  0.2867
   77SLPC  H12X 7046   1.128   2.177   7.923 -0.2393 -0.5351 -2.3256
   77SLPC  H12Y 7047   1.151   2.346   7.862  0.4186 -0.5764  0.2584
   77SLPC  C313 7048   1.257   2.324   8.044  0.4624  0.5052  0.7709
   77SLPC  H13X 7049   1.300   2.425   8.026  0.3846  0.4180  0.0656
   77SLPC  H13Y 7050   1.330   2.256   8.094  0.1503 -0.6616 -0.3046
   77SLPC  C314 7051   1.143   2.374   8.135  1.0956  0.1651 -0.1565
   77SLPC  H14X 7052   1.103   2.279   8.177 -0.7511  1.4460  1.1341
   77SLPC  H14Y 7053   1.062   2.427   8.082  2.4201  0.7604 -1.6551
   77SLPC  C315 7054   1.198   2.458   8.249 -0.2641 -0.5169  0.0227
   77SLPC  H15X 7055   1.296   2.424   8.287 -0.2795  0.2410  0.7599
   77SLPC  H15Y 7056   1.140   2.446   8.343 -0.1364 -1.5080 -0.0101
   77SLPC  C316 7057   1.188   2.607   8.209  0.6954  0.7221 -0.3032
   77SLPC  H16X 7058   1.081   2.622   8.186  0.2702  0.1529  1.2359
   77SLPC  H16Y 7059   1.249   2.630   8.119  0.2042  0.6565 -0.6559
   77SLPC  C317 7060   1.244   2.695   8.321 -0.4576 -0.8976 -0.2453
   77SLPC  H17X 7061   1.258   2.795   8.274  0.5525 -1.6792 -1.7125
   77SLPC  H17Y 7062   1.347   2.663   8.346  0.1794  0.9750 -0.3300
   77SLPC  C318 7063   1.156   2.707   8.444  0.2281  0.1192  0.5094
   77SLPC  H18X 7064   1.196   2.773   8.524 -0.9428 -0.3671  1.5288
   77SLPC  H18Y 7065   1.132   2.605   8.481 -3.1536 -0.3776 -2.4858
   77SLPC  H18Z 7066   1.059   2.756   8.421  0.2247 -0.3497 -0.5245
   78SLPC     N 7067   4.254   4.050   5.744 -0.1392 -0.4466 -0.1340
   78SLPC   C13 7068   4.333   4.118   5.637 -0.8492 -0.5273 -0.6530
   78SLPC  H13A 7069   4.317   4.073   5.540 -0.5092  0.4950 -1.1971
   78SLPC  H13B 7070   4.294   4.219   5.632  0.5496 -0.0026 -1.6338
   78SLPC  H13C 7071   4.439   4.120   5.655 -0.7866  0.6291 -1.0596
   78SLPC   C14 7072   4.107   4.050   5.717 -0.6180 -0.5000 -0.0807
   78SLPC  H14A 7073   4.062   3.977   5.783 -0.4758 -0.1708  0.3788
   78SLPC  H14B 7074   4.073   4.153   5.717  2.5985  0.6863  1.2239
   78SLPC  H14C 7075   4.084   4.004   5.622 -2.4493 -1.3220  0.7051
   78SLPC   C15 7076   4.278   4.117   5.882 -0.0113  0.4152  0.1524
   78SLPC  H15A 7077   4.200   4.094   5.952  0.5750  2.5393  1.6046
   78SLPC  H15B 7078   4.375   4.074   5.905  0.4842 -0.0006 -2.3938
   78SLPC  H15C 7079   4.305   4.221   5.876  0.2544  0.3163 -0.4849
   78SLPC   C12 7080   4.300   3.901   5.744 -0.6158 -0.3912 -0.4675
   78SLPC  H12A 7081   4.407   3.892   5.740 -0.2768  2.5330 -0.2895
   78SLPC  H12B 7082   4.261   3.862   5.651  1.7861  0.6315 -2.0048
   78SLPC   C11 7083   4.231   3.810   5.853 -0.0117  0.2908 -0.3740
   78SLPC  H11A 7084   4.264   3.841   5.955 -0.3665 -2.4589  0.6529
   78SLPC  H11B 7085   4.279   3.712   5.831 -0.0903  0.8240 -3.3089
   78SLPC     P 7086   4.032   3.674   5.934 -0.1089 -0.7010 -0.0263
   78SLPC   O13 7087   3.886   3.679   5.922 -0.4014  0.0968 -0.5909
   78SLPC   O14 7088   4.087   3.541   5.894  0.2698 -0.0885  0.8384
   78SLPC   O12 7089   4.091   3.786   5.842  0.0272  0.1738 -0.0727
   78SLPC   O11 7090   4.078   3.712   6.080 -0.1459  0.2259  0.0013
   78SLPC    C1 7091   4.048   3.841   6.146  0.4973 -0.4362 -0.3771
   78SLPC    HA 7092   4.138   3.903   6.126  0.0023 -0.1291 -1.8038
   78SLPC    HB 7093   3.967   3.893   6.090  2.6211  2.3383 -1.0604
   78SLPC    C2 7094   4.012   3.845   6.291 -0.3622  1.1236  0.1802
   78SLPC    HS 7095   4.022   3.951   6.323 -1.1354  0.4347  2.9552
   78SLPC   O21 7096   4.094   3.765   6.375  0.4433  0.2599  0.4220
   78SLPC   C21 7097   4.221   3.794   6.390  0.3352 -0.2453  0.7876
   78SLPC   O22 7098   4.278   3.889   6.342 -0.0717 -0.3698  0.2883
   78SLPC   C22 7099   4.278   3.697   6.490 -0.3617 -0.5150  0.1129
   78SLPC   H2R 7100   4.268   3.593   6.451 -1.6400  0.0540 -1.1983
   78SLPC   H2S 7101   4.386   3.717   6.506 -0.6908  0.3022  1.4199
   78SLPC    C3 7102   3.870   3.793   6.298  0.2358  0.1780 -0.4245
   78SLPC    HX 7103   3.878   3.690   6.257  0.0248  0.8706 -2.3129
   78SLPC    HY 7104   3.799   3.845   6.230  0.1178  1.4152  0.6054
   78SLPC   O31 7105   3.820   3.787   6.433  0.7009  0.5405 -0.3564
   78SLPC   C31 7106   3.720   3.870   6.469 -0.2294 -0.1140  0.3783
   78SLPC   O32 7107   3.666   3.951   6.389 -0.1313  0.5806  0.1174
   78SLPC   C32 7108   3.705   3.874   6.622 -0.0570  0.7466  0.2811
   78SLPC   H2X 7109   3.632   3.955   6.647  2.3372  2.4151  2.2583
   78SLPC   H2Y 7110   3.805   3.903   6.660  0.5332  0.0132 -0.6721
   78SLPC   C23 7111   4.192   3.685   6.617  1.0309 -0.1636 -0.4721
   78SLPC   H3R 7112   4.220   3.585   6.657  0.7737  1.0133  2.9320
   78SLPC   H3S 7113   4.082   3.683   6.602  0.9003  1.6996  0.0405
   78SLPC   C24 7114   4.231   3.772   6.736 -0.0745 -0.4748 -0.2141
   78SLPC   H4R 7115   4.196   3.877   6.726  0.4528 -0.2928 -0.1743
   78SLPC   H4S 7116   4.341   3.768   6.752  0.0185  1.1240 -0.3165
   78SLPC   C25 7117   4.160   3.733   6.868 -0.2045 -0.1270 -0.0419
   78SLPC   H5R 7118   4.196   3.629   6.885 -0.0626  0.1154  1.1549
   78SLPC   H5S 7119   4.050   3.737   6.851 -0.5645  3.0733  2.2266
   78SLPC   C26 7120   4.208   3.817   6.985  0.2746  0.1219 -0.1041
   78SLPC   H6R 7121   4.118   3.850   7.041 -1.3592  1.4295 -3.2523
   78SLPC   H6S 7122   4.247   3.914   6.945 -2.1852  0.9738 -0.5879
   78SLPC   C27 7123   4.321   3.753   7.063  0.3934 -0.4080  0.0162
   78SLPC   H7R 7124   4.389   3.708   6.988  0.1583 -0.7045 -0.0182
   78SLPC   H7S 7125   4.278   3.675   7.129 -1.0510 -1.1788 -1.7521
   78SLPC   C28 7126   4.394   3.852   7.149  0.2950  0.3543 -0.1189
   78SLPC   H8R 7127   4.322   3.916   7.203  0.5862  0.3708  0.2555
   78SLPC   H8S 7128   4.449   3.925   7.086 -0.3810 -1.2100 -2.6604
   78SLPC   C29 7129   4.482   3.774   7.256 -0.1291 -0.0437 -0.5095
   78SLPC   H9R 7130   4.566   3.721   7.208 -0.5846 -2.3350  1.0190
   78SLPC  C210 7131   4.465   3.760   7.393  0.0113  0.3836 -0.6991
   78SLPC  H10R 7132   4.532   3.692   7.446 -0.5754 -0.6700 -1.2697
   78SLPC  C211 7133   4.351   3.829   7.470 -0.4464 -0.7245 -0.8401
   78SLPC  H11R 7134   4.326   3.775   7.564  0.5359  1.0223  0.4627
   78SLPC  H11S 7135   4.252   3.837   7.420 -0.1703 -2.1561 -1.6877
   78SLPC  C212 7136   4.406   3.968   7.503 -0.8193  0.3451 -0.3790
   78SLPC  H12R 7137   4.441   4.025   7.416  1.9794  0.6401  0.8229
   78SLPC  C213 7138   4.431   4.025   7.625 -0.2938  0.0946 -0.6583
   78SLPC  H13R 7139   4.464   4.129   7.639 -0.5412 -0.0748  1.3739
   78SLPC  C214 7140   4.409   3.957   7.751  0.1236 -0.5227 -0.9865
   78SLPC  H14R 7141   4.471   3.867   7.773 -0.4661 -0.2614  2.3719
   78SLPC  H14S 7142   4.307   3.916   7.738 -0.9518  1.6935 -0.1050
   78SLPC  C215 7143   4.438   4.048   7.877 -0.1625 -0.0265  0.5740
   78SLPC  H15R 7144   4.407   4.149   7.843  1.5482  0.0734 -0.8289
   78SLPC  H15S 7145   4.545   4.043   7.904 -0.5582 -0.1997  2.2011
   78SLPC  C216 7146   4.351   4.012   7.995  0.1420 -0.4507  0.5897
   78SLPC  H16R 7147   4.352   3.905   8.025  1.2458  0.4882  4.4643
   78SLPC  H16S 7148   4.246   4.047   7.980 -0.0742 -0.1103  2.5338
   78SLPC  C217 7149   4.398   4.072   8.129 -0.4590 -0.1217  0.3246
   78SLPC  H17R 7150   4.435   4.173   8.102  0.7285 -0.8149 -0.7828
   78SLPC  H17S 7151   4.487   4.016   8.164 -0.6782 -0.6236  0.0815
   78SLPC  C218 7152   4.296   4.075   8.238 -0.2443 -0.1372  0.5705
   78SLPC  H18R 7153   4.254   4.178   8.244 -1.9762 -0.7756  0.0085
   78SLPC  H18S 7154   4.336   4.059   8.340 -3.3789 -1.5332  1.7194
   78SLPC  H18T 7155   4.211   4.004   8.231  0.1738 -0.6744  0.8607
   78SLPC   C33 7156   3.653   3.750   6.683  0.2170  0.4661 -0.1907
   78SLPC   H3X 7157   3.742   3.685   6.701  0.2381  1.1097  2.4965
   78SLPC   H3Y 7158   3.588   3.688   6.618 -0.5425 -0.4398  1.3774
   78SLPC   C34 7159   3.573   3.767   6.814 -0.1262  0.0509  0.0922
   78SLPC   H4X 7160   3.538   3.665   6.842 -0.2633 -0.1304 -0.7197
   78SLPC   H4Y 7161   3.475   3.816   6.797 -1.5518 -1.9973  1.8052
   78SLPC   C35 7162   3.646   3.831   6.937 -0.3912 -0.5318 -0.2941
   78SLPC   H5X 7163   3.674   3.935   6.910  2.0158 -0.5551  1.6996
   78SLPC   H5Y 7164   3.742   3.782   6.964  0.4407  0.6360 -1.0181
   78SLPC   C36 7165   3.557   3.845   7.059  0.0119 -0.6332  0.1687
   78SLPC   H6X 7166   3.473   3.916   7.039 -1.9810 -3.0062 -0.4221
   78SLPC   H6Y 7167   3.617   3.877   7.147  0.0058 -3.5284  1.3395
   78SLPC   C37 7168   3.509   3.709   7.120 -0.7003 -0.2782  0.2378
   78SLPC   H7X 7169   3.599   3.668   7.169  0.9573  0.5110 -1.9893
   78SLPC   H7Y 7170   3.473   3.637   7.043 -0.1969  0.3577 -0.6034
   78SLPC   C38 7171   3.404   3.729   7.236 -0.5168  0.5851  0.2322
   78SLPC   H8X 7172   3.320   3.793   7.202 -0.9087 -1.2628 -2.6312
   78SLPC   H8Y 7173   3.460   3.771   7.322 -0.0143 -1.9022  1.2048
   78SLPC   C39 7174   3.329   3.602   7.266 -0.1463  0.0953 -0.1043
   78SLPC   H9X 7175   3.400   3.529   7.309  1.0798  1.4387  0.2358
   78SLPC   H9Y 7176   3.278   3.563   7.175  0.3277 -1.7535  0.3919
   78SLPC  C310 7177   3.206   3.631   7.363 -0.5265 -0.1140 -0.2011
   78SLPC  H10X 7178   3.164   3.732   7.344  0.4085  0.6840  1.7429
   78SLPC  H10Y 7179   3.249   3.642   7.464  1.9747  2.2666 -1.3830
   78SLPC  C311 7180   3.105   3.514   7.363  0.6630  0.0831  0.2546
   78SLPC  H11X 7181   3.147   3.437   7.431 -0.8758 -1.1604 -0.1622
   78SLPC  H11Y 7182   3.090   3.460   7.268 -1.3966 -0.7841  1.0113
   78SLPC  C312 7183   2.969   3.544   7.430 -0.2020 -0.4891  0.1418
   78SLPC  H12X 7184   2.906   3.453   7.440 -2.3615  0.7671 -1.1193
   78SLPC  H12Y 7185   2.922   3.624   7.369  0.7394 -0.1934 -0.1954
   78SLPC  C313 7186   2.972   3.610   7.581  0.2479  0.5824  0.4890
   78SLPC  H13X 7187   3.031   3.704   7.575  0.8025  0.2109 -0.0437
   78SLPC  H13Y 7188   3.025   3.536   7.644 -2.4093 -1.4673  0.4649
   78SLPC  C314 7189   2.832   3.630   7.638  0.2567  0.2551  0.1443
   78SLPC  H14X 7190   2.779   3.533   7.648 -2.0927  1.1188 -2.5501
   78SLPC  H14Y 7191   2.769   3.679   7.560 -1.5800  0.5347  1.7395
   78SLPC  C315 7192   2.832   3.707   7.775 -0.4919 -0.3869 -0.1324
   78SLPC  H15X 7193   2.733   3.742   7.812 -0.7184 -0.8526 -0.2851
   78SLPC  H15Y 7194   2.886   3.800   7.750  2.9106 -1.3556  2.6938
   78SLPC  C316 7195   2.905   3.640   7.888 -0.8435 -0.8224 -0.3065
   78SLPC  H16X 7196   2.991   3.576   7.859  0.3629  0.3101  0.6678
   78SLPC  H16Y 7197   2.830   3.569   7.928 -1.4604  0.3224  0.6590
   78SLPC  C317 7198   2.955   3.750   7.992 -0.1545 -0.2264 -0.1622
   78SLPC  H17X 7199   2.862   3.798   8.030 -1.6025 -2.1830 -1.0854
   78SLPC  H17Y 7200   3.027   3.822   7.948  0.2870  0.4288  1.5430
   78SLPC  C318 7201   3.023   3.691   8.123  0.0937  0.2757  0.9625
   78SLPC  H18X 7202   3.061   3.785   8.168  0.2327 -0.0213  1.4691
   78SLPC  H18Y 7203   3.113   3.631   8.098  0.6107  1.2444  0.4349
   78SLPC  H18Z 7204   2.945   3.634   8.178 -0.0406 -0.6019 -0.0855
   79SLPC     N 7205   6.699   3.551   5.974 -0.2784  0.0208  0.0182
   79SLPC   C13 7206   6.669   3.590   5.837  0.2969  0.0629  0.0931
   79SLPC  H13A 7207   6.609   3.680   5.829  1.5979  0.9533  0.1973
   79SLPC  H13B 7208   6.758   3.608   5.780 -0.1614 -0.7678 -0.9194
   79SLPC  H13C 7209   6.608   3.513   5.792 -0.4864  0.1093  1.0286
   79SLPC   C14 7210   6.730   3.405   5.986  0.2635  0.5570 -0.5881
   79SLPC  H14A 7211   6.820   3.384   5.930  1.6799  4.8712 -0.3351
   79SLPC  H14B 7212   6.769   3.383   6.085  1.1878  0.5043 -0.9541
   79SLPC  H14C 7213   6.656   3.330   5.965 -1.2468  1.7771  0.2005
   79SLPC   C15 7214   6.576   3.576   6.054  0.1932 -0.4938 -0.3289
   79SLPC  H15A 7215   6.502   3.503   6.028 -1.1320 -0.5150  3.0857
   79SLPC  H15B 7216   6.592   3.565   6.160 -1.0004  1.4427  0.1101
   79SLPC  H15C 7217   6.537   3.677   6.048 -0.8201 -0.8098  0.6490
   79SLPC   C12 7218   6.816   3.637   6.028 -0.6279  0.0953 -0.1147
   79SLPC  H12A 7219   6.807   3.736   5.986  1.0790 -0.5959 -2.2744
   79SLPC  H12B 7220   6.906   3.595   5.987 -0.7080  1.8662 -2.3147
   79SLPC   C11 7221   6.836   3.651   6.183  0.1471 -0.1915 -0.2837
   79SLPC  H11A 7222   6.939   3.692   6.186 -0.0217  0.1987  1.4326
   79SLPC  H11B 7223   6.836   3.557   6.241  2.9665 -1.1721 -1.7222
   79SLPC     P 7224   6.679   3.755   6.369  0.0421  0.1095 -0.1499
   79SLPC   O13 7225   6.620   3.892   6.378 -0.2470  0.0756  0.3654
   79SLPC   O14 7226   6.581   3.646   6.374  0.4027  0.2671  0.2486
   79SLPC   O12 7227   6.751   3.753   6.235  0.8660  0.8480  0.5943
   79SLPC   O11 7228   6.794   3.741   6.473 -0.3379 -0.5002  0.0933
   79SLPC    C1 7229   6.894   3.837   6.462  0.4611  0.3857 -0.4122
   79SLPC    HA 7230   6.981   3.769   6.449  0.9668  0.5027  1.9622
   79SLPC    HB 7231   6.893   3.896   6.368 -2.0100 -0.1833 -0.8249
   79SLPC    C2 7232   6.904   3.926   6.593 -0.2843  0.2978  0.8192
   79SLPC    HS 7233   7.006   3.969   6.602  0.4418 -1.7394  5.0403
   79SLPC   O21 7234   6.884   3.858   6.716 -0.5744 -0.0316  0.0139
   79SLPC   C21 7235   6.977   3.767   6.743  0.0706  0.0547  0.2457
   79SLPC   O22 7236   7.072   3.732   6.676 -0.5330 -0.1118  0.2576
   79SLPC   C22 7237   6.952   3.712   6.881 -0.0718  0.0892 -0.2758
   79SLPC   H2R 7238   6.848   3.738   6.911 -0.2409  1.8203 -2.1618
   79SLPC   H2S 7239   6.969   3.603   6.877  0.0685  0.1045 -0.1206
   79SLPC    C3 7240   6.800   4.039   6.577 -0.0736  0.2464  0.1474
   79SLPC    HX 7241   6.703   3.985   6.567  1.5930 -3.2379  1.1132
   79SLPC    HY 7242   6.821   4.094   6.483 -1.4302 -0.9554 -0.9002
   79SLPC   O31 7243   6.806   4.124   6.692  0.2170 -0.2097  0.6995
   79SLPC   C31 7244   6.695   4.212   6.703 -0.6989  0.5527 -0.3112
   79SLPC   O32 7245   6.605   4.209   6.622  0.1092  0.2314  1.1266
   79SLPC   C32 7246   6.702   4.291   6.825 -0.1579  0.1243 -0.0379
   79SLPC   H2X 7247   6.768   4.379   6.813 -0.5584  0.6379  1.3645
   79SLPC   H2Y 7248   6.758   4.234   6.902  0.0926  0.0820 -0.2473
   79SLPC   C23 7249   7.039   3.775   6.988  0.0395  0.3672  0.5010
   79SLPC   H3R 7250   7.013   3.883   6.995  1.9869  0.8102  1.7996
   79SLPC   H3S 7251   7.147   3.774   6.961 -0.5662  1.6799 -2.3660
   79SLPC   C24 7252   7.007   3.724   7.125  0.3377  0.0629 -0.3416
   79SLPC   H4R 7253   6.900   3.730   7.155  1.1466 -1.0387  3.1846
   79SLPC   H4S 7254   7.053   3.802   7.190 -1.8711  1.3453 -0.2099
   79SLPC   C25 7255   7.071   3.587   7.158  1.4390 -0.3555  0.6786
   79SLPC   H5R 7256   7.178   3.590   7.128  1.3016  0.2734  0.2240
   79SLPC   H5S 7257   7.014   3.509   7.103  1.2598  0.5029 -0.3861
   79SLPC   C26 7258   7.062   3.551   7.305 -0.0635  0.3470  0.4632
   79SLPC   H6R 7259   6.960   3.564   7.346  0.2332  1.4677  0.9036
   79SLPC   H6S 7260   7.123   3.620   7.368 -0.6947  0.6984  0.7099
   79SLPC   C27 7261   7.109   3.411   7.342 -0.2821 -0.3878  0.3454
   79SLPC   H7R 7262   7.211   3.383   7.309 -0.8672 -0.5370 -1.4756
   79SLPC   H7S 7263   7.055   3.340   7.276 -0.9749  0.1323  0.3431
   79SLPC   C28 7264   7.078   3.365   7.488 -0.9736  1.0988 -0.7474
   79SLPC   H8R 7265   7.106   3.258   7.495 -1.5063  0.9877 -0.2312
   79SLPC   H8S 7266   6.969   3.382   7.504 -0.7189  0.3631  2.3814
   79SLPC   C29 7267   7.168   3.453   7.572 -0.4235 -0.3592  0.0593
   79SLPC   H9R 7268   7.262   3.494   7.531 -1.0440 -0.9207 -2.0689
   79SLPC  C210 7269   7.157   3.477   7.698 -0.1661 -0.2830  0.2566
   79SLPC  H10R 7270   7.237   3.531   7.750  1.5146 -0.8591 -1.5939
   79SLPC  C211 7271   7.046   3.420   7.788 -0.1465  0.5195  0.3888
   79SLPC  H11R 7272   7.099   3.354   7.860  3.7098  0.1197 -2.4714
   79SLPC  H11S 7273   6.985   3.348   7.729 -2.3710  2.0449  0.7112
   79SLPC  C212 7274   6.956   3.523   7.855  1.1456 -0.1675  0.0138
   79SLPC  H12R 7275   6.861   3.542   7.803 -0.0448 -1.6483  1.5250
   79SLPC  C213 7276   6.992   3.603   7.956 -0.6995  0.3047  0.2398
   79SLPC  H13R 7277   6.926   3.688   7.980 -1.1943 -0.3118  1.0887
   79SLPC  C214 7278   7.129   3.599   8.020  0.2312 -0.8478  0.2251
   79SLPC  H14R 7279   7.155   3.703   8.050  0.2867 -0.2875 -1.6536
   79SLPC  H14S 7280   7.209   3.573   7.948 -1.2669  1.3661 -2.4425
   79SLPC  C215 7281   7.136   3.519   8.149 -0.1651  0.0888  0.3019
   79SLPC  H15R 7282   7.113   3.413   8.124 -2.2326  0.4310  0.6026
   79SLPC  H15S 7283   7.052   3.550   8.215 -0.6132  1.3502 -0.8080
   79SLPC  C216 7284   7.274   3.525   8.225  0.0982  0.0944  0.5213
   79SLPC  H16R 7285   7.260   3.502   8.333  0.8524  0.0641  0.6150
   79SLPC  H16S 7286   7.315   3.628   8.223  0.6614 -0.1216  0.7505
   79SLPC  C217 7287   7.377   3.422   8.177  0.8120  0.7291 -0.5673
   79SLPC  H17R 7288   7.393   3.438   8.069  1.7335 -0.0485 -0.5523
   79SLPC  H17S 7289   7.337   3.319   8.184 -0.2401  1.1321 -0.3937
   79SLPC  C218 7290   7.501   3.424   8.264  0.3682  0.6128 -0.9625
   79SLPC  H18R 7291   7.495   3.402   8.373  3.8836  0.6580 -0.6555
   79SLPC  H18S 7292   7.551   3.523   8.254 -4.2345  3.3279 -0.5528
   79SLPC  H18T 7293   7.572   3.346   8.232 -0.4662 -1.0574  1.0202
   79SLPC   C33 7294   6.566   4.326   6.889  0.0524  0.4205 -0.1560
   79SLPC   H3X 7295   6.500   4.237   6.898 -0.1479  0.6408  0.5818
   79SLPC   H3Y 7296   6.524   4.408   6.826  0.2712  1.8872  1.5313
   79SLPC   C34 7297   6.588   4.386   7.029 -0.0332  0.4852 -0.1030
   79SLPC   H4X 7298   6.500   4.449   7.054  0.5230  1.1621  0.1672
   79SLPC   H4Y 7299   6.680   4.447   7.033 -0.0134  0.4506 -0.0341
   79SLPC   C35 7300   6.582   4.276   7.140  0.1998  0.9278 -0.1180
   79SLPC   H5X 7301   6.637   4.182   7.118  0.0654  0.9413 -0.5077
   79SLPC   H5Y 7302   6.477   4.240   7.139  0.5232 -0.0487  0.0654
   79SLPC   C36 7303   6.617   4.323   7.286 -0.2690  1.0814 -0.3312
   79SLPC   H6X 7304   6.530   4.386   7.314  0.2663  3.0297 -2.6973
   79SLPC   H6Y 7305   6.705   4.389   7.272 -0.4439  1.6915  1.2273
   79SLPC   C37 7306   6.653   4.203   7.380  0.1607  1.1461 -0.2629
   79SLPC   H7X 7307   6.747   4.165   7.335 -1.3136 -1.2555 -1.5063
   79SLPC   H7Y 7308   6.581   4.120   7.369  1.3282  0.0902 -0.0995
   79SLPC   C38 7309   6.689   4.231   7.528 -0.4546  0.4492  0.1598
   79SLPC   H8X 7310   6.784   4.288   7.521  0.0415 -0.4883 -1.2865
   79SLPC   H8Y 7311   6.726   4.135   7.571  0.9514  1.2977  0.9125
   79SLPC   C39 7312   6.576   4.287   7.604  0.3275  0.1916 -0.2325
   79SLPC   H9X 7313   6.498   4.208   7.608 -1.1994  1.5720 -1.3969
   79SLPC   H9Y 7314   6.532   4.379   7.560 -0.0226  0.2962  0.3143
   79SLPC  C310 7315   6.627   4.315   7.748  0.4299  1.0278 -0.2906
   79SLPC  H10X 7316   6.686   4.409   7.754  0.8067  0.8313 -0.8572
   79SLPC  H10Y 7317   6.692   4.232   7.784  0.5182  1.2440  0.0498
   79SLPC  C311 7318   6.518   4.326   7.856  0.0031 -0.7662  0.2064
   79SLPC  H11X 7319   6.462   4.231   7.863 -0.1302 -0.6023  1.5011
   79SLPC  H11Y 7320   6.446   4.402   7.820 -1.1788 -3.0137 -2.6002
   79SLPC  C312 7321   6.569   4.351   8.002  0.2472  0.1529  0.1157
   79SLPC  H12X 7322   6.635   4.439   8.012  0.2538  0.2548 -0.7814
   79SLPC  H12Y 7323   6.629   4.261   8.028 -0.6263 -0.5485 -0.2263
   79SLPC  C313 7324   6.463   4.366   8.112  0.0328  0.3614  0.5483
   79SLPC  H13X 7325   6.394   4.280   8.114  1.7145 -1.0384  1.0212
   79SLPC  H13Y 7326   6.410   4.461   8.086 -1.5855 -0.1744  1.7082
   79SLPC  C314 7327   6.515   4.398   8.246 -0.6004 -0.6061 -0.8785
   79SLPC  H14X 7328   6.582   4.314   8.274  1.3116  0.5726 -1.7127
   79SLPC  H14Y 7329   6.421   4.406   8.305 -0.1793 -0.4599 -0.2178
   79SLPC  C315 7330   6.595   4.530   8.256 -0.2289  1.0614  0.9415
   79SLPC  H15X 7331   6.540   4.619   8.218  1.4723  1.2115 -1.3493
   79SLPC  H15Y 7332   6.688   4.523   8.195 -0.5648  0.5957  0.4853
   79SLPC  C316 7333   6.646   4.555   8.396  0.6405  0.6412  0.5400
   79SLPC  H16X 7334   6.728   4.480   8.397 -0.8844 -1.1504 -0.7441
   79SLPC  H16Y 7335   6.557   4.520   8.454  0.8102  1.2499  1.1815
   79SLPC  C317 7336   6.690   4.700   8.433  0.2114 -0.4141 -0.1068
   79SLPC  H17X 7337   6.605   4.770   8.419  1.2176  0.9791  0.5002
   79SLPC  H17Y 7338   6.771   4.727   8.361  1.1104 -0.9904  0.6632
   79SLPC  C318 7339   6.735   4.697   8.571 -0.6643 -0.6416 -0.2525
   79SLPC  H18X 7340   6.806   4.613   8.586 -0.7383 -0.9409 -1.4920
   79SLPC  H18Y 7341   6.654   4.668   8.641 -1.1730 -0.1821 -0.6398
   79SLPC  H18Z 7342   6.782   4.792   8.606 -0.7281  0.2013 -2.2864
   80SLPC     N 7343   1.164   4.270   5.595 -0.3294 -0.3738  0.0401
   80SLPC   C13 7344   1.144   4.320   5.457 -0.0918  0.0082  0.5045
   80SLPC  H13A 7345   1.107   4.242   5.392  2.5838  0.3995 -1.6469
   80SLPC  H13B 7346   1.071   4.399   5.449  1.0387  0.9779 -0.6416
   80SLPC  H13C 7347   1.233   4.358   5.410  0.3332  1.2507  2.2126
   80SLPC   C14 7348   1.210   4.385   5.676 -0.0729 -1.1841 -0.3672
   80SLPC  H14A 7349   1.140   4.467   5.673  2.6546  1.3015 -1.3568
   80SLPC  H14B 7350   1.209   4.355   5.780  0.1941 -3.0866 -0.8741
   80SLPC  H14C 7351   1.309   4.423   5.652  0.4725 -1.4869  1.2604
   80SLPC   C15 7352   1.269   4.166   5.594  0.0142  0.7507  0.2373
   80SLPC  H15A 7353   1.278   4.122   5.692  1.7003 -2.2088 -1.1242
   80SLPC  H15B 7354   1.252   4.088   5.521  0.4728  0.2515  0.6610
   80SLPC  H15C 7355   1.359   4.222   5.573  0.8226  0.3555  2.4535
   80SLPC   C12 7356   1.029   4.220   5.648  0.7932 -0.0473  0.4021
   80SLPC  H12A 7357   1.002   4.124   5.606 -2.9813  0.1460  1.9946
   80SLPC  H12B 7358   0.955   4.295   5.622 -1.1516 -1.5669  1.3321
   80SLPC   C11 7359   1.016   4.205   5.801 -0.1429 -0.3419 -0.4453
   80SLPC  H11A 7360   0.919   4.171   5.843  0.1716 -1.8634 -0.9133
   80SLPC  H11B 7361   1.022   4.309   5.840 -1.3519  0.1219 -1.4265
   80SLPC     P 7362   1.124   3.976   5.859  0.7051 -0.2165 -0.1366
   80SLPC   O13 7363   1.044   3.919   5.747 -0.1000 -0.4201 -0.1316
   80SLPC   O14 7364   1.263   3.925   5.867  0.0769  0.4957  0.4307
   80SLPC   O12 7365   1.123   4.134   5.859  0.3336 -0.2375  0.0097
   80SLPC   O11 7366   1.049   3.939   5.998 -0.0076 -0.0597  0.3403
   80SLPC    C1 7367   1.010   4.041   6.090  0.3305  0.2204  0.2356
   80SLPC    HA 7368   1.074   4.131   6.082  0.6116 -0.0943 -1.5715
   80SLPC    HB 7369   0.904   4.068   6.069  0.8783  1.2251 -1.4653
   80SLPC    C2 7370   1.023   3.987   6.234 -0.1134 -0.0159  0.1353
   80SLPC    HS 7371   0.951   4.032   6.306  0.9442 -0.4821  1.5223
   80SLPC   O21 7372   1.155   4.010   6.282  0.0213  0.0019 -0.0856
   80SLPC   C21 7373   1.201   4.122   6.317  0.3944  0.7422  0.4172
   80SLPC   O22 7374   1.135   4.226   6.305  0.4753 -0.0214 -0.5194
   80SLPC   C22 7375   1.338   4.113   6.374 -0.7474 -0.0882 -0.0532
   80SLPC   H2R 7376   1.349   4.015   6.426 -0.0555 -0.5798 -1.0855
   80SLPC   H2S 7377   1.417   4.113   6.296 -0.7308  0.5026 -0.0359
   80SLPC    C3 7378   0.993   3.835   6.249 -0.1840 -0.1541  0.0644
   80SLPC    HX 7379   1.050   3.771   6.177 -0.8624 -2.4764  1.4656
   80SLPC    HY 7380   0.886   3.823   6.220  0.3345  0.1933 -2.2181
   80SLPC   O31 7381   1.002   3.805   6.393  0.0905 -0.1762  0.1475
   80SLPC   C31 7382   1.113   3.742   6.423  0.2009  0.2800  0.1668
   80SLPC   O32 7383   1.202   3.707   6.348  0.3718  0.2088  0.1595
   80SLPC   C32 7384   1.115   3.723   6.576  0.2564  0.6486 -0.0789
   80SLPC   H2X 7385   1.115   3.612   6.586  1.6785  0.7206  1.0023
   80SLPC   H2Y 7386   1.030   3.773   6.628  1.1841  0.3792  1.7589
   80SLPC   C23 7387   1.365   4.231   6.470 -0.4558  0.4696 -0.2317
   80SLPC   H3R 7388   1.276   4.250   6.533 -1.0601 -3.0416  0.1762
   80SLPC   H3S 7389   1.391   4.312   6.399  0.7425  1.0999  0.8823
   80SLPC   C24 7390   1.486   4.229   6.558 -0.0551  0.5112 -0.2979
   80SLPC   H4R 7391   1.501   4.325   6.612 -1.7949  1.1630 -0.8997
   80SLPC   H4S 7392   1.563   4.211   6.480 -0.0732  3.1017 -1.0027
   80SLPC   C25 7393   1.484   4.105   6.654  0.0835 -0.5248 -0.2650
   80SLPC   H5R 7394   1.505   4.012   6.598 -1.0496  0.3964 -2.3264
   80SLPC   H5S 7395   1.385   4.091   6.702 -0.2141  1.2138 -0.2913
   80SLPC   C26 7396   1.575   4.136   6.782 -0.2516 -0.4249  0.4700
   80SLPC   H6R 7397   1.540   4.238   6.806  1.4307 -0.0418  1.4346
   80SLPC   H6S 7398   1.680   4.133   6.745  0.2662  0.2067  1.8329
   80SLPC   C27 7399   1.559   4.031   6.893  0.1586 -0.4692 -0.2139
   80SLPC   H7R 7400   1.586   3.937   6.840  1.1521 -1.8686  2.5775
   80SLPC   H7S 7401   1.451   4.026   6.920  0.2498  0.4127  0.3475
   80SLPC   C28 7402   1.641   4.050   7.032 -0.0228  0.2852  0.5271
   80SLPC   H8R 7403   1.751   4.066   7.022  0.2058  1.0139  3.3482
   80SLPC   H8S 7404   1.629   3.952   7.083 -0.0271 -0.0726 -0.1443
   80SLPC   C29 7405   1.582   4.157   7.109 -0.1252 -0.1132 -0.2863
   80SLPC   H9R 7406   1.485   4.195   7.074 -0.7137 -1.5211 -0.2607
   80SLPC  C210 7407   1.646   4.223   7.204  0.0688  0.7400  1.0376
   80SLPC  H10R 7408   1.602   4.319   7.236 -1.2086  0.1342  1.1500
   80SLPC  C211 7409   1.786   4.208   7.249  0.2045 -0.3460 -0.2809
   80SLPC  H11R 7410   1.850   4.285   7.201  0.1157 -0.1219 -0.0508
   80SLPC  H11S 7411   1.831   4.110   7.227 -2.5246 -1.2910 -2.2331
   80SLPC  C212 7412   1.787   4.224   7.399  0.0893 -0.3076  0.0179
   80SLPC  H12R 7413   1.740   4.142   7.455  0.4545 -1.7796 -1.7301
   80SLPC  C213 7414   1.842   4.324   7.469  0.8594  0.7005  0.2542
   80SLPC  H13R 7415   1.812   4.325   7.575 -0.3888  0.2458 -0.0689
   80SLPC  C214 7416   1.906   4.447   7.403  0.2954  0.4376  0.6173
   80SLPC  H14R 7417   1.834   4.516   7.354 -1.9128 -1.5067  0.9670
   80SLPC  H14S 7418   1.972   4.413   7.320  0.9658  1.1087  0.8626
   80SLPC  C215 7419   2.010   4.524   7.490  0.3210 -0.1833 -0.3146
   80SLPC  H15R 7420   2.041   4.606   7.422 -0.5636  0.0055 -0.4918
   80SLPC  H15S 7421   2.102   4.463   7.505  1.4315  0.7600 -2.6881
   80SLPC  C216 7422   1.953   4.581   7.624  0.5958 -0.0525  0.3317
   80SLPC  H16R 7423   1.922   4.499   7.693 -1.0509  0.1892 -0.0907
   80SLPC  H16S 7424   1.859   4.638   7.609 -2.0727 -4.2926 -0.8095
   80SLPC  C217 7425   2.060   4.658   7.701 -0.2341  0.4050 -0.3114
   80SLPC  H17R 7426   2.092   4.736   7.629  0.2433 -1.6640 -2.4810
   80SLPC  H17S 7427   2.152   4.595   7.714 -0.9374 -0.9364 -1.4641
   80SLPC  C218 7428   2.032   4.705   7.847  0.2677 -0.1400  0.4900
   80SLPC  H18R 7429   1.949   4.779   7.852 -0.9460 -1.4776  0.9784
   80SLPC  H18S 7430   2.121   4.752   7.893 -0.9152  3.1987 -0.3642
   80SLPC  H18T 7431   2.012   4.614   7.908 -0.3922 -0.9084 -0.8312
   80SLPC   C33 7432   1.248   3.771   6.639  0.5266  0.3740  0.7456
   80SLPC   H3X 7433   1.247   3.880   6.615 -0.2862  0.0057 -1.0810
   80SLPC   H3Y 7434   1.337   3.740   6.581  0.2282  0.5858  0.1653
   80SLPC   C34 7435   1.267   3.727   6.783 -0.3700  0.3508 -0.4192
   80SLPC   H4X 7436   1.353   3.777   6.832 -0.2328  0.4697 -0.7785
   80SLPC   H4Y 7437   1.288   3.618   6.790 -0.5908  0.3814  1.2496
   80SLPC   C35 7438   1.153   3.759   6.876  0.3815  0.6257 -0.6127
   80SLPC   H5X 7439   1.050   3.725   6.851  0.4031 -0.1964  0.3308
   80SLPC   H5Y 7440   1.144   3.869   6.891 -0.2428  0.3843  1.0448
   80SLPC   C36 7441   1.168   3.710   7.026 -0.6194  0.5948  0.6907
   80SLPC   H6X 7442   1.179   3.600   7.014 -1.0922  0.6139  0.0523
   80SLPC   H6Y 7443   1.077   3.735   7.084 -0.3125 -0.4141  1.6372
   80SLPC   C37 7444   1.297   3.767   7.100 -0.0596  0.4097 -0.2022
   80SLPC   H7X 7445   1.286   3.878   7.102 -1.8274  0.2651 -0.2285
   80SLPC   H7Y 7446   1.389   3.744   7.042  1.4716  0.7455  1.9660
   80SLPC   C38 7447   1.306   3.704   7.237 -0.0989  0.1756  0.3078
   80SLPC   H8X 7448   1.327   3.597   7.220 -1.5323 -0.1653  0.6250
   80SLPC   H8Y 7449   1.206   3.727   7.279  0.3234  2.1809  0.3104
   80SLPC   C39 7450   1.411   3.771   7.321  0.5660 -0.0652 -0.0516
   80SLPC   H9X 7451   1.517   3.776   7.288  0.9992  1.2106  1.3922
   80SLPC   H9Y 7452   1.420   3.725   7.422  1.0272 -1.4518 -0.6954
   80SLPC  C310 7453   1.373   3.917   7.353 -1.0584 -0.3635  0.2631
   80SLPC  H10X 7454   1.273   3.918   7.402 -1.3455 -0.5607 -0.3084
   80SLPC  H10Y 7455   1.362   3.982   7.264  0.1617  0.2867  0.5683
   80SLPC  C311 7456   1.485   3.975   7.446  0.0113  0.5402 -0.0633
   80SLPC  H11X 7457   1.499   4.085   7.438 -1.6643  0.9016  1.3506
   80SLPC  H11Y 7458   1.575   3.912   7.429  0.1450 -0.2009  2.8368
   80SLPC  C312 7459   1.455   3.958   7.602  0.4209  0.3097  0.1560
   80SLPC  H12X 7460   1.549   3.972   7.660  0.6128 -0.2875 -0.0070
   80SLPC  H12Y 7461   1.447   3.849   7.617 -1.5971  0.0725 -2.1068
   80SLPC  C313 7462   1.336   4.021   7.652 -0.0639 -0.0172  0.7331
   80SLPC  H13X 7463   1.248   4.012   7.585  1.5469  2.7073 -2.0428
   80SLPC  H13Y 7464   1.354   4.130   7.666 -1.3296  0.1946  0.8700
   80SLPC  C314 7465   1.301   3.966   7.794  0.2173 -0.0064  0.1212
   80SLPC  H14X 7466   1.283   3.857   7.804 -0.8918 -0.2391 -3.2290
   80SLPC  H14Y 7467   1.194   3.996   7.808  0.0122  0.5045 -2.2004
   80SLPC  C315 7468   1.380   4.035   7.905 -0.1192  0.1454 -0.2520
   80SLPC  H15X 7469   1.371   4.144   7.889 -0.9044  0.0042 -0.8550
   80SLPC  H15Y 7470   1.489   4.014   7.911  0.0301  1.0384  0.3845
   80SLPC  C316 7471   1.344   4.005   8.049  0.1020 -0.9644  0.2298
   80SLPC  H16X 7472   1.381   3.902   8.068  0.8816 -1.0686 -1.6529
   80SLPC  H16Y 7473   1.236   4.020   8.067 -0.0022 -0.9326 -0.4005
   80SLPC  C317 7474   1.445   4.083   8.143  0.2408 -0.0369 -0.2127
   80SLPC  H17X 7475   1.439   4.192   8.162  0.3385 -0.1967  0.7964
   80SLPC  H17Y 7476   1.549   4.059   8.112  0.5378 -0.2840  0.9345
   80SLPC  C318 7477   1.442   4.032   8.292 -0.0989  0.6159  0.2255
   80SLPC  H18X 7478   1.525   4.072   8.353 -0.2419 -1.4204  1.8413
   80SLPC  H18Y 7479   1.455   3.922   8.300  0.6003  0.8022  2.0033
   80SLPC  H18Z 7480   1.344   4.071   8.325 -0.8779 -0.8631 -0.2260
   81SAPS     N 7481   5.462   2.277  10.635 -0.7557  0.9704 -0.2204
   81SAPS   HN1 7482   5.517   2.210  10.578 -0.4975  0.9751  0.0177
   81SAPS   HN2 7483   5.403   2.334  10.572  1.3119  2.0325 -1.2877
   81SAPS   HN3 7484   5.519   2.349  10.684 -0.5638 -0.0688  1.1256
   81SAPS   C12 7485   5.360   2.209  10.721 -0.0607  0.1923 -0.3247
   81SAPS  H12A 7486   5.410   2.127  10.770 -0.0537 -0.3421 -1.1920
   81SAPS   C13 7487   5.298   2.292  10.840  0.0739  0.4552  0.2299
   81SAPS  O13A 7488   5.357   2.398  10.872 -0.1347 -0.1338  0.4306
   81SAPS  O13B 7489   5.216   2.229  10.917 -0.7942 -0.1779 -0.6427
   81SAPS   C11 7490   5.259   2.143  10.623  0.3913  0.0771  0.1463
   81SAPS  H11A 7491   5.197   2.067  10.676 -0.6925  0.0759 -1.0611
   81SAPS  H11B 7492   5.315   2.083  10.548 -1.9664  0.1128 -1.8188
   81SAPS     P 7493   5.034   2.277  10.547 -0.5225  0.1219 -0.7253
   81SAPS   O13 7494   4.958   2.199  10.647 -0.3308 -0.3184 -0.2588
   81SAPS   O14 7495   5.016   2.424  10.553  0.5062 -0.2836 -0.1732
   81SAPS   O12 7496   5.184   2.238  10.549  0.2993 -0.0834  0.0432
   81SAPS   O11 7497   4.981   2.209  10.410 -0.4106 -0.8454  0.1941
   81SAPS    C1 7498   5.079   2.172  10.318  0.2405 -0.2064 -0.0119
   81SAPS    HA 7499   5.172   2.232  10.328  0.6464 -1.0454  1.5622
   81SAPS    HB 7500   5.113   2.069  10.342  0.0683 -0.3599 -0.4228
   81SAPS    C2 7501   5.025   2.168  10.169 -0.0313 -0.0088  0.5728
   81SAPS    HS 7502   5.105   2.204  10.100 -2.1143  0.3788 -1.7617
   81SAPS   O21 7503   4.902   2.248  10.158  0.0638 -0.0265 -0.1268
   81SAPS   C21 7504   4.928   2.379  10.176  0.5010 -0.0658 -0.0646
   81SAPS   O22 7505   5.034   2.430  10.205  0.0477 -0.3543  0.0179
   81SAPS   C22 7506   4.798   2.471  10.160  0.2925  0.2469  1.1097
   81SAPS   H2R 7507   4.725   2.446  10.240  0.3741 -2.1432  0.5069
   81SAPS   H2S 7508   4.830   2.577  10.166 -2.1513  1.0129  1.8596
   81SAPS    C3 7509   4.987   2.022  10.133 -0.1699  0.1478 -0.2640
   81SAPS    HX 7510   4.906   1.991  10.203  1.4303 -0.9769  1.1747
   81SAPS    HY 7511   5.071   1.950  10.141  0.6155  0.7733 -2.2577
   81SAPS   O31 7512   4.929   2.018  10.004 -0.8387  0.0407 -0.0801
   81SAPS   C31 7513   5.019   2.018   9.905  0.4288 -0.1413  0.1589
   81SAPS   O32 7514   5.138   2.046   9.918  0.2433 -0.3172 -0.6353
   81SAPS   C32 7515   4.951   1.989   9.769  0.2144 -0.1883  0.3770
   81SAPS   H2X 7516   4.847   2.027   9.774 -0.1768 -1.1392 -0.2384
   81SAPS   H2Y 7517   4.932   1.880   9.754 -1.7813  0.0486  0.9102
   81SAPS   C23 7518   4.725   2.436  10.020  0.0800  0.5190 -0.1749
   81SAPS   H3R 7519   4.666   2.343  10.031 -2.1402  2.0681  2.0574
   81SAPS   H3S 7520   4.801   2.430   9.939 -0.5710 -1.8030 -0.6884
   81SAPS   C24 7521   4.625   2.544   9.986  0.4982  0.3616  0.7139
   81SAPS   H4R 7522   4.553   2.556  10.069 -0.1205 -0.1651  0.2641
   81SAPS   H4S 7523   4.573   2.503   9.897 -0.0775 -0.8499  1.5771
   81SAPS   C25 7524   4.685   2.681   9.955  0.6334 -0.0122 -1.7416
   81SAPS   H5R 7525   4.708   2.742  10.044 -2.5109 -2.0441  0.7044
   81SAPS   C26 7526   4.712   2.720   9.828  0.0613  0.9377 -0.3800
   81SAPS   H6R 7527   4.762   2.817   9.820  0.7654  0.5894 -0.2535
   81SAPS   C27 7528   4.694   2.637   9.707  0.3796 -0.1081  0.1442
   81SAPS   H7R 7529   4.584   2.624   9.700  0.2439  0.4610  1.0443
   81SAPS   H7S 7530   4.750   2.543   9.728  1.2192  0.7882  2.1795
   81SAPS   C28 7531   4.746   2.702   9.579  0.1324 -0.3056 -0.6766
   81SAPS   H8R 7532   4.740   2.811   9.565  0.2596 -0.7222 -5.6210
   81SAPS   C29 7533   4.790   2.628   9.473  0.5405  0.3375 -0.3800
   81SAPS   H9R 7534   4.804   2.684   9.379 -0.9884 -0.1213 -0.9124
   81SAPS  C210 7535   4.787   2.481   9.455 -1.0575 -0.3626 -0.2646
   81SAPS  H10R 7536   4.734   2.436   9.542 -2.3758 -1.9575 -1.8215
   81SAPS  H10S 7537   4.892   2.448   9.472 -0.8123  0.1129 -0.8276
   81SAPS  C211 7538   4.727   2.423   9.332  0.3178  0.5851  0.2507
   81SAPS  H11R 7539   4.645   2.356   9.362 -0.8593  1.4368 -0.9007
   81SAPS  C212 7540   4.770   2.425   9.205 -0.1291  0.7514 -0.0118
   81SAPS  H12R 7541   4.700   2.384   9.130 -1.3290  1.9303  0.4201
   81SAPS  C213 7542   4.900   2.484   9.159  0.3313 -0.3459 -0.0938
   81SAPS  H13R 7543   4.962   2.418   9.094  1.1600  0.8711 -0.5793
   81SAPS  H13S 7544   4.960   2.511   9.249  1.5693 -0.6622 -0.8048
   81SAPS  C214 7545   4.880   2.614   9.068  0.2569 -0.1994 -1.3389
   81SAPS  H14R 7546   4.828   2.692   9.126 -0.1101 -0.3728 -1.4263
   81SAPS  C215 7547   4.917   2.622   8.946 -0.5554 -0.0261  0.3412
   81SAPS  H15R 7548   4.911   2.719   8.895 -3.1451 -0.2654  0.0227
   81SAPS  C216 7549   4.975   2.511   8.864  0.3393  0.0518  0.0832
   81SAPS  H16R 7550   4.913   2.420   8.877  0.6942 -0.1263  0.5491
   81SAPS  H16S 7551   5.076   2.482   8.900 -0.6755 -1.1647  2.1517
   81SAPS  C217 7552   4.980   2.548   8.716 -0.1465 -1.4902 -0.2758
   81SAPS  H17R 7553   5.054   2.487   8.661  1.5865 -0.0323  0.3554
   81SAPS  H17S 7554   5.038   2.642   8.705 -1.5937 -0.6439 -1.1215
   81SAPS  C218 7555   4.848   2.540   8.644  0.0037  0.2130  1.0018
   81SAPS  H18R 7556   4.855   2.607   8.555 -0.9803 -0.4881  0.3773
   81SAPS  H18S 7557   4.765   2.580   8.706 -1.7120 -0.9871 -0.4092
   81SAPS  C219 7558   4.809   2.398   8.611 -0.2302  0.5303  0.5540
   81SAPS  H19R 7559   4.802   2.340   8.705  0.9366  0.3482  0.5378
   81SAPS  H19S 7560   4.900   2.371   8.552  0.9553  1.5044  1.8764
   81SAPS  C220 7561   4.684   2.368   8.516 -0.3436 -0.6307  0.1819
   81SAPS  H20R 7562   4.595   2.387   8.580  0.8250  2.7165  1.0324
   81SAPS  H20S 7563   4.694   2.264   8.478 -0.7201 -0.4879 -0.3255
   81SAPS  H20T 7564   4.680   2.441   8.433 -2.3149 -2.3523 -1.3609
   81SAPS   C33 7565   5.019   2.054   9.644 -0.5952 -0.3722 -0.7009
   81SAPS   H3X 7566   5.122   2.013   9.631  0.0451  1.2901 -1.0829
   81SAPS   H3Y 7567   5.037   2.163   9.643  2.2213 -0.7572 -1.7005
   81SAPS   C34 7568   4.950   2.010   9.518 -0.3225  0.5441  0.4387
   81SAPS   H4X 7569   4.856   2.065   9.498  1.4663  2.5983 -3.2502
   81SAPS   H4Y 7570   4.919   1.903   9.523 -1.9394  0.9128 -0.8021
   81SAPS   C35 7571   5.039   2.043   9.398 -0.2690  0.5701  0.5760
   81SAPS   H5X 7572   5.144   2.018   9.424 -0.3166  0.9349  1.1253
   81SAPS   H5Y 7573   5.042   2.152   9.378  1.4332  0.1524 -1.9239
   81SAPS   C36 7574   4.978   1.982   9.269  0.1950 -0.5024  0.0948
   81SAPS   H6X 7575   4.868   1.998   9.276  0.0283 -1.4532 -0.2079
   81SAPS   H6Y 7576   4.984   1.871   9.267  1.3067 -0.4430 -0.7020
   81SAPS   C37 7577   5.037   2.048   9.142  0.0975 -0.4584  0.6127
   81SAPS   H7X 7578   5.142   2.017   9.122  0.2260  1.1866 -1.6792
   81SAPS   H7Y 7579   5.035   2.159   9.149 -2.7822 -0.1907 -2.0980
   81SAPS   C38 7580   4.954   2.002   9.015 -0.3706  0.5261 -0.6816
   81SAPS   H8X 7581   4.851   2.015   9.053 -0.1621 -0.3914  0.2690
   81SAPS   H8Y 7582   4.973   1.895   8.991 -3.3357 -0.5152  1.0047
   81SAPS   C39 7583   4.973   2.084   8.890  0.1775  0.2567 -0.0277
   81SAPS   H9X 7584   4.939   2.187   8.913 -0.2592  0.0316  0.3594
   81SAPS   H9Y 7585   4.906   2.046   8.811 -0.2572 -2.8544  1.6693
   81SAPS  C310 7586   5.115   2.094   8.842  0.0154  0.3488  0.1798
   81SAPS  H10X 7587   5.151   2.003   8.790 -0.4732 -0.5484  1.3771
   81SAPS  H10Y 7588   5.185   2.121   8.923  0.5750  1.0121 -0.5100
   81SAPS  C311 7589   5.131   2.200   8.735 -0.0353  0.0672  0.0900
   81SAPS  H11X 7590   5.113   2.301   8.777 -0.1176 -0.1680  0.6212
   81SAPS  H11Y 7591   5.054   2.188   8.655  1.1241  3.3833 -1.7359
   81SAPS  C312 7592   5.267   2.199   8.669  0.1432  0.2235 -0.5926
   81SAPS  H12X 7593   5.274   2.096   8.628 -0.8849  0.3486 -1.1221
   81SAPS  H12Y 7594   5.338   2.216   8.752  1.2688  1.3554 -1.7473
   81SAPS  C313 7595   5.291   2.300   8.556  0.1195  0.0984  0.8152
   81SAPS  H13X 7596   5.271   2.407   8.579 -0.8458  0.5686 -1.7991
   81SAPS  H13Y 7597   5.221   2.295   8.469  0.7317  1.0503  0.2509
   81SAPS  C314 7598   5.431   2.278   8.507  0.1464 -1.4106 -0.3608
   81SAPS  H14X 7599   5.456   2.350   8.426  1.4938  2.1552  2.9187
   81SAPS  H14Y 7600   5.442   2.176   8.465  0.8713 -1.4308 -0.1328
   81SAPS  C315 7601   5.540   2.299   8.615  0.5044 -0.1924 -0.2525
   81SAPS  H15X 7602   5.530   2.222   8.693  2.3025  0.4434  0.6590
   81SAPS  H15Y 7603   5.535   2.401   8.660  0.7577 -0.8042  1.2117
   81SAPS  C316 7604   5.678   2.260   8.565  0.1290  0.0755 -0.1178
   81SAPS  H16X 7605   5.711   2.326   8.482 -1.1772  0.4515 -0.3518
   81SAPS  H16Y 7606   5.677   2.153   8.534  0.6016  0.1258 -0.3262
   81SAPS  C317 7607   5.779   2.274   8.671  0.8765  0.0751  0.1469
   81SAPS  H17X 7608   5.729   2.237   8.763 -1.0519  1.2894 -0.3510
   81SAPS  H17Y 7609   5.795   2.383   8.690 -0.1430  0.2513  0.0509
   81SAPS  C318 7610   5.912   2.207   8.642  0.0889  0.2426 -0.7065
   81SAPS  H18X 7611   5.899   2.097   8.639 -0.0543  0.2626 -2.6898
   81SAPS  H18Y 7612   5.979   2.222   8.729 -0.3855 -0.6642 -0.1734
   81SAPS  H18Z 7613   5.963   2.229   8.545 -1.2580 -0.7162 -1.6723
   82SAPS     N 7614   3.646   2.183  10.537 -0.8569  0.8219  0.1453
   82SAPS   HN1 7615   3.667   2.092  10.490  0.2932 -0.5519  3.0814
   82SAPS   HN2 7616   3.624   2.252  10.462 -1.5372  0.2300 -0.2134
   82SAPS   HN3 7617   3.732   2.218  10.584 -0.8334  0.1778  0.5967
   82SAPS   C12 7618   3.542   2.148  10.627 -0.9861  0.1112  0.7376
   82SAPS  H12A 7619   3.589   2.132  10.723  1.6028  2.2896 -0.0530
   82SAPS   C13 7620   3.437   2.256  10.661 -0.5325 -0.2134  0.8230
   82SAPS  O13A 7621   3.447   2.371  10.610 -0.5944  0.1021 -0.0015
   82SAPS  O13B 7622   3.353   2.225  10.748 -0.5796 -0.5554  0.0979
   82SAPS   C11 7623   3.477   2.032  10.551 -0.2127 -0.4715  1.1606
   82SAPS  H11A 7624   3.448   2.070  10.451 -0.5674 -0.0129  1.4296
   82SAPS  H11B 7625   3.384   2.016  10.611 -1.8340  0.0895 -1.0934
   82SAPS     P 7626   3.482   1.783  10.471  0.0358 -0.1604 -0.2920
   82SAPS   O13 7627   3.584   1.690  10.414 -0.3183  0.4452  0.3263
   82SAPS   O14 7628   3.393   1.728  10.576 -0.1746 -0.2416  0.5363
   82SAPS   O12 7629   3.554   1.914  10.520  0.6869 -0.0942  0.3290
   82SAPS   O11 7630   3.377   1.826  10.357  0.3367  0.0036  0.0587
   82SAPS    C1 7631   3.287   1.731  10.296 -0.7059 -0.4174 -0.2517
   82SAPS    HA 7632   3.207   1.707  10.369 -2.1693  0.0961 -1.6438
   82SAPS    HB 7633   3.256   1.778  10.201 -1.5125  1.0066  0.6735
   82SAPS    C2 7634   3.348   1.591  10.258 -0.0553  0.6328  0.4146
   82SAPS    HS 7635   3.401   1.556  10.349 -1.2337  0.1215  0.9319
   82SAPS   O21 7636   3.441   1.613  10.152 -0.1386  0.2305 -0.4383
   82SAPS   C21 7637   3.526   1.513  10.127 -0.1840 -0.6431 -1.0016
   82SAPS   O22 7638   3.527   1.407  10.191 -0.2642  0.0800  0.1530
   82SAPS   C22 7639   3.602   1.547   9.999  1.0872  0.0969  0.1280
   82SAPS   H2R 7640   3.537   1.622   9.949 -0.6149 -0.1472  1.8228
   82SAPS   H2S 7641   3.701   1.592  10.025  1.3072 -0.8880  1.0726
   82SAPS    C3 7642   3.237   1.488  10.207 -0.4548 -0.0994 -0.2606
   82SAPS    HX 7643   3.161   1.468  10.286  0.5382  0.4975  0.8848
   82SAPS    HY 7644   3.294   1.394  10.189  2.1065  0.9611  1.6326
   82SAPS   O31 7645   3.166   1.540  10.095 -0.1969  0.1556 -0.8184
   82SAPS   C31 7646   3.194   1.484   9.978 -0.0407 -0.7331  0.5267
   82SAPS   O32 7647   3.265   1.390   9.966  0.1070  0.0763  0.2883
   82SAPS   C32 7648   3.109   1.552   9.870 -0.0331 -0.4566 -0.1095
   82SAPS   H2X 7649   3.076   1.657   9.882 -0.4193 -0.4160 -1.3311
   82SAPS   H2Y 7650   3.010   1.508   9.842 -0.3868  0.2645 -0.0102
   82SAPS   C23 7651   3.605   1.428   9.908  0.6702  0.5681  0.6211
   82SAPS   H3R 7652   3.511   1.368   9.902  0.6343  0.6465  0.3769
   82SAPS   H3S 7653   3.692   1.368   9.942  0.4681  0.6381  1.2874
   82SAPS   C24 7654   3.622   1.465   9.761  0.2141 -0.0805  0.4982
   82SAPS   H4R 7655   3.686   1.556   9.762  0.2795 -0.1202  1.8082
   82SAPS   H4S 7656   3.529   1.499   9.711  0.4896 -0.6091 -0.4055
   82SAPS   C25 7657   3.700   1.365   9.673  0.4691 -0.0915  0.2924
   82SAPS   H5R 7658   3.766   1.296   9.728  0.5351  1.1397  1.8295
   82SAPS   C26 7659   3.699   1.337   9.540 -0.0921  0.2751 -0.2149
   82SAPS   H6R 7660   3.775   1.271   9.497 -0.0781  0.9973 -1.3496
   82SAPS   C27 7661   3.610   1.413   9.447 -0.1834  0.1805  0.2128
   82SAPS   H7R 7662   3.673   1.419   9.355  0.8296 -0.8326  0.8218
   82SAPS   H7S 7663   3.592   1.520   9.472  1.3872  0.2593  1.1228
   82SAPS   C28 7664   3.477   1.341   9.408 -0.1752  0.5809  0.3045
   82SAPS   H8R 7665   3.421   1.283   9.483 -2.2186  0.3801 -1.2816
   82SAPS   C29 7666   3.410   1.356   9.291 -0.5381 -0.1692 -0.4637
   82SAPS   H9R 7667   3.314   1.302   9.290 -0.5462 -0.3722  2.8172
   82SAPS  C210 7668   3.463   1.434   9.168  0.0602 -0.0857  0.8143
   82SAPS  H10R 7669   3.485   1.535   9.209  0.3585  0.2313 -0.0831
   82SAPS  H10S 7670   3.376   1.446   9.100 -1.2372 -0.4007  2.3782
   82SAPS  C211 7671   3.584   1.378   9.094 -0.8498  0.0132 -1.0454
   82SAPS  H11R 7672   3.646   1.315   9.159  0.1029  3.0618  1.2136
   82SAPS  C212 7673   3.608   1.405   8.962 -0.6082  0.6603  0.1161
   82SAPS  H12R 7674   3.700   1.360   8.921 -0.7097 -0.5629  1.1474
   82SAPS  C213 7675   3.516   1.479   8.865 -0.2890 -0.0119  0.3521
   82SAPS  H13R 7676   3.474   1.561   8.927 -0.0665  0.7596 -0.5039
   82SAPS  H13S 7677   3.426   1.429   8.824 -0.8205  2.9462 -2.4932
   82SAPS  C214 7678   3.583   1.545   8.744  0.2081  0.1288 -0.3343
   82SAPS  H14R 7679   3.687   1.580   8.754  0.3373  0.2596 -1.9233
   82SAPS  C215 7680   3.530   1.589   8.630  0.0655 -0.3742 -0.1103
   82SAPS  H15R 7681   3.581   1.648   8.553 -1.2718 -0.0853 -0.8061
   82SAPS  C216 7682   3.389   1.556   8.590  0.4187 -0.6698  0.3876
   82SAPS  H16R 7683   3.316   1.629   8.632 -1.0287 -1.9086  0.1365
   82SAPS  H16S 7684   3.352   1.453   8.613 -2.2871 -0.1892 -1.2841
   82SAPS  C217 7685   3.373   1.553   8.431 -0.1837  0.1037 -0.3495
   82SAPS  H17R 7686   3.428   1.478   8.371 -2.1832 -0.8677 -1.0504
   82SAPS  H17S 7687   3.411   1.652   8.397  1.2910 -0.5866 -0.7810
   82SAPS  C218 7688   3.231   1.528   8.383 -0.2056  0.2349 -0.3442
   82SAPS  H18R 7689   3.160   1.590   8.441  0.2415 -0.4194  0.9479
   82SAPS  H18S 7690   3.203   1.421   8.391 -0.1181  0.2481  0.1154
   82SAPS  C219 7691   3.231   1.577   8.239  0.5182  0.1987 -0.0692
   82SAPS  H19R 7692   3.256   1.685   8.248  1.2499  0.2858 -2.5630
   82SAPS  H19S 7693   3.125   1.584   8.204 -0.3231  2.1957  2.5201
   82SAPS  C220 7694   3.321   1.513   8.135 -0.2659  0.3642  0.1599
   82SAPS  H20R 7695   3.319   1.403   8.146  2.1792  0.1635 -0.9622
   82SAPS  H20S 7696   3.424   1.549   8.154 -1.5709  4.2261  0.8129
   82SAPS  H20T 7697   3.300   1.539   8.029 -1.1916 -0.0538  0.2313
   82SAPS   C33 7698   3.187   1.549   9.738 -0.0928  0.2256  0.4683
   82SAPS   H3X 7699   3.228   1.447   9.731  0.0013  0.2991 -0.1025
   82SAPS   H3Y 7700   3.274   1.618   9.748 -0.1236  0.2956  0.2819
   82SAPS   C34 7701   3.094   1.588   9.620 -0.0183 -0.0412  0.3164
   82SAPS   H4X 7702   3.065   1.692   9.645  3.1343  1.3877 -1.3848
   82SAPS   H4Y 7703   3.003   1.524   9.612  1.0958 -2.0204  2.3298
   82SAPS   C35 7704   3.178   1.586   9.491 -0.3730  0.3166  0.2042
   82SAPS   H5X 7705   3.220   1.485   9.471 -0.2675  0.6628 -1.4470
   82SAPS   H5Y 7706   3.261   1.658   9.507 -0.8105  0.6846  0.8548
   82SAPS   C36 7707   3.087   1.626   9.368  0.2101 -0.3267  0.1438
   82SAPS   H6X 7708   3.032   1.720   9.389  0.8047  0.2300 -0.7027
   82SAPS   H6Y 7709   3.018   1.540   9.358  0.9515 -1.1369  1.5863
   82SAPS   C37 7710   3.169   1.622   9.244 -0.9294 -0.3269  0.0042
   82SAPS   H7X 7711   3.194   1.516   9.220  0.1675 -0.2853  0.8443
   82SAPS   H7Y 7712   3.261   1.681   9.264 -0.3795 -0.5828 -1.6579
   82SAPS   C38 7713   3.101   1.678   9.118 -0.4101  0.5714 -0.3036
   82SAPS   H8X 7714   3.107   1.789   9.116  0.4746  0.5517  0.7817
   82SAPS   H8Y 7715   2.996   1.642   9.110 -0.6901  1.5141 -1.0494
   82SAPS   C39 7716   3.178   1.631   8.990 -0.4312 -0.5953 -0.3716
   82SAPS   H9X 7717   3.183   1.520   8.989  0.1549 -0.6890  2.5987
   82SAPS   H9Y 7718   3.285   1.660   9.002 -1.1860  2.8819 -1.1414
   82SAPS  C310 7719   3.122   1.671   8.854  0.2944 -0.4669  0.0105
   82SAPS  H10X 7720   3.198   1.647   8.776 -1.7157 -0.4801 -2.0563
   82SAPS  H10Y 7721   3.095   1.778   8.856  0.9919 -0.3003  1.4295
   82SAPS  C311 7722   2.999   1.596   8.814 -0.0202 -0.4694  0.3778
   82SAPS  H11X 7723   2.966   1.656   8.727  0.0641  2.0253  1.9625
   82SAPS  H11Y 7724   2.905   1.597   8.873  0.3995 -0.8157  1.0699
   82SAPS  C312 7725   3.044   1.456   8.764  0.0313  1.0045  0.2532
   82SAPS  H12X 7726   3.053   1.394   8.856  2.2117  0.0002 -0.5595
   82SAPS  H12Y 7727   3.141   1.448   8.711 -0.0185 -0.5244  0.3282
   82SAPS  C313 7728   2.930   1.404   8.663 -0.6974 -0.0249 -0.4044
   82SAPS  H13X 7729   2.928   1.459   8.567 -0.1330  0.4772 -0.1444
   82SAPS  H13Y 7730   2.827   1.410   8.703 -0.1333  0.4175  1.0924
   82SAPS  C314 7731   2.947   1.258   8.627  0.6567  0.3204 -0.1971
   82SAPS  H14X 7732   2.969   1.196   8.716 -0.0224 -0.3099 -0.4563
   82SAPS  H14Y 7733   3.024   1.230   8.553 -0.4154 -1.2919 -0.7488
   82SAPS  C315 7734   2.817   1.208   8.557  0.4108  0.0084  0.6504
   82SAPS  H15X 7735   2.796   1.261   8.462  0.3411 -3.8416 -1.7213
   82SAPS  H15Y 7736   2.736   1.230   8.631 -2.1811  1.6457 -2.4166
   82SAPS  C316 7737   2.816   1.054   8.528  0.4137  0.0736  0.4114
   82SAPS  H16X 7738   2.858   1.003   8.616  0.9602  0.9840  0.6925
   82SAPS  H16Y 7739   2.872   1.025   8.437  0.6505  2.4740 -0.2798
   82SAPS  C317 7740   2.666   1.001   8.524 -0.1956  0.6682 -0.3703
   82SAPS  H17X 7741   2.603   1.058   8.454  0.5278  2.3877  0.3345
   82SAPS  H17Y 7742   2.613   1.016   8.620  0.6900  1.2467  0.0390
   82SAPS  C318 7743   2.660   0.846   8.491  0.1528  0.1385 -0.5937
   82SAPS  H18X 7744   2.729   0.806   8.413  1.2472 -1.1083  0.9369
   82SAPS  H18Y 7745   2.555   0.814   8.472 -0.4927 -0.9876  3.7525
   82SAPS  H18Z 7746   2.695   0.781   8.575 -1.6163 -0.8471 -0.5792
   83SAPS     N 7747   4.703   5.430  10.417  0.4430  0.9145  0.1318
   83SAPS   HN1 7748   4.720   5.370  10.334  0.1797  0.1085  0.6513
   83SAPS   HN2 7749   4.649   5.512  10.385 -0.3145  0.3971  0.0514
   83SAPS   HN3 7750   4.803   5.449  10.440  1.2429 -0.7657 -1.6561
   83SAPS   C12 7751   4.618   5.352  10.516 -0.3859 -0.0334 -0.3509
   83SAPS  H12A 7752   4.531   5.317  10.461 -0.4043 -2.3804  1.0167
   83SAPS   C13 7753   4.674   5.214  10.562  0.4220  0.2426  0.0142
   83SAPS  O13A 7754   4.787   5.178  10.525 -0.5302  0.4097  0.4628
   83SAPS  O13B 7755   4.602   5.139  10.634 -0.0439 -0.3817  0.1772
   83SAPS   C11 7756   4.583   5.448  10.639 -0.5743  0.0804 -0.0724
   83SAPS  H11A 7757   4.678   5.467  10.693 -0.0343 -1.0122 -0.6030
   83SAPS  H11B 7758   4.503   5.399  10.698  0.5449 -0.0597  1.3947
   83SAPS     P 7759   4.417   5.652  10.626 -0.3078 -0.0479  0.4878
   83SAPS   O13 7760   4.374   5.613  10.763  0.1753 -0.0265  0.2760
   83SAPS   O14 7761   4.441   5.796  10.605 -0.1451  0.4528  0.7737
   83SAPS   O12 7762   4.542   5.577  10.589  0.3352  0.6873 -0.4455
   83SAPS   O11 7763   4.305   5.595  10.536 -0.1807  0.3489 -0.4880
   83SAPS    C1 7764   4.187   5.668  10.503  0.5371 -0.2289 -0.8841
   83SAPS    HA 7765   4.100   5.600  10.515 -1.0665  1.8907  0.1190
   83SAPS    HB 7766   4.167   5.763  10.558  0.3902  0.2667 -1.7759
   83SAPS    C2 7767   4.181   5.722  10.357 -0.5817 -0.2373  0.0597
   83SAPS    HS 7768   4.262   5.798  10.352 -0.7622  0.2552  3.0288
   83SAPS   O21 7769   4.052   5.787  10.337 -0.0307 -0.0841  0.2167
   83SAPS   C21 7770   4.044   5.909  10.373  1.2720 -0.0560 -0.0427
   83SAPS   O22 7771   4.129   5.980  10.422 -0.1710 -0.1073 -0.2556
   83SAPS   C22 7772   3.901   5.954  10.362  1.4317  0.4840  0.7683
   83SAPS   H2R 7773   3.828   5.871  10.360  4.0627 -1.9795 -1.1050
   83SAPS   H2S 7774   3.885   6.022  10.448  1.4902 -1.2028  2.1640
   83SAPS    C3 7775   4.199   5.612  10.247 -0.5763  0.2048  0.1931
   83SAPS    HX 7776   4.137   5.528  10.286  2.1330 -0.8086  2.6629
   83SAPS    HY 7777   4.308   5.591  10.253 -0.8568 -1.6377 -0.3747
   83SAPS   O31 7778   4.155   5.660  10.117 -0.4755 -0.7161  0.3315
   83SAPS   C31 7779   4.203   5.576  10.023 -0.5306 -0.4089  0.3465
   83SAPS   O32 7780   4.263   5.476  10.056  0.4499  0.2459 -0.3788
   83SAPS   C32 7781   4.180   5.618   9.881 -0.1564 -0.3800  0.6472
   83SAPS   H2X 7782   4.139   5.533   9.823  1.2285 -0.3344 -0.4455
   83SAPS   H2Y 7783   4.280   5.643   9.840  0.0260 -1.9416  0.0666
   83SAPS   C23 7784   3.880   6.036  10.230 -0.2344  0.2801  0.4790
   83SAPS   H3R 7785   3.955   6.116  10.247  1.2647 -1.2492  1.3498
   83SAPS   H3S 7786   3.783   6.089  10.224  0.3185  1.2230 -4.4041
   83SAPS   C24 7787   3.902   5.965  10.087  0.2210 -0.2624  0.3138
   83SAPS   H4R 7788   4.005   5.925  10.082  0.2619 -0.3635  1.7175
   83SAPS   H4S 7789   3.893   6.045  10.010 -1.3587  1.1704  1.9013
   83SAPS   C25 7790   3.809   5.855  10.058 -0.3123 -0.1937 -0.1104
   83SAPS   H5R 7791   3.821   5.769  10.124 -1.1699 -0.2516 -0.0163
   83SAPS   C26 7792   3.724   5.845   9.951  0.6105  0.0509  0.1733
   83SAPS   H6R 7793   3.660   5.756   9.942 -1.9694  1.5928  1.9050
   83SAPS   C27 7794   3.719   5.944   9.836 -0.9692 -0.1990 -0.2547
   83SAPS   H7R 7795   3.667   5.896   9.751  0.4376  0.8964 -1.8167
   83SAPS   H7S 7796   3.824   5.964   9.804 -0.6884  1.1129  1.3366
   83SAPS   C28 7797   3.643   6.078   9.863  0.3365  0.8027  0.5840
   83SAPS   H8R 7798   3.647   6.100   9.971 -0.7971 -0.5199  0.9266
   83SAPS   C29 7799   3.566   6.162   9.784  0.0455 -0.2247 -0.0969
   83SAPS   H9R 7800   3.510   6.239   9.838  1.7937  1.0052  0.0464
   83SAPS  C210 7801   3.548   6.148   9.634  0.4742  0.5728 -0.7553
   83SAPS  H10R 7802   3.626   6.081   9.593 -0.9111 -1.3558 -0.3779
   83SAPS  H10S 7803   3.561   6.242   9.576  1.2662  0.8054 -0.2113
   83SAPS  C211 7804   3.409   6.089   9.598  0.0240 -0.2782 -0.7009
   83SAPS  H11R 7805   3.326   6.122   9.663 -0.1426  2.9132 -2.3136
   83SAPS  C212 7806   3.389   6.012   9.490 -0.4751  0.2740 -0.3509
   83SAPS  H12R 7807   3.284   5.989   9.469 -0.8808  1.7303  0.0056
   83SAPS  C213 7808   3.479   5.967   9.378 -0.3528  0.0048 -0.2494
   83SAPS  H13R 7809   3.575   6.024   9.373 -1.1941  1.4153 -0.8716
   83SAPS  H13S 7810   3.414   5.993   9.292 -1.1109  0.0043  0.3087
   83SAPS  C214 7811   3.504   5.815   9.384 -0.6080  0.1384 -0.4055
   83SAPS  H14R 7812   3.605   5.787   9.419 -0.4998 -0.5560 -1.2232
   83SAPS  C215 7813   3.420   5.717   9.343  0.1094 -0.1526 -1.2768
   83SAPS  H15R 7814   3.454   5.619   9.378  0.4378  0.3231 -0.2199
   83SAPS  C216 7815   3.277   5.723   9.299  0.4140  0.5431  0.0624
   83SAPS  H16R 7816   3.240   5.826   9.317  1.7479  0.5683  3.3428
   83SAPS  H16S 7817   3.207   5.654   9.353 -0.1339  0.7240 -0.4023
   83SAPS  C217 7818   3.276   5.673   9.149  0.5321  0.6405  0.3474
   83SAPS  H17R 7819   3.310   5.568   9.157 -1.8622 -0.2142  0.0949
   83SAPS  H17S 7820   3.356   5.725   9.092  0.6582 -0.1405 -0.2070
   83SAPS  C218 7821   3.154   5.691   9.065  0.2229 -0.1680  0.2087
   83SAPS  H18R 7822   3.190   5.740   8.972 -0.4804  1.1465  0.5969
   83SAPS  H18S 7823   3.079   5.754   9.118 -0.6225 -1.0642  0.1117
   83SAPS  C219 7824   3.077   5.568   9.034 -0.1502 -0.3530 -0.0251
   83SAPS  H19R 7825   3.000   5.599   8.961  0.9668  0.8344 -0.7262
   83SAPS  H19S 7826   3.019   5.550   9.127  0.0649  1.4704  0.5004
   83SAPS  C220 7827   3.142   5.443   8.996  0.2663  0.1075 -0.0005
   83SAPS  H20R 7828   3.064   5.367   8.976 -0.2994  0.7598 -0.2963
   83SAPS  H20S 7829   3.209   5.401   9.074  2.7324 -1.4757 -2.7120
   83SAPS  H20T 7830   3.209   5.462   8.909 -0.8361 -1.2515 -1.1994
   83SAPS   C33 7831   4.081   5.738   9.862  0.0183 -0.6326  0.1611
   83SAPS   H3X 7832   4.119   5.811   9.936  1.3320 -3.1120  2.0841
   83SAPS   H3Y 7833   3.980   5.720   9.905 -0.1455  0.4597  0.2661
   83SAPS   C34 7834   4.061   5.785   9.714 -0.7773  0.5272 -0.5433
   83SAPS   H4X 7835   4.162   5.795   9.669  0.0352 -0.5960  0.9064
   83SAPS   H4Y 7836   4.019   5.888   9.716  1.3414  1.4656 -1.2469
   83SAPS   C35 7837   3.982   5.688   9.633  0.1469 -0.3988 -0.3573
   83SAPS   H5X 7838   3.886   5.657   9.681  0.0379 -1.6598 -1.3203
   83SAPS   H5Y 7839   4.041   5.595   9.616  1.8895  0.8518 -1.4378
   83SAPS   C36 7840   3.951   5.762   9.504 -0.1250  0.9298 -0.2636
   83SAPS   H6X 7841   4.034   5.833   9.481 -0.6573  1.6387 -0.0618
   83SAPS   H6Y 7842   3.852   5.812   9.515 -1.5593 -1.7620 -0.1183
   83SAPS   C37 7843   3.946   5.679   9.375  0.2107 -0.2230 -0.4487
   83SAPS   H7X 7844   3.900   5.581   9.399 -2.4621  0.6251 -1.6968
   83SAPS   H7Y 7845   4.049   5.641   9.361  0.3096  0.1411 -0.7362
   83SAPS   C38 7846   3.898   5.741   9.244  0.4421 -0.7508  0.6218
   83SAPS   H8X 7847   3.968   5.824   9.222 -0.8480 -0.4553 -3.0498
   83SAPS   H8Y 7848   3.793   5.775   9.255  0.9476  1.3364 -0.5300
   83SAPS   C39 7849   3.913   5.641   9.125  0.5656 -0.1712  0.3627
   83SAPS   H9X 7850   3.979   5.556   9.153 -0.2629 -0.8759  0.2521
   83SAPS   H9Y 7851   3.961   5.698   9.043 -1.1858 -0.2906 -0.8131
   83SAPS  C310 7852   3.772   5.582   9.088 -0.8547 -0.4750  0.7551
   83SAPS  H10X 7853   3.708   5.666   9.054 -0.1595 -0.8951 -1.7879
   83SAPS  H10Y 7854   3.737   5.549   9.189 -0.9889  0.7989  1.1353
   83SAPS  C311 7855   3.777   5.472   8.979  0.9636 -0.3130  0.1593
   83SAPS  H11X 7856   3.817   5.375   9.015  1.0840 -0.5464 -0.5920
   83SAPS  H11Y 7857   3.838   5.511   8.895 -1.1075  1.7545 -0.4805
   83SAPS  C312 7858   3.635   5.445   8.925  0.0362  0.0810 -0.0719
   83SAPS  H12X 7859   3.598   5.540   8.882  1.2960  0.1935 -0.9568
   83SAPS  H12Y 7860   3.571   5.405   9.007 -1.1382 -1.8770 -1.8229
   83SAPS  C313 7861   3.642   5.329   8.829  0.0078 -0.3399  0.5343
   83SAPS  H13X 7862   3.678   5.237   8.879  1.5043  0.8027  1.6495
   83SAPS  H13Y 7863   3.718   5.330   8.748 -0.0683 -0.4758  0.4603
   83SAPS  C314 7864   3.502   5.300   8.766  0.3776 -0.1369 -0.4780
   83SAPS  H14X 7865   3.453   5.393   8.729 -1.4307  0.3618  2.7253
   83SAPS  H14Y 7866   3.451   5.273   8.862  1.2472 -0.4784 -0.1038
   83SAPS  C315 7867   3.488   5.180   8.674  0.0857 -0.4072  0.6545
   83SAPS  H15X 7868   3.475   5.085   8.731  1.5808 -1.6123 -0.8856
   83SAPS  H15Y 7869   3.577   5.163   8.609  0.1251  3.8627 -0.6785
   83SAPS  C316 7870   3.363   5.179   8.582  0.2847 -0.2882 -0.0018
   83SAPS  H16X 7871   3.363   5.082   8.526 -2.0074 -1.6531  2.1486
   83SAPS  H16Y 7872   3.362   5.271   8.521 -0.1829  0.9860  1.8583
   83SAPS  C317 7873   3.229   5.172   8.657  0.5944  0.1578 -0.2536
   83SAPS  H17X 7874   3.211   5.254   8.731  1.9925 -0.8462  1.2705
   83SAPS  H17Y 7875   3.232   5.075   8.710  3.3337 -0.2769 -1.0666
   83SAPS  C318 7876   3.112   5.167   8.556  0.6078  0.5156  0.4470
   83SAPS  H18X 7877   3.102   5.266   8.508  1.0695 -0.0230 -0.8045
   83SAPS  H18Y 7878   3.016   5.128   8.597 -1.2234  4.1615 -0.0026
   83SAPS  H18Z 7879   3.140   5.091   8.480 -1.8303  0.7314 -0.7532
   84SAPS     N 7880   6.322   3.857  10.728 -0.2821  0.2901 -0.0436
   84SAPS   HN1 7881   6.394   3.932  10.724  0.0732 -0.0324  0.2115
   84SAPS   HN2 7882   6.346   3.781  10.662 -1.1690 -1.0935  1.1643
   84SAPS   HN3 7883   6.242   3.906  10.684  1.0907  1.3302 -1.5200
   84SAPS   C12 7884   6.297   3.823  10.874  0.0393 -0.0657  0.0337
   84SAPS  H12A 7885   6.387   3.773  10.907  1.3410  2.1587  0.0397
   84SAPS   C13 7886   6.272   3.940  10.966  0.4128 -0.2543 -0.2084
   84SAPS  O13A 7887   6.248   4.057  10.918 -0.5453  0.3662  0.2595
   84SAPS  O13B 7888   6.252   3.926  11.089  0.1093  0.6522 -0.3882
   84SAPS   C11 7889   6.173   3.721  10.874 -0.2651  1.1221 -0.3408
   84SAPS  H11A 7890   6.083   3.776  10.838 -1.9675 -1.1567  0.2198
   84SAPS  H11B 7891   6.152   3.682  10.976  1.2259  0.5997 -0.2018
   84SAPS     P 7892   6.078   3.503  10.772 -0.2969  0.1946  0.6906
   84SAPS   O13 7893   6.132   3.388  10.696 -0.2842 -0.0566  0.2752
   84SAPS   O14 7894   6.021   3.469  10.909 -0.1236 -0.2826  0.1919
   84SAPS   O12 7895   6.193   3.609  10.793  0.3256  0.3822 -0.2569
   84SAPS   O11 7896   5.963   3.574  10.687 -0.0487 -0.0984 -0.6691
   84SAPS    C1 7897   5.988   3.676  10.587  0.0891 -0.1632 -0.0425
   84SAPS    HA 7898   5.908   3.753  10.597 -1.0595 -1.3074 -0.2490
   84SAPS    HB 7899   6.081   3.735  10.602 -0.2949  0.0500  1.8101
   84SAPS    C2 7900   5.968   3.626  10.439  0.1655 -0.1730 -0.2525
   84SAPS    HS 7901   5.880   3.558  10.434 -2.0639  2.3043  1.7503
   84SAPS   O21 7902   6.088   3.551  10.411 -0.0834 -0.0546 -0.7541
   84SAPS   C21 7903   6.080   3.424  10.378  0.6490 -0.3711  1.1255
   84SAPS   O22 7904   5.977   3.361  10.349  0.2808  0.4711 -0.8857
   84SAPS   C22 7905   6.226   3.361  10.367  0.1737  0.1189 -0.2990
   84SAPS   H2R 7906   6.301   3.434  10.404  0.9866 -1.0113  0.3197
   84SAPS   H2S 7907   6.217   3.280  10.441  0.6738 -0.8199 -1.2468
   84SAPS    C3 7908   5.943   3.740  10.340  0.2466 -0.1290 -1.0496
   84SAPS    HX 7909   6.032   3.805  10.333  1.0808 -0.8930  1.4051
   84SAPS    HY 7910   5.861   3.804  10.379  1.8451  1.2520  0.2201
   84SAPS   O31 7911   5.906   3.683  10.214 -0.4546 -0.2568  0.4900
   84SAPS   C31 7912   6.007   3.690  10.121  0.5889  0.5398 -0.4103
   84SAPS   O32 7913   6.114   3.751  10.138 -0.0962  0.0174 -0.7178
   84SAPS   C32 7914   5.968   3.625   9.996 -0.2411  0.5671  0.4059
   84SAPS   H2X 7915   5.868   3.664   9.967 -1.3669 -2.8183 -0.7897
   84SAPS   H2Y 7916   5.965   3.515  10.011 -0.8435  0.7018  1.3435
   84SAPS   C23 7917   6.262   3.311  10.228 -0.0302  0.1537 -0.1611
   84SAPS   H3R 7918   6.181   3.240  10.201  0.3642 -0.2326 -0.3374
   84SAPS   H3S 7919   6.362   3.264  10.224  0.3756  0.9140  0.6228
   84SAPS   C24 7920   6.271   3.437  10.131 -0.1115 -0.2157  0.2251
   84SAPS   H4R 7921   6.347   3.505  10.175  1.7625 -1.4212 -0.9689
   84SAPS   H4S 7922   6.174   3.488  10.115  0.0358  0.2184  0.6846
   84SAPS   C25 7923   6.317   3.393  10.001  0.9870 -0.2329 -0.2613
   84SAPS   H5R 7924   6.255   3.319   9.949  0.9909  0.5396 -1.4099
   84SAPS   C26 7925   6.426   3.454   9.932  0.1095 -0.0805 -0.0872
   84SAPS   H6R 7926   6.444   3.413   9.831 -3.5734 -1.1198 -0.4620
   84SAPS   C27 7927   6.510   3.570   9.976  0.0414 -0.7877  0.2595
   84SAPS   H7R 7928   6.563   3.536  10.068 -1.3703 -0.7329  1.1266
   84SAPS   H7S 7929   6.444   3.656   9.998  0.9222  0.1424 -0.6391
   84SAPS   C28 7930   6.615   3.606   9.869 -1.1100 -0.6476  0.6912
   84SAPS   H8R 7931   6.694   3.530   9.861  1.4236  1.5957  2.4221
   84SAPS   C29 7932   6.626   3.717   9.785 -0.1550  0.2895 -0.1573
   84SAPS   H9R 7933   6.717   3.735   9.726 -0.7917  1.9898 -0.6867
   84SAPS  C210 7934   6.528   3.831   9.782  0.1304 -0.0948 -0.6519
   84SAPS  H10R 7935   6.439   3.807   9.844  0.8730 -0.5136  0.2766
   84SAPS  H10S 7936   6.481   3.834   9.681 -0.6297 -1.4588 -0.3627
   84SAPS  C211 7937   6.589   3.963   9.830  0.4488  0.7611 -0.1789
   84SAPS  H11R 7938   6.669   3.961   9.904 -0.5900 -1.5904  0.9785
   84SAPS  C212 7939   6.547   4.084   9.786 -0.0120  0.3229  0.2928
   84SAPS  H12R 7940   6.608   4.169   9.818 -0.5252  0.8027  0.0167
   84SAPS  C213 7941   6.434   4.115   9.689  0.2365  0.0744  0.1714
   84SAPS  H13R 7942   6.374   4.028   9.655  1.7046 -0.8947 -0.0169
   84SAPS  H13S 7943   6.486   4.150   9.597 -0.5059 -0.0937 -0.3259
   84SAPS  C214 7944   6.339   4.212   9.741  0.0151 -0.3427  0.4762
   84SAPS  H14R 7945   6.301   4.177   9.838  2.0056 -2.6701  0.5453
   84SAPS  C215 7946   6.293   4.321   9.681  0.1689  0.4390 -0.2778
   84SAPS  H15R 7947   6.221   4.380   9.740  0.3562 -0.9648  1.4420
   84SAPS  C216 7948   6.322   4.374   9.549 -0.1209 -0.1341  0.4983
   84SAPS  H16R 7949   6.250   4.340   9.471  1.1804  0.5732 -1.0796
   84SAPS  H16S 7950   6.419   4.344   9.504  0.0569  1.7305 -0.4743
   84SAPS  C217 7951   6.324   4.529   9.549  0.3338  0.9004  0.4686
   84SAPS  H17R 7952   6.409   4.552   9.617 -0.6584  2.2387  1.3341
   84SAPS  H17S 7953   6.234   4.567   9.602  1.0100 -0.7001  2.9865
   84SAPS  C218 7954   6.344   4.595   9.413 -0.1372  0.2626  0.3735
   84SAPS  H18R 7955   6.256   4.578   9.348 -0.0694  2.9179 -0.5105
   84SAPS  H18S 7956   6.427   4.562   9.348  0.4980  0.9301  0.8364
   84SAPS  C219 7957   6.355   4.754   9.432 -0.0085  0.9615 -0.1722
   84SAPS  H19R 7958   6.443   4.774   9.496 -0.5968  1.8006  0.4044
   84SAPS  H19S 7959   6.265   4.784   9.491 -2.1220 -1.8914 -1.6764
   84SAPS  C220 7960   6.383   4.830   9.295  0.0454  0.3653 -0.4159
   84SAPS  H20R 7961   6.420   4.932   9.315 -2.0146  1.1930 -0.5290
   84SAPS  H20S 7962   6.290   4.850   9.236  0.9286  0.2826 -1.8848
   84SAPS  H20T 7963   6.451   4.764   9.236  0.3199 -0.3932  0.7162
   84SAPS   C33 7964   6.059   3.657   9.877 -0.0580 -0.2904  0.0919
   84SAPS   H3X 7965   6.163   3.632   9.907  0.6163  0.4385 -1.4992
   84SAPS   H3Y 7966   6.058   3.767   9.861  0.1128 -0.4328 -1.0084
   84SAPS   C34 7967   6.020   3.575   9.750 -0.5514  0.2611 -0.5476
   84SAPS   H4X 7968   5.914   3.599   9.725 -0.2085  1.6642 -0.7173
   84SAPS   H4Y 7969   6.023   3.470   9.788  0.1197  0.5688  0.2851
   84SAPS   C35 7970   6.113   3.587   9.623  0.0945 -0.2451  0.9492
   84SAPS   H5X 7971   6.073   3.513   9.551  1.0679 -2.0194  2.1652
   84SAPS   H5Y 7972   6.213   3.560   9.665  3.0976  4.4408 -2.2274
   84SAPS   C36 7973   6.124   3.723   9.563  0.6161 -1.0019 -0.2174
   84SAPS   H6X 7974   6.138   3.795   9.647  1.6587 -2.9275  1.3272
   84SAPS   H6Y 7975   6.037   3.772   9.513 -0.0671 -0.8525  1.0824
   84SAPS   C37 7976   6.245   3.725   9.470  0.9358 -0.2778  0.6429
   84SAPS   H7X 7977   6.333   3.687   9.525  2.3008 -2.2184 -2.6135
   84SAPS   H7Y 7978   6.250   3.831   9.437  0.2574 -1.1166 -2.4681
   84SAPS   C38 7979   6.227   3.642   9.345 -0.2204  0.3038 -0.5142
   84SAPS   H8X 7980   6.220   3.535   9.373 -0.4231  0.2792 -0.6496
   84SAPS   H8Y 7981   6.314   3.661   9.279  0.0870 -0.3610 -0.2978
   84SAPS   C39 7982   6.099   3.660   9.265 -0.1137  0.2427 -0.2463
   84SAPS   H9X 7983   6.066   3.766   9.259  1.0102  0.5149 -3.4275
   84SAPS   H9Y 7984   6.022   3.600   9.319  0.2917  0.4111  0.5345
   84SAPS  C310 7985   6.114   3.620   9.118 -0.5275 -0.2462  0.0454
   84SAPS  H10X 7986   6.141   3.513   9.108 -2.0660 -0.5325 -1.2233
   84SAPS  H10Y 7987   6.195   3.680   9.070 -0.3020 -0.2723  0.3848
   84SAPS  C311 7988   5.977   3.643   9.043  0.2961 -0.4294 -0.4725
   84SAPS  H11X 7989   5.944   3.749   9.040 -0.7241 -0.7451 -1.1739
   84SAPS  H11Y 7990   5.908   3.579   9.102 -1.0149 -0.3669 -1.8541
   84SAPS  C312 7991   5.975   3.602   8.897  0.9725  0.0298  0.0819
   84SAPS  H12X 7992   5.986   3.493   8.879 -2.2291 -0.3446 -0.1604
   84SAPS  H12Y 7993   6.048   3.671   8.851  0.3777  0.1627 -0.6809
   84SAPS  C313 7994   5.839   3.636   8.838 -0.5628  0.8683  0.3816
   84SAPS  H13X 7995   5.791   3.709   8.906 -1.2343 -0.0918  0.9488
   84SAPS  H13Y 7996   5.773   3.547   8.839  1.2165 -0.4839  0.8335
   84SAPS  C314 7997   5.847   3.682   8.696  0.1603  0.3780 -0.6478
   84SAPS  H14X 7998   5.872   3.598   8.628 -0.5065  1.3027 -2.0844
   84SAPS  H14Y 7999   5.934   3.750   8.680 -0.1243  0.7201 -0.7778
   84SAPS  C315 8000   5.713   3.747   8.638 -0.1745 -0.4274  0.2538
   84SAPS  H15X 8001   5.708   3.853   8.672  1.8292 -0.2656  0.1801
   84SAPS  H15Y 8002   5.624   3.699   8.683 -1.7790  1.7992 -0.3474
   84SAPS  C316 8003   5.696   3.736   8.483  0.2739  0.3846 -0.0609
   84SAPS  H16X 8004   5.592   3.722   8.448  0.7520  0.1026 -1.3976
   84SAPS  H16Y 8005   5.750   3.644   8.453  0.3191  0.5464 -0.4884
   84SAPS  C317 8006   5.750   3.858   8.411 -0.1042  0.5870  0.3980
   84SAPS  H17X 8007   5.758   3.825   8.305 -1.0026 -1.5436  0.9243
   84SAPS  H17Y 8008   5.850   3.890   8.448  0.2617  3.4527 -2.5935
   84SAPS  C318 8009   5.659   3.974   8.424  1.0802 -0.1391 -0.2970
   84SAPS  H18X 8010   5.708   4.051   8.361  0.9293 -0.1052 -0.3753
   84SAPS  H18Y 8011   5.657   3.992   8.533 -2.2420 -1.0540 -0.0782
   84SAPS  H18Z 8012   5.555   3.954   8.389  1.2058 -0.2607 -0.6139
   85SAPS     N 8013   5.017   5.311  10.570  0.7954  0.3415  0.3034
   85SAPS   HN1 8014   4.999   5.411  10.549 -0.3173  0.3240  1.0622
   85SAPS   HN2 8015   4.931   5.260  10.540  0.6756  0.8307 -0.1950
   85SAPS   HN3 8016   5.012   5.295  10.673 -2.6594  0.6153  0.2827
   85SAPS   C12 8017   5.151   5.260  10.513 -0.4527 -0.4879  0.3388
   85SAPS  H12A 8018   5.229   5.331  10.534  1.6013 -1.4878 -3.0835
   85SAPS   C13 8019   5.191   5.130  10.579  0.0927  0.1018  0.2120
   85SAPS  O13A 8020   5.109   5.066  10.644 -0.4049  0.1870 -0.3303
   85SAPS  O13B 8021   5.300   5.073  10.544  0.1512 -0.1333 -0.0961
   85SAPS   C11 8022   5.135   5.238  10.356 -0.5279  0.1260  0.0270
   85SAPS  H11A 8023   5.062   5.154  10.349  0.7461 -1.0383  0.1909
   85SAPS  H11B 8024   5.234   5.213  10.312 -0.4978 -0.3054  0.3339
   85SAPS     P 8025   5.001   5.362  10.178  0.4089  0.4370  0.1613
   85SAPS   O13 8026   4.862   5.360  10.230  0.3148 -0.0456  0.4867
   85SAPS   O14 8027   5.046   5.479  10.095 -0.1652 -0.2790 -0.1195
   85SAPS   O12 8028   5.091   5.355  10.305 -0.3768  0.3128 -0.1314
   85SAPS   O11 8029   5.037   5.229  10.110  0.2028  0.6149  0.0281
   85SAPS    C1 8030   4.975   5.181   9.988  0.4353  0.3467 -0.3503
   85SAPS    HA 8031   4.880   5.128  10.012  1.6198 -0.5574  2.9518
   85SAPS    HB 8032   4.952   5.269   9.925  0.9766  1.5250  1.0515
   85SAPS    C2 8033   5.064   5.073   9.911  0.1823  0.0729 -0.1714
   85SAPS    HS 8034   5.066   4.987   9.981 -0.7101  0.0762 -0.1312
   85SAPS   O21 8035   5.201   5.118   9.890  0.5208 -0.1656 -0.5290
   85SAPS   C21 8036   5.291   5.072   9.969 -0.2369 -0.3248 -0.8212
   85SAPS   O22 8037   5.273   5.021  10.079 -0.2887  0.5699  1.1428
   85SAPS   C22 8038   5.425   5.115   9.925  0.5658  0.0187 -0.6203
   85SAPS   H2R 8039   5.467   5.187   9.999 -0.1347 -1.0755  0.8789
   85SAPS   H2S 8040   5.492   5.027   9.913  1.3475  0.4585  0.3255
   85SAPS    C3 8041   5.002   5.037   9.773 -0.3877  0.7143 -0.1069
   85SAPS    HX 8042   5.069   4.962   9.727 -1.8382  0.2917 -1.6637
   85SAPS    HY 8043   5.002   5.128   9.711  0.4263  0.9209  0.1938
   85SAPS   O31 8044   4.867   4.995   9.793  0.1149  0.3599 -0.0135
   85SAPS   C31 8045   4.857   4.861   9.818 -0.1750  0.3308  0.6050
   85SAPS   O32 8046   4.949   4.781   9.807  0.6332 -0.0758  0.3234
   85SAPS   C32 8047   4.710   4.829   9.838  0.4757  0.0202  0.6293
   85SAPS   H2X 8048   4.666   4.881   9.925  1.0606 -0.8366  1.4598
   85SAPS   H2Y 8049   4.698   4.718   9.843 -0.9248  0.1193 -0.1633
   85SAPS   C23 8050   5.419   5.206   9.798 -0.0128 -0.3852  0.0340
   85SAPS   H3R 8051   5.365   5.301   9.820  0.6156  0.1064 -0.5106
   85SAPS   H3S 8052   5.363   5.154   9.718 -0.3395  1.6499 -1.1414
   85SAPS   C24 8053   5.550   5.251   9.729  0.0847  0.0165  0.5637
   85SAPS   H4R 8054   5.618   5.303   9.800  0.1742 -1.3419  1.5284
   85SAPS   H4S 8055   5.521   5.325   9.652  0.5580 -0.1837  0.1810
   85SAPS   C25 8056   5.627   5.130   9.683  0.1594  0.5072  0.0308
   85SAPS   H5R 8057   5.712   5.102   9.747  0.4306  0.2064 -0.4493
   85SAPS   C26 8058   5.610   5.069   9.568  0.2754 -0.3924  0.0630
   85SAPS   H6R 8059   5.659   4.971   9.556 -0.1685 -0.8342  1.6630
   85SAPS   C27 8060   5.508   5.100   9.460  0.5942 -0.0546  0.0204
   85SAPS   H7R 8061   5.405   5.092   9.501  0.6799 -1.2140  0.0231
   85SAPS   H7S 8062   5.510   5.019   9.385  0.4616  0.8566 -0.9934
   85SAPS   C28 8063   5.535   5.239   9.392  0.2876  0.1710  0.1423
   85SAPS   H8R 8064   5.515   5.324   9.458 -1.8180  1.7423 -2.3556
   85SAPS   C29 8065   5.588   5.264   9.273 -1.4384  0.4063 -0.3204
   85SAPS   H9R 8066   5.609   5.369   9.248  0.9818  0.3868  1.3053
   85SAPS  C210 8067   5.624   5.165   9.171 -0.0535  0.5414  0.5743
   85SAPS  H10R 8068   5.543   5.090   9.166  0.5226 -0.0072 -1.7642
   85SAPS  H10S 8069   5.710   5.106   9.209 -1.0374 -0.6909  0.9651
   85SAPS  C211 8070   5.664   5.232   9.042  0.1554  0.1924  0.3143
   85SAPS  H11R 8071   5.736   5.315   9.048  0.5242 -0.1189  0.1972
   85SAPS  C212 8072   5.595   5.215   8.920  0.4680 -0.0700 -0.3714
   85SAPS  H12R 8073   5.615   5.282   8.835  1.1306  1.6848  1.0839
   85SAPS  C213 8074   5.471   5.117   8.902  0.0914  0.0240  0.4120
   85SAPS  H13R 8075   5.420   5.094   8.997 -0.7471  2.0387  0.5086
   85SAPS  H13S 8076   5.522   5.021   8.879  2.1723  1.0436  0.4793
   85SAPS  C214 8077   5.381   5.139   8.789  0.1107  0.6531  0.0699
   85SAPS  H14R 8078   5.281   5.178   8.812  0.1217  0.8813 -0.2600
   85SAPS  C215 8079   5.407   5.128   8.661  0.5140 -0.0229 -0.6832
   85SAPS  H15R 8080   5.325   5.152   8.592 -0.3254  2.0849  0.9218
   85SAPS  C216 8081   5.529   5.059   8.605 -0.3760 -0.7472 -0.6490
   85SAPS  H16R 8082   5.621   5.074   8.666  0.1019 -0.2713 -1.4649
   85SAPS  H16S 8083   5.547   5.095   8.502  0.1975 -1.9020 -0.9701
   85SAPS  C217 8084   5.504   4.909   8.598 -0.0608  0.2591 -0.3021
   85SAPS  H17R 8085   5.397   4.887   8.576 -0.4796  1.2178  0.6632
   85SAPS  H17S 8086   5.524   4.876   8.703  0.8622 -1.4879 -0.9839
   85SAPS  C218 8087   5.612   4.835   8.509  0.2546 -0.0815 -0.3524
   85SAPS  H18R 8088   5.648   4.738   8.550 -0.3681  0.3704  1.3393
   85SAPS  H18S 8089   5.708   4.889   8.528  1.3913 -2.6607  1.8747
   85SAPS  C219 8090   5.575   4.839   8.364 -0.2764 -0.3516  0.3135
   85SAPS  H19R 8091   5.583   4.945   8.332  2.0892 -1.3155 -2.8417
   85SAPS  H19S 8092   5.475   4.793   8.348  1.1453 -3.2930 -0.9807
   85SAPS  C220 8093   5.671   4.755   8.275  0.3667 -0.5191 -0.1066
   85SAPS  H20R 8094   5.656   4.646   8.290  1.5272 -0.8253 -1.0869
   85SAPS  H20S 8095   5.776   4.780   8.301  0.0540  0.1085  0.6156
   85SAPS  H20T 8096   5.663   4.778   8.167  2.2808  2.2852  0.2603
   85SAPS   C33 8097   4.623   4.868   9.714  0.1790 -0.1974  0.2470
   85SAPS   H3X 8098   4.601   4.975   9.730 -0.5276 -0.4832  1.2529
   85SAPS   H3Y 8099   4.527   4.812   9.720 -0.2647  0.6383  1.0740
   85SAPS   C34 8100   4.684   4.843   9.577  1.2268 -0.0176 -0.5721
   85SAPS   H4X 8101   4.745   4.751   9.590 -1.6341 -2.0042 -0.4266
   85SAPS   H4Y 8102   4.750   4.929   9.553 -0.6124  0.7401 -3.2703
   85SAPS   C35 8103   4.587   4.821   9.463  0.3912  0.5216 -0.0918
   85SAPS   H5X 8104   4.522   4.909   9.447 -0.6179 -0.3687 -1.0340
   85SAPS   H5Y 8105   4.522   4.733   9.483 -1.1336  1.5141 -0.6143
   85SAPS   C36 8106   4.665   4.810   9.332  0.2792  0.4584 -0.0746
   85SAPS   H6X 8107   4.723   4.716   9.336 -0.5208 -0.1327 -1.5523
   85SAPS   H6Y 8108   4.731   4.897   9.313 -1.2094  1.6448  0.0127
   85SAPS   C37 8109   4.576   4.787   9.202 -0.7811  0.4199  0.4362
   85SAPS   H7X 8110   4.523   4.883   9.186  1.5723  1.5200 -1.4150
   85SAPS   H7Y 8111   4.500   4.710   9.229 -0.0630  0.4419  2.7121
   85SAPS   C38 8112   4.660   4.755   9.077  0.1559 -0.5800 -0.4725
   85SAPS   H8X 8113   4.713   4.658   9.093  1.3057  0.0706 -0.2621
   85SAPS   H8Y 8114   4.735   4.837   9.080  1.0010 -1.3521 -0.0082
   85SAPS   C39 8115   4.581   4.745   8.943 -0.0299  0.4670 -0.7322
   85SAPS   H9X 8116   4.523   4.651   8.936  1.1793 -0.4249  0.7209
   85SAPS   H9Y 8117   4.659   4.730   8.865 -0.8851 -1.7145 -1.2345
   85SAPS  C310 8118   4.504   4.869   8.906  0.5079  0.0410  0.5964
   85SAPS  H10X 8119   4.569   4.953   8.938 -0.1503  0.7194  0.1947
   85SAPS  H10Y 8120   4.402   4.873   8.950 -0.2215 -0.3606 -0.9759
   85SAPS  C311 8121   4.502   4.894   8.753  0.4332  0.4722 -0.0318
   85SAPS  H11X 8122   4.419   4.837   8.706 -0.2711  1.3569  0.1330
   85SAPS  H11Y 8123   4.596   4.858   8.705  0.9810  2.5687 -0.5912
   85SAPS  C312 8124   4.478   5.035   8.723  0.0959  0.9269 -0.1978
   85SAPS  H12X 8125   4.544   5.091   8.792 -1.3171  1.4662  0.7565
   85SAPS  H12Y 8126   4.373   5.063   8.742  0.2685  1.1283  0.4677
   85SAPS  C313 8127   4.513   5.062   8.579  0.1882  0.2290  0.0113
   85SAPS  H13X 8128   4.441   4.999   8.523  0.1055 -0.0993  0.4754
   85SAPS  H13Y 8129   4.612   5.030   8.541 -0.5320 -0.0507 -1.7122
   85SAPS  C314 8130   4.503   5.208   8.534 -0.1100  0.0306 -0.2125
   85SAPS  H14X 8131   4.442   5.272   8.602 -0.4470 -1.5609  1.0379
   85SAPS  H14Y 8132   4.454   5.224   8.435 -2.0659  1.2839  0.8988
   85SAPS  C315 8133   4.635   5.292   8.540 -0.3185  0.3804  0.3418
   85SAPS  H15X 8134   4.703   5.245   8.466  0.0999  0.4484  0.6816
   85SAPS  H15Y 8135   4.685   5.306   8.638  0.9421  1.1014 -0.3686
   85SAPS  C316 8136   4.610   5.434   8.482 -0.1293  0.2823  0.0483
   85SAPS  H16X 8137   4.533   5.482   8.545  0.8216  0.8508  0.8206
   85SAPS  H16Y 8138   4.586   5.432   8.374 -0.5455 -0.9943  0.1567
   85SAPS  C317 8139   4.728   5.526   8.502  0.4990 -0.0648 -0.5771
   85SAPS  H17X 8140   4.736   5.543   8.612  1.7400 -1.4959 -0.4129
   85SAPS  H17Y 8141   4.709   5.626   8.458  0.9223  0.4108  0.2915
   85SAPS  C318 8142   4.854   5.471   8.437  0.2477  0.3053 -0.1788
   85SAPS  H18X 8143   4.832   5.412   8.345  2.0224 -0.6623 -0.0322
   85SAPS  H18Y 8144   4.899   5.399   8.508  0.3960 -1.2849 -1.8040
   85SAPS  H18Z 8145   4.929   5.550   8.417  1.0068  0.3186  2.3479
   86SAPS     N 8146   0.030   4.169  11.114  0.3196 -0.3474  0.0556
   86SAPS   HN1 8147   0.097   4.123  11.178  1.7332  0.6219 -0.6945
   86SAPS   HN2 8148  -0.034   4.235  11.164  2.4116  0.6710  1.5659
   86SAPS   HN3 8149  -0.036   4.107  11.063  1.2185  1.7297 -4.0360
   86SAPS   C12 8150   0.099   4.250  11.009  0.6564  0.3051 -0.1267
   86SAPS  H12A 8151   0.122   4.346  11.052 -0.0837  0.4044  0.0750
   86SAPS   C13 8152   0.226   4.187  10.959 -0.9386  0.5650  0.0777
   86SAPS  O13A 8153   0.266   4.077  11.011  0.3425  0.7263 -0.1785
   86SAPS  O13B 8154   0.296   4.247  10.875  0.6773  0.1590 -0.0402
   86SAPS   C11 8155  -0.010   4.274  10.887  0.0165  0.4607 -0.1405
   86SAPS  H11A 8156   0.034   4.350  10.820  0.9456 -0.2223 -0.3263
   86SAPS  H11B 8157  -0.104   4.302  10.940  0.0275  0.5381 -0.1626
   86SAPS     P 8158  -0.138   4.147  10.698  0.4250 -0.3630 -0.2562
   86SAPS   O13 8159  -0.198   4.010  10.706  0.0949  0.1442  0.4993
   86SAPS   O14 8160  -0.238   4.258  10.708 -0.3748 -0.6346  0.3748
   86SAPS   O12 8161  -0.030   4.155  10.812 -0.0052 -0.6779  0.0149
   86SAPS   O11 8162  -0.057   4.170  10.571  0.0084 -0.3051  0.1968
   86SAPS    C1 8163   0.062   4.253  10.573  0.8314 -0.0697  0.4040
   86SAPS    HA 8164   0.036   4.361  10.579  0.7135 -0.1814  2.2181
   86SAPS    HB 8165   0.122   4.219  10.660 -0.9700 -0.4622  1.5290
   86SAPS    C2 8166   0.141   4.228  10.442 -0.5457  0.1505  0.1133
   86SAPS    HS 8167   0.080   4.269  10.359  1.9991  0.8962 -1.4699
   86SAPS   O21 8168   0.148   4.083  10.433  0.2534  0.3265  0.1703
   86SAPS   C21 8169   0.129   4.038  10.312  1.2160  0.4084 -0.2271
   86SAPS   O22 8170   0.101   4.102  10.210 -0.4283  0.1610 -0.2218
   86SAPS   C22 8171   0.138   3.884  10.325  0.1678 -0.7682  0.2426
   86SAPS   H2R 8172   0.128   3.837  10.225 -0.5455  2.2498 -1.1826
   86SAPS   H2S 8173   0.237   3.857  10.368  1.0125 -0.2363 -1.3007
   86SAPS    C3 8174   0.273   4.305  10.437 -0.3717  0.8721  0.1421
   86SAPS    HX 8175   0.321   4.316  10.536  1.3397 -1.2869 -0.3752
   86SAPS    HY 8176   0.249   4.406  10.397 -1.7036  1.6820  2.7346
   86SAPS   O31 8177   0.368   4.241  10.347  0.6268  0.1768  0.3485
   86SAPS   C31 8178   0.453   4.152  10.396 -0.3185 -0.4190 -0.1667
   86SAPS   O32 8179   0.473   4.118  10.512  0.3026  0.2747 -0.1840
   86SAPS   C32 8180   0.550   4.117  10.281  0.3610  0.4512  0.6412
   86SAPS   H2X 8181   0.556   4.006  10.286 -2.0887  0.0721 -1.8911
   86SAPS   H2Y 8182   0.646   4.167  10.305 -0.6736  1.9729  1.8080
   86SAPS   C23 8183   0.029   3.823  10.426  0.2612 -0.2380  0.4628
   86SAPS   H3R 8184   0.051   3.855  10.530 -1.0517 -1.0081  1.0030
   86SAPS   H3S 8185   0.035   3.712  10.428  1.7615 -0.3264 -2.4654
   86SAPS   C24 8186  -0.122   3.866  10.403 -0.2540 -0.2394 -0.0322
   86SAPS   H4R 8187  -0.126   3.975  10.426 -0.7543 -0.6392  1.9350
   86SAPS   H4S 8188  -0.187   3.820  10.481 -0.7963 -1.3710 -1.1148
   86SAPS   C25 8189  -0.158   3.842  10.258  1.1531  0.2664  0.2403
   86SAPS   H5R 8190  -0.115   3.759  10.200  3.0112  2.3164 -1.5050
   86SAPS   C26 8191  -0.268   3.909  10.209  0.8765 -0.2335 -0.3134
   86SAPS   H6R 8192  -0.302   3.898  10.105  0.6235 -1.4075 -0.1211
   86SAPS   C27 8193  -0.353   4.012  10.279 -0.6848  0.1668 -0.2707
   86SAPS   H7R 8194  -0.366   3.965  10.379  0.8337  0.5140  0.1251
   86SAPS   H7S 8195  -0.457   4.013  10.242 -0.7125  0.4439 -0.1879
   86SAPS   C28 8196  -0.291   4.151  10.299 -0.0219 -0.3506 -0.1441
   86SAPS   H8R 8197  -0.223   4.161  10.386 -1.5894  0.4251  1.0368
   86SAPS   C29 8198  -0.291   4.265  10.222  0.1904 -0.5228 -1.0214
   86SAPS   H9R 8199  -0.239   4.354  10.260  0.8024 -0.6603 -1.5292
   86SAPS  C210 8200  -0.365   4.285  10.099 -0.1052 -0.4472  0.2573
   86SAPS  H10R 8201  -0.393   4.183  10.064  0.6887  0.2243 -2.6272
   86SAPS  H10S 8202  -0.298   4.325  10.021 -0.3950  0.3543  0.4118
   86SAPS  C211 8203  -0.494   4.371  10.112  0.4879  0.5660 -0.2578
   86SAPS  H11R 8204  -0.566   4.327  10.183  2.5599 -1.9862  0.4397
   86SAPS  C212 8205  -0.515   4.486  10.048 -0.4263 -0.1615 -0.8822
   86SAPS  H12R 8206  -0.617   4.526  10.059 -0.2869 -0.4114  2.1940
   86SAPS  C213 8207  -0.421   4.555   9.956 -0.3739 -0.7230  0.0525
   86SAPS  H13R 8208  -0.477   4.578   9.863  1.7049 -2.0425 -1.6014
   86SAPS  H13S 8209  -0.340   4.490   9.917  1.6225  1.2948  0.6787
   86SAPS  C214 8210  -0.358   4.676  10.027  0.2969  0.0183 -0.5337
   86SAPS  H14R 8211  -0.352   4.693  10.135  2.9772  1.5311 -0.8285
   86SAPS  C215 8212  -0.319   4.784   9.959 -0.2327  0.8544  0.6923
   86SAPS  H15R 8213  -0.269   4.866  10.011  1.1112  0.0322  0.7516
   86SAPS  C216 8214  -0.329   4.803   9.811 -0.0345  0.0265 -0.1449
   86SAPS  H16R 8215  -0.410   4.734   9.778  0.1654  0.6518 -2.0347
   86SAPS  H16S 8216  -0.229   4.788   9.766  1.8222  0.5636  3.4372
   86SAPS  C217 8217  -0.392   4.941   9.782 -0.0880 -0.1352 -0.2381
   86SAPS  H17R 8218  -0.379   4.961   9.674  1.2273  2.1289  0.2749
   86SAPS  H17S 8219  -0.335   5.018   9.839 -1.5328  0.4300  0.5279
   86SAPS  C218 8220  -0.540   4.956   9.798 -0.8312  0.3122 -0.0329
   86SAPS  H18R 8221  -0.572   4.957   9.904  0.3490 -1.7781  0.3866
   86SAPS  H18S 8222  -0.597   4.869   9.759  0.4798 -0.3504 -0.5043
   86SAPS  C219 8223  -0.589   5.086   9.728 -0.6640  0.2846  0.4936
   86SAPS  H19R 8224  -0.550   5.091   9.624 -0.5916 -1.6514  0.3975
   86SAPS  H19S 8225  -0.557   5.176   9.785 -2.9443  0.5194  1.4938
   86SAPS  C220 8226  -0.744   5.089   9.719  0.3754  0.2274 -0.1196
   86SAPS  H20R 8227  -0.788   5.175   9.773 -0.8898 -0.2287 -0.4058
   86SAPS  H20S 8228  -0.785   4.997   9.767  0.1277 -0.9214 -2.3870
   86SAPS  H20T 8229  -0.779   5.081   9.614  2.2476 -2.2413 -0.6668
   86SAPS   C33 8230   0.507   4.158  10.132 -0.1816 -0.6524 -0.5662
   86SAPS   H3X 8231   0.601   4.200  10.092  0.9819 -2.3176  0.3285
   86SAPS   H3Y 8232   0.452   4.255  10.137 -1.0834 -1.1545 -0.5149
   86SAPS   C34 8233   0.435   4.058  10.039 -0.5665 -0.2568  0.6595
   86SAPS   H4X 8234   0.336   4.038  10.085 -1.3728 -0.1249 -0.9474
   86SAPS   H4Y 8235   0.504   3.971  10.037  1.3962  1.0424  3.7326
   86SAPS   C35 8236   0.419   4.118   9.897  0.1129  0.3923 -0.5225
   86SAPS   H5X 8237   0.523   4.140   9.864 -0.8313  1.7863 -2.8234
   86SAPS   H5Y 8238   0.369   4.217   9.891  1.2457  0.9050 -2.1637
   86SAPS   C36 8239   0.354   4.032   9.785 -0.3513  0.4115 -0.0364
   86SAPS   H6X 8240   0.246   4.025   9.812 -0.4082 -1.0526 -0.5879
   86SAPS   H6Y 8241   0.396   3.930   9.780 -3.1418 -0.8798  0.8436
   86SAPS   C37 8242   0.369   4.098   9.648 -0.4662  0.1732 -0.0853
   86SAPS   H7X 8243   0.460   4.060   9.596  0.9356  0.7805  1.7937
   86SAPS   H7Y 8244   0.362   4.208   9.664 -1.2016  0.2573 -0.9033
   86SAPS   C38 8245   0.259   4.052   9.550 -0.2214  0.4508  0.0037
   86SAPS   H8X 8246   0.159   4.084   9.586 -0.8104  0.7708 -1.8530
   86SAPS   H8Y 8247   0.266   3.943   9.533 -2.9617  0.1419  0.3832
   86SAPS   C39 8248   0.281   4.128   9.422 -0.4211  0.6224 -0.2121
   86SAPS   H9X 8249   0.384   4.094   9.395 -0.3467  0.3695  0.3878
   86SAPS   H9Y 8250   0.291   4.238   9.432 -1.2075  0.6596  0.1986
   86SAPS  C310 8251   0.183   4.086   9.320 -0.4236  0.0262  0.2164
   86SAPS  H10X 8252   0.087   4.124   9.361  0.0715 -0.0939  1.5201
   86SAPS  H10Y 8253   0.179   3.975   9.311  3.8165 -0.3604  1.1131
   86SAPS  C311 8254   0.203   4.160   9.186  0.2046  0.3100 -0.1402
   86SAPS  H11X 8255   0.300   4.121   9.145 -0.7511 -0.8301 -1.4519
   86SAPS  H11Y 8256   0.215   4.269   9.204 -0.8471  0.4590 -0.2913
   86SAPS  C312 8257   0.097   4.161   9.082 -0.1846  0.1122  0.5889
   86SAPS  H12X 8258   0.003   4.207   9.119  0.7363  0.7712  2.2339
   86SAPS  H12Y 8259   0.067   4.060   9.046  0.6627  0.7468 -2.1154
   86SAPS  C313 8260   0.135   4.241   8.959  0.4578 -0.0992 -0.0853
   86SAPS  H13X 8261   0.227   4.206   8.907 -0.6480  1.9144 -3.7857
   86SAPS  H13Y 8262   0.141   4.346   8.996 -1.2380 -0.5171  1.5034
   86SAPS  C314 8263   0.019   4.255   8.861 -0.2997  0.4884 -0.0532
   86SAPS  H14X 8264   0.002   4.162   8.803  2.5565  1.2115 -2.2839
   86SAPS  H14Y 8265   0.051   4.336   8.791 -2.3530  0.7838 -0.7204
   86SAPS  C315 8266  -0.111   4.309   8.921  1.0279  0.0406  0.4124
   86SAPS  H15X 8267  -0.082   4.391   8.990 -0.0838  1.1083 -0.3344
   86SAPS  H15Y 8268  -0.163   4.230   8.980  1.3337  1.3162  2.4997
   86SAPS  C316 8269  -0.202   4.379   8.818  0.6311  0.5140  0.1939
   86SAPS  H16X 8270  -0.143   4.454   8.762 -1.2329  1.6307 -0.3855
   86SAPS  H16Y 8271  -0.290   4.428   8.864  0.3880  1.6385 -1.3694
   86SAPS  C317 8272  -0.266   4.269   8.730 -0.1431 -0.2225 -0.2670
   86SAPS  H17X 8273  -0.300   4.197   8.808  3.4744 -0.3543  1.3813
   86SAPS  H17Y 8274  -0.192   4.220   8.663 -1.4721 -0.6376 -1.4865
   86SAPS  C318 8275  -0.377   4.309   8.636 -0.6537 -0.3940  0.2654
   86SAPS  H18X 8276  -0.411   4.224   8.573 -1.3559  0.7322 -0.9231
   86SAPS  H18Y 8277  -0.354   4.390   8.564  0.4399 -1.0768 -0.1786
   86SAPS  H18Z 8278  -0.476   4.345   8.671 -0.8127  0.0942 -0.6479
   87SAPS     N 8279   6.362   4.612  11.161 -0.2370 -0.5382 -0.2915
   87SAPS   HN1 8280   6.366   4.716  11.166 -0.9001 -0.4821 -0.7271
   87SAPS   HN2 8281   6.342   4.602  11.060  0.9187  0.8306 -0.6780
   87SAPS   HN3 8282   6.288   4.573  11.224  1.9410 -1.7476  1.6724
   87SAPS   C12 8283   6.495   4.555  11.192 -1.0503 -0.2502  0.7892
   87SAPS  H12A 8284   6.521   4.587  11.292  1.6963 -3.0762  1.1524
   87SAPS   C13 8285   6.493   4.396  11.192 -0.7040 -0.9659 -0.4058
   87SAPS  O13A 8286   6.388   4.337  11.175 -0.2263  0.0179 -0.1160
   87SAPS  O13B 8287   6.601   4.339  11.225 -0.1283  0.0057  0.1517
   87SAPS   C11 8288   6.603   4.612  11.091  0.3042  0.6172 -0.5509
   87SAPS  H11A 8289   6.585   4.571  10.989 -2.1307  1.0097 -0.3369
   87SAPS  H11B 8290   6.693   4.564  11.135  0.7596  2.5219  0.7111
   87SAPS     P 8291   6.742   4.826  11.058 -0.0746  0.5438  0.5189
   87SAPS   O13 8292   6.703   4.964  11.033 -0.7240 -0.5611 -0.0875
   87SAPS   O14 8293   6.841   4.811  11.167  0.3131 -0.4059 -0.1014
   87SAPS   O12 8294   6.610   4.751  11.090 -0.2347  0.4762 -0.5126
   87SAPS   O11 8295   6.787   4.754  10.923 -0.4543  0.0954 -0.3408
   87SAPS    C1 8296   6.896   4.661  10.918 -0.7655 -0.1615 -0.1415
   87SAPS    HA 8297   6.971   4.672  10.999 -0.4858  0.4032 -0.4750
   87SAPS    HB 8298   6.850   4.559  10.923 -0.6614 -0.3987 -2.7482
   87SAPS    C2 8299   6.969   4.680  10.786  0.3461 -0.2949 -0.3586
   87SAPS    HS 8300   7.025   4.776  10.794  0.0116 -0.2419  3.5826
   87SAPS   O21 8301   6.871   4.672  10.689 -0.2226  0.0812  0.3011
   87SAPS   C21 8302   6.889   4.744  10.585  0.2302  0.1750  0.3765
   87SAPS   O22 8303   6.986   4.815  10.553 -0.0653  0.7523  0.0501
   87SAPS   C22 8304   6.764   4.730  10.492 -0.1299 -0.7638  0.1730
   87SAPS   H2R 8305   6.727   4.626  10.488 -0.1172 -0.7422 -3.0806
   87SAPS   H2S 8306   6.682   4.797  10.527  1.0810  0.4525  0.7950
   87SAPS    C3 8307   7.068   4.557  10.764  0.4447  0.1022 -0.1293
   87SAPS    HX 8308   7.012   4.461  10.759  0.2035 -0.0074  2.6788
   87SAPS    HY 8309   7.119   4.546  10.862  0.0873  2.5500  0.4011
   87SAPS   O31 8310   7.160   4.573  10.648  0.5751  0.8560  0.4653
   87SAPS   C31 8311   7.267   4.636  10.685  0.2626  0.3664 -1.0857
   87SAPS   O32 8312   7.299   4.665  10.801  0.5171 -0.0820 -0.0753
   87SAPS   C32 8313   7.365   4.661  10.573  0.3421  0.4986  0.2001
   87SAPS   H2X 8314   7.458   4.611  10.608 -0.6309  0.6848  3.3464
   87SAPS   H2Y 8315   7.376   4.770  10.559 -0.1716  0.7649  1.7848
   87SAPS   C23 8316   6.803   4.765  10.341  0.2120  0.0353 -0.6177
   87SAPS   H3R 8317   6.906   4.727  10.330 -0.1840 -1.3067  0.0705
   87SAPS   H3S 8318   6.808   4.876  10.330 -1.3975  0.0316 -1.6624
   87SAPS   C24 8319   6.712   4.698  10.238 -0.0135 -0.9042 -0.4775
   87SAPS   H4R 8320   6.738   4.732  10.135 -0.1292 -0.3332 -0.3185
   87SAPS   H4S 8321   6.612   4.739  10.261 -0.9800 -2.6305 -1.3227
   87SAPS   C25 8322   6.726   4.550  10.244  0.0496 -0.2370 -0.0105
   87SAPS   H5R 8323   6.697   4.504  10.339  1.9657 -1.0548  0.2328
   87SAPS   C26 8324   6.779   4.472  10.144 -0.1026 -0.4345 -0.2381
   87SAPS   H6R 8325   6.795   4.365  10.162  1.1085 -0.0795  0.9691
   87SAPS   C27 8326   6.833   4.523  10.008  0.0265  0.1046  0.0920
   87SAPS   H7R 8327   6.893   4.613  10.032 -0.2167  0.0290  1.0361
   87SAPS   H7S 8328   6.747   4.551   9.943  0.9981  0.9407 -0.8632
   87SAPS   C28 8329   6.903   4.415   9.927 -0.1977 -0.2795  0.1336
   87SAPS   H8R 8330   6.957   4.344   9.990 -1.6259  0.5266  2.3676
   87SAPS   C29 8331   6.892   4.406   9.794  0.2510 -0.9243  0.4317
   87SAPS   H9R 8332   6.940   4.321   9.743  1.0484  1.5584 -3.3975
   87SAPS  C210 8333   6.830   4.505   9.696 -0.8290 -0.7569 -0.3389
   87SAPS  H10R 8334   6.907   4.541   9.625 -1.1335 -0.1576 -0.3697
   87SAPS  H10S 8335   6.805   4.598   9.751 -0.0618  0.5233 -2.0469
   87SAPS  C211 8336   6.708   4.458   9.624 -0.2957  0.0433 -0.5743
   87SAPS  H11R 8337   6.626   4.435   9.694 -0.2248 -0.9354 -0.7960
   87SAPS  C212 8338   6.694   4.460   9.491  0.0363 -0.0495  0.0995
   87SAPS  H12R 8339   6.599   4.425   9.446 -0.5821 -1.6351  2.4546
   87SAPS  C213 8340   6.807   4.494   9.389  0.1476 -0.1654 -0.6525
   87SAPS  H13R 8341   6.879   4.409   9.392 -0.2726 -0.5059 -0.0244
   87SAPS  H13S 8342   6.857   4.592   9.404  1.4726 -1.1985  2.5374
   87SAPS  C214 8343   6.752   4.499   9.250 -0.3962  0.0717 -0.3446
   87SAPS  H14R 8344   6.702   4.407   9.217  1.0051 -1.8996  2.6571
   87SAPS  C215 8345   6.769   4.601   9.158 -0.5545 -0.3000 -0.9298
   87SAPS  H15R 8346   6.715   4.585   9.064 -2.0041  0.3131 -0.2318
   87SAPS  C216 8347   6.828   4.741   9.179  0.3296 -0.5643  0.2068
   87SAPS  H16R 8348   6.856   4.773   9.077  2.0971  0.9392  1.0989
   87SAPS  H16S 8349   6.925   4.724   9.232  1.4263 -1.9303 -2.0918
   87SAPS  C217 8350   6.739   4.855   9.247 -0.5471  0.2895  0.6404
   87SAPS  H17R 8351   6.636   4.829   9.216 -0.7395 -0.8281  2.0826
   87SAPS  H17S 8352   6.767   4.954   9.205 -0.2384 -0.8259 -1.9245
   87SAPS  C218 8353   6.759   4.861   9.401 -0.1177  0.5808  0.0856
   87SAPS  H18R 8354   6.865   4.843   9.429  0.2133  2.3788  0.1380
   87SAPS  H18S 8355   6.712   4.770   9.444  0.1187  0.5230  0.2257
   87SAPS  C219 8356   6.691   4.987   9.460 -0.2906  0.2095 -0.0762
   87SAPS  H19R 8357   6.583   4.963   9.447  0.3643 -3.5060  0.1219
   87SAPS  H19S 8358   6.723   5.073   9.398 -0.2356  0.4446  0.2759
   87SAPS  C220 8359   6.721   5.012   9.608  0.0894 -0.3856  0.0607
   87SAPS  H20R 8360   6.647   5.084   9.650  1.0111 -0.0696  1.1682
   87SAPS  H20S 8361   6.825   5.036   9.638 -0.2352 -0.2326  1.1047
   87SAPS  H20T 8362   6.702   4.916   9.661  1.3164 -0.7646 -0.1557
   87SAPS   C33 8363   7.343   4.593  10.435 -0.2138  0.1694 -0.1690
   87SAPS   H3X 8364   7.300   4.491  10.445 -1.1436  0.7102  1.6818
   87SAPS   H3Y 8365   7.442   4.595  10.384  1.0712  1.3292  2.1791
   87SAPS   C34 8366   7.238   4.672  10.349 -0.6333  0.1248 -0.0625
   87SAPS   H4X 8367   7.264   4.781  10.350  0.2693 -0.0783 -0.1855
   87SAPS   H4Y 8368   7.130   4.665  10.373 -0.2547 -1.6792  1.2784
   87SAPS   C35 8369   7.251   4.633  10.197  0.2350  0.1803  0.6750
   87SAPS   H5X 8370   7.241   4.523  10.185  0.2949  0.0881  1.4123
   87SAPS   H5Y 8371   7.358   4.656  10.178  0.4630  0.0722  1.7565
   87SAPS   C36 8372   7.160   4.714  10.105 -0.2524 -0.4269 -0.3889
   87SAPS   H6X 8373   7.155   4.816  10.147 -0.0346 -1.1551  1.4785
   87SAPS   H6Y 8374   7.061   4.668  10.126 -0.0020 -0.9566 -0.3506
   87SAPS   C37 8375   7.186   4.713   9.953 -0.4108 -0.2482  0.2120
   87SAPS   H7X 8376   7.167   4.607   9.927  0.0482 -0.2471 -0.1320
   87SAPS   H7Y 8377   7.293   4.730   9.932 -0.4097  2.2459  1.8341
   87SAPS   C38 8378   7.096   4.806   9.868  0.1648  0.5095 -0.8567
   87SAPS   H8X 8379   7.060   4.884   9.938 -0.6098 -0.3653 -0.2429
   87SAPS   H8Y 8380   6.999   4.763   9.833 -1.2591  2.1948  0.8126
   87SAPS   C39 8381   7.168   4.877   9.754  0.0125  0.5055  0.2207
   87SAPS   H9X 8382   7.257   4.936   9.785  0.9776 -1.6733  1.9156
   87SAPS   H9Y 8383   7.091   4.947   9.715 -1.9022 -1.9758 -0.7667
   87SAPS  C310 8384   7.199   4.785   9.635  0.5116  0.0587 -0.4280
   87SAPS  H10X 8385   7.133   4.696   9.644  0.0712  0.3911 -0.3146
   87SAPS  H10Y 8386   7.306   4.756   9.639  0.5889  0.1499 -1.5156
   87SAPS  C311 8387   7.179   4.852   9.504 -0.0588  0.3350 -0.6348
   87SAPS  H11X 8388   7.251   4.935   9.489 -0.2984  0.4435 -1.2122
   87SAPS  H11Y 8389   7.074   4.887   9.511 -0.7934 -1.8124 -0.1299
   87SAPS  C312 8390   7.190   4.758   9.380 -0.0742  0.1622  0.6140
   87SAPS  H12X 8391   7.104   4.688   9.385  0.1180 -0.2077 -0.8200
   87SAPS  H12Y 8392   7.288   4.705   9.384 -0.6631 -1.0915 -0.8532
   87SAPS  C313 8393   7.178   4.838   9.253  0.1467 -0.5788 -0.6813
   87SAPS  H13X 8394   7.088   4.903   9.261 -0.5711 -1.4655 -1.3933
   87SAPS  H13Y 8395   7.155   4.762   9.175  0.6388 -0.6617 -0.7447
   87SAPS  C314 8396   7.296   4.927   9.207 -0.0172  0.3141 -0.3318
   87SAPS  H14X 8397   7.390   4.866   9.208 -0.8527 -1.0498  1.7919
   87SAPS  H14Y 8398   7.308   5.007   9.282 -0.1617  0.6845 -0.7004
   87SAPS  C315 8399   7.276   5.005   9.075  0.0721  0.2547  0.2357
   87SAPS  H15X 8400   7.194   5.078   9.089 -1.7249 -1.7775  0.8905
   87SAPS  H15Y 8401   7.237   4.933   9.000 -2.0917  0.1893  1.3433
   87SAPS  C316 8402   7.409   5.067   9.030 -0.1456 -0.7415 -0.3068
   87SAPS  H16X 8403   7.485   4.986   9.034  0.8691  0.2219  0.7752
   87SAPS  H16Y 8404   7.439   5.148   9.101  0.5125 -3.0803  2.2376
   87SAPS  C317 8405   7.408   5.121   8.888  0.0134  0.4679 -0.4035
   87SAPS  H17X 8406   7.498   5.187   8.881 -0.7474  1.4668 -0.9993
   87SAPS  H17Y 8407   7.321   5.188   8.872  0.3417  1.6627  2.2435
   87SAPS  C318 8408   7.420   5.025   8.771  0.7975  0.5704  0.4482
   87SAPS  H18X 8409   7.434   5.090   8.682  0.7237  1.2185  0.8979
   87SAPS  H18Y 8410   7.323   4.973   8.764  0.5935  1.2075 -2.5926
   87SAPS  H18Z 8411   7.508   4.961   8.795 -0.4785 -1.1165  0.7581
   88SAPS     N 8412   1.210   3.211  11.228  0.3956 -0.4437  0.4003
   88SAPS   HN1 8413   1.277   3.290  11.235 -1.1579  0.8728  1.1280
   88SAPS   HN2 8414   1.112   3.242  11.213  0.2713 -0.5693  0.9625
   88SAPS   HN3 8415   1.204   3.163  11.320 -3.0339 -0.1078  0.4844
   88SAPS   C12 8416   1.251   3.123  11.114 -0.2306  0.5185 -0.1442
   88SAPS  H12A 8417   1.350   3.084  11.134  0.2062  2.3193  1.4310
   88SAPS   C13 8418   1.164   2.989  11.108 -0.4211 -0.0044 -0.1260
   88SAPS  O13A 8419   1.089   2.969  11.207  0.0023  0.0598  0.0080
   88SAPS  O13B 8420   1.197   2.891  11.041  0.2546  0.0293  0.0875
   88SAPS   C11 8421   1.236   3.199  10.982 -0.3415  0.4093  0.1630
   88SAPS  H11A 8422   1.271   3.138  10.896 -3.2527  0.9935 -1.5913
   88SAPS  H11B 8423   1.300   3.289  10.988  1.4332 -0.5431 -2.7737
   88SAPS     P 8424   1.056   3.340  10.854  0.3503  0.1361 -0.2617
   88SAPS   O13 8425   0.907   3.328  10.829 -0.7728  0.1807 -0.6107
   88SAPS   O14 8426   1.108   3.468  10.904  0.3787 -0.3341  0.2953
   88SAPS   O12 8427   1.089   3.225  10.956  0.2861  0.1450 -0.5263
   88SAPS   O11 8428   1.129   3.303  10.727  0.4539  0.0976 -0.1151
   88SAPS    C1 8429   1.128   3.170  10.660  0.2258  0.4875  0.9507
   88SAPS    HA 8430   1.228   3.123  10.672 -1.5026 -3.1916  2.6410
   88SAPS    HB 8431   1.052   3.103  10.705  0.7170 -0.2690  0.6736
   88SAPS    C2 8432   1.102   3.176  10.508  0.3274 -0.4088  0.0303
   88SAPS    HS 8433   1.110   3.070  10.476 -0.2651 -0.6063  0.5108
   88SAPS   O21 8434   1.218   3.245  10.448  0.4435  0.1389 -0.1330
   88SAPS   C21 8435   1.339   3.196  10.447 -0.5055  0.0425  0.3879
   88SAPS   O22 8436   1.377   3.091  10.490 -0.6341  0.1106  0.5453
   88SAPS   C22 8437   1.424   3.295  10.368  0.3695  0.0935  0.5744
   88SAPS   H2R 8438   1.373   3.383  10.323  2.1142  2.7914  3.4928
   88SAPS   H2S 8439   1.499   3.335  10.440  0.7438  1.0938 -0.3352
   88SAPS    C3 8440   0.966   3.243  10.463  0.4218 -0.1374  0.3784
   88SAPS    HX 8441   0.959   3.341  10.515  1.9081 -0.6838  1.7202
   88SAPS    HY 8442   0.888   3.168  10.486  0.1755 -0.5584 -1.6418
   88SAPS   O31 8443   0.974   3.245  10.311 -0.6848  0.4595  0.2479
   88SAPS   C31 8444   1.012   3.364  10.268 -0.4143 -0.1339  0.0456
   88SAPS   O32 8445   1.064   3.453  10.338  0.7238  0.2694 -0.2599
   88SAPS   C32 8446   0.969   3.372  10.119  0.2237 -0.3036 -0.0953
   88SAPS   H2X 8447   0.894   3.291  10.102 -1.5839  1.2422  0.1777
   88SAPS   H2Y 8448   1.056   3.338  10.058  0.4882 -0.5566  0.4237
   88SAPS   C23 8449   1.510   3.217  10.259 -0.8149 -0.2007  0.0717
   88SAPS   H3R 8450   1.553   3.125  10.302  0.8624 -0.4221 -1.9069
   88SAPS   H3S 8451   1.597   3.281  10.231 -0.1394 -1.9010 -2.0088
   88SAPS   C24 8452   1.439   3.192  10.127  0.9621 -0.9800 -0.4302
   88SAPS   H4R 8453   1.401   3.288  10.087  2.1193  0.2381  1.2377
   88SAPS   H4S 8454   1.334   3.161  10.147 -0.0894  1.2909 -2.0030
   88SAPS   C25 8455   1.506   3.110  10.022 -0.4708 -0.1807 -0.1408
   88SAPS   H5R 8456   1.478   3.003  10.028 -1.0241 -0.0811 -0.8532
   88SAPS   C26 8457   1.610   3.148   9.942 -0.2818 -0.2242  0.1959
   88SAPS   H6R 8458   1.659   3.080   9.872  1.0288  0.5737  0.3029
   88SAPS   C27 8459   1.666   3.288   9.938  0.2377  0.2071 -0.2066
   88SAPS   H7R 8460   1.760   3.291   9.879  0.7321 -0.0780  0.5560
   88SAPS   H7S 8461   1.689   3.330  10.038  2.3245 -1.1704 -0.0501
   88SAPS   C28 8462   1.571   3.393   9.881 -0.6359  0.3873  0.3969
   88SAPS   H8R 8463   1.513   3.450   9.955 -1.3195 -0.2341  0.3559
   88SAPS   C29 8464   1.550   3.413   9.746 -0.0325 -0.8799 -0.1785
   88SAPS   H9R 8465   1.483   3.494   9.713  1.4004  0.6658  0.5469
   88SAPS  C210 8466   1.611   3.322   9.648 -0.7988  0.0337 -0.3583
   88SAPS  H10R 8467   1.542   3.260   9.587  2.8353 -0.2936 -4.6873
   88SAPS  H10S 8468   1.681   3.242   9.680  0.5154 -0.1494 -3.2981
   88SAPS  C211 8469   1.699   3.412   9.558  0.2279 -0.4138 -0.1945
   88SAPS  H11R 8470   1.783   3.464   9.607  0.8443  0.9665 -2.5765
   88SAPS  C212 8471   1.673   3.444   9.430  0.1936 -0.1859  0.0707
   88SAPS  H12R 8472   1.742   3.518   9.389 -0.4491  0.4027  0.0277
   88SAPS  C213 8473   1.542   3.432   9.348  0.0493  0.3092  0.1351
   88SAPS  H13R 8474   1.462   3.426   9.425 -0.9514 -1.4927 -0.9609
   88SAPS  H13S 8475   1.541   3.331   9.301 -0.5745  0.6919 -0.7003
   88SAPS  C214 8476   1.510   3.539   9.254  0.3155 -0.5490 -0.1106
   88SAPS  H14R 8477   1.489   3.639   9.296  0.3328 -0.5608 -0.0733
   88SAPS  C215 8478   1.481   3.535   9.124  0.9613 -0.1772 -0.4361
   88SAPS  H15R 8479   1.454   3.625   9.068  0.2023  0.3785  0.7958
   88SAPS  C216 8480   1.477   3.415   9.032  0.3210  0.3525  1.0746
   88SAPS  H16R 8481   1.377   3.366   9.031  1.9707 -3.3493 -0.4907
   88SAPS  H16S 8482   1.557   3.345   9.065  1.8355  1.3094 -0.3936
   88SAPS  C217 8483   1.525   3.447   8.880  0.3417 -0.1384  0.1043
   88SAPS  H17R 8484   1.551   3.346   8.841  2.6343  0.0957  0.8848
   88SAPS  H17S 8485   1.619   3.503   8.896  0.4117 -0.9125  2.8305
   88SAPS  C218 8486   1.428   3.527   8.791 -0.9108  0.2743 -0.1869
   88SAPS  H18R 8487   1.371   3.600   8.853 -0.6215  0.1843  0.1885
   88SAPS  H18S 8488   1.352   3.456   8.753 -1.9082  0.6538  1.0079
   88SAPS  C219 8489   1.503   3.613   8.680 -0.6672  0.3219 -0.6060
   88SAPS  H19R 8490   1.539   3.540   8.605  0.1545  0.6030 -0.5012
   88SAPS  H19S 8491   1.589   3.671   8.720 -0.4389 -0.1289 -0.4335
   88SAPS  C220 8492   1.404   3.717   8.613 -0.1153  0.8400  0.1315
   88SAPS  H20R 8493   1.323   3.670   8.553  0.9132 -0.1408 -0.5290
   88SAPS  H20S 8494   1.457   3.785   8.543  2.4254 -1.4431 -0.3322
   88SAPS  H20T 8495   1.353   3.770   8.697 -1.9859 -0.4233 -0.1347
   88SAPS   C33 8496   0.915   3.505  10.074 -0.2416 -0.3909 -0.6676
   88SAPS   H3X 8497   0.955   3.585  10.140  0.2460 -0.7995 -0.4643
   88SAPS   H3Y 8498   0.805   3.499  10.088 -0.1883  1.2827  0.7845
   88SAPS   C34 8499   0.951   3.547   9.928 -0.6071  0.1540 -0.1184
   88SAPS   H4X 8500   1.055   3.521   9.897 -1.5013 -2.6192 -1.0404
   88SAPS   H4Y 8501   0.945   3.658   9.929 -0.5998  0.1796  1.7629
   88SAPS   C35 8502   0.858   3.481   9.825 -0.1835 -0.2471  0.3642
   88SAPS   H5X 8503   0.753   3.513   9.842 -0.7052 -0.7178 -1.6994
   88SAPS   H5Y 8504   0.856   3.370   9.836  1.4646 -0.4241 -0.7755
   88SAPS   C36 8505   0.891   3.528   9.683  0.0363  0.6452  0.0017
   88SAPS   H6X 8506   0.979   3.469   9.648  0.9535  0.4149  2.4891
   88SAPS   H6Y 8507   0.925   3.633   9.688 -2.2052  1.4918 -1.1498
   88SAPS   C37 8508   0.777   3.516   9.579  0.1344 -0.0327  0.2250
   88SAPS   H7X 8509   0.710   3.603   9.593 -0.0750 -0.2520  0.6079
   88SAPS   H7Y 8510   0.728   3.416   9.584 -0.0596  0.0708  0.4117
   88SAPS   C38 8511   0.825   3.524   9.436  0.4049  0.2428 -0.0503
   88SAPS   H8X 8512   0.906   3.451   9.414 -0.0164 -0.2099 -0.1293
   88SAPS   H8Y 8513   0.873   3.624   9.431  1.9804 -0.4926 -0.5483
   88SAPS   C39 8514   0.709   3.510   9.336  0.3178 -0.3860 -0.1300
   88SAPS   H9X 8515   0.632   3.584   9.366  0.8991 -0.1141  0.7399
   88SAPS   H9Y 8516   0.660   3.412   9.353  0.8099 -0.2368  2.6434
   88SAPS  C310 8517   0.758   3.535   9.194 -0.3130  0.2914  0.3139
   88SAPS  H10X 8518   0.823   3.448   9.171 -0.4782 -0.1915  1.5611
   88SAPS  H10Y 8519   0.822   3.625   9.185  1.8068 -0.8849  2.5998
   88SAPS  C311 8520   0.653   3.542   9.084 -0.7824 -0.1034 -0.0021
   88SAPS  H11X 8521   0.706   3.540   8.986  2.0615  0.4426  1.4162
   88SAPS  H11Y 8522   0.588   3.630   9.101  0.6406  0.5072  2.8121
   88SAPS  C312 8523   0.562   3.420   9.088  0.0997 -0.1902  0.1042
   88SAPS  H12X 8524   0.524   3.395   9.190  3.0629 -0.4051  1.2705
   88SAPS  H12Y 8525   0.622   3.333   9.054 -1.0448 -0.4587 -1.3221
   88SAPS  C313 8526   0.450   3.426   8.983 -0.0683 -0.7375  0.2556
   88SAPS  H13X 8527   0.402   3.526   8.989  1.7197  0.1304  1.2045
   88SAPS  H13Y 8528   0.381   3.342   9.007 -1.2917 -0.4387 -1.9643
   88SAPS  C314 8529   0.494   3.414   8.833  0.5443  0.2929 -0.0417
   88SAPS  H14X 8530   0.550   3.319   8.822 -1.9922 -1.4504  1.0577
   88SAPS  H14Y 8531   0.561   3.502   8.817  0.5577  0.3487  0.3223
   88SAPS  C315 8532   0.384   3.427   8.727 -0.3902 -0.0504 -0.8017
   88SAPS  H15X 8533   0.445   3.431   8.634  1.2414 -2.1018  0.0823
   88SAPS  H15Y 8534   0.333   3.520   8.759  0.4322 -0.2366  1.1869
   88SAPS  C316 8535   0.302   3.295   8.718  0.0041  0.1762 -0.5711
   88SAPS  H16X 8536   0.236   3.282   8.806  1.0336 -0.9525  0.0664
   88SAPS  H16Y 8537   0.357   3.199   8.725  0.3736  0.4488  0.3537
   88SAPS  C317 8538   0.215   3.291   8.591 -0.1199 -0.1785  0.2832
   88SAPS  H17X 8539   0.162   3.388   8.580 -1.4194 -0.3360  3.9854
   88SAPS  H17Y 8540   0.139   3.213   8.614  1.7747 -2.1488  0.1960
   88SAPS  C318 8541   0.278   3.241   8.463 -0.4103 -0.2542  0.4696
   88SAPS  H18X 8542   0.354   3.318   8.439  0.1713 -0.5879  1.2156
   88SAPS  H18Y 8543   0.209   3.239   8.376  1.7877  0.9725 -1.4013
   88SAPS  H18Z 8544   0.333   3.145   8.468  1.0857  0.6364  2.9526
   89SAPS     N 8545   2.351   0.624  10.645 -0.2878 -0.2089 -0.3733
   89SAPS   HN1 8546   2.309   0.714  10.614 -0.3923  0.1368  0.7222
   89SAPS   HN2 8547   2.445   0.619  10.601 -0.4332 -2.5799 -0.5100
   89SAPS   HN3 8548   2.283   0.558  10.602 -0.2344  0.0639 -0.8838
   89SAPS   C12 8549   2.365   0.617  10.789 -0.2900  0.2185  0.5733
   89SAPS  H12A 8550   2.461   0.666  10.799  0.5353 -1.3714  0.6593
   89SAPS   C13 8551   2.258   0.682  10.878  0.1913 -0.5732 -0.2831
   89SAPS  O13A 8552   2.165   0.741  10.820 -0.0260  0.3509 -0.1979
   89SAPS  O13B 8553   2.265   0.669  10.998  0.6096  0.1120 -0.5347
   89SAPS   C11 8554   2.380   0.471  10.832  0.6318  0.7927 -0.6798
   89SAPS  H11A 8555   2.294   0.410  10.798  1.5943  0.1743 -2.1087
   89SAPS  H11B 8556   2.389   0.452  10.942  1.0182  0.7618 -0.7167
   89SAPS     P 8557   2.641   0.449  10.856 -0.4586 -0.1002  0.1004
   89SAPS   O13 8558   2.733   0.536  10.778 -0.0608  0.1193  0.1884
   89SAPS   O14 8559   2.615   0.485  10.995  0.2650 -0.2866 -0.2717
   89SAPS   O12 8560   2.506   0.418  10.783  0.2174  0.6357 -0.1775
   89SAPS   O11 8561   2.706   0.306  10.859 -0.0586 -0.3168  0.3563
   89SAPS    C1 8562   2.629   0.188  10.877 -0.4819  0.1166 -0.1212
   89SAPS    HA 8563   2.672   0.136  10.966  2.7498 -1.0901 -2.2084
   89SAPS    HB 8564   2.526   0.214  10.908 -0.6256  2.0970 -1.9936
   89SAPS    C2 8565   2.626   0.083  10.763  0.1595 -0.5458 -0.1792
   89SAPS    HS 8566   2.726   0.084  10.714  1.1718 -3.3606  1.5830
   89SAPS   O21 8567   2.517   0.117  10.669 -0.0841  0.7497  0.1137
   89SAPS   C21 8568   2.550   0.195  10.566 -0.5774 -0.5410  0.0105
   89SAPS   O22 8569   2.665   0.237  10.543  0.6635  0.1323  0.2651
   89SAPS   C22 8570   2.431   0.240  10.491 -0.8144  0.6190  0.4347
   89SAPS   H2R 8571   2.355   0.293  10.552 -2.1130 -0.4769 -0.1760
   89SAPS   H2S 8572   2.469   0.309  10.412  2.5834 -0.5069  0.9018
   89SAPS    C3 8573   2.606  -0.054  10.821 -0.3620 -0.4848  0.3718
   89SAPS    HX 8574   2.512  -0.056  10.880 -1.4575  0.3561 -1.2527
   89SAPS    HY 8575   2.692  -0.067  10.889  0.0040 -0.4370 -0.0739
   89SAPS   O31 8576   2.606  -0.163  10.723 -0.3372 -0.4133  0.9481
   89SAPS   C31 8577   2.725  -0.202  10.676 -0.6809 -0.5560 -0.3709
   89SAPS   O32 8578   2.835  -0.157  10.704  0.1567  0.8859 -0.5450
   89SAPS   C32 8579   2.701  -0.294  10.563 -0.2330 -0.1670  0.0657
   89SAPS   H2X 8580   2.620  -0.365  10.590  1.8141 -3.4685 -1.7377
   89SAPS   H2Y 8581   2.788  -0.362  10.549  0.8865  1.5671 -2.0251
   89SAPS   C23 8582   2.372   0.111  10.426  0.0684  0.8832  0.4079
   89SAPS   H3R 8583   2.349   0.036  10.505  1.4776  0.2315  0.2212
   89SAPS   H3S 8584   2.446   0.061  10.361  2.1159  3.0834  0.9193
   89SAPS   C24 8585   2.240   0.134  10.348  0.7228  0.2793 -0.7512
   89SAPS   H4R 8586   2.262   0.216  10.277 -2.2383  0.1337 -1.9489
   89SAPS   H4S 8587   2.167   0.165  10.426  0.9884  2.6740 -1.3961
   89SAPS   C25 8588   2.187   0.012  10.273  0.6725  0.4646  0.3907
   89SAPS   H5R 8589   2.140  -0.067  10.333 -0.4948 -0.6908 -1.8871
   89SAPS   C26 8590   2.189   0.010  10.136  0.4819  0.0421 -0.8484
   89SAPS   H6R 8591   2.137  -0.075  10.088 -0.8786  0.5444 -0.3218
   89SAPS   C27 8592   2.253   0.102  10.036  0.4910 -0.5323 -0.5307
   89SAPS   H7R 8593   2.243   0.201  10.086  0.4935 -1.4635  1.4156
   89SAPS   H7S 8594   2.180   0.088   9.953 -0.0749 -4.6869  0.4549
   89SAPS   C28 8595   2.392   0.074   9.994  0.1594  0.6110  0.5440
   89SAPS   H8R 8596   2.465   0.072  10.077  2.0065  1.6569 -0.9699
   89SAPS   C29 8597   2.453   0.047   9.877 -0.1860 -0.2137  0.1720
   89SAPS   H9R 8598   2.562   0.030   9.880 -0.5624 -3.1696  0.8157
   89SAPS  C210 8599   2.378   0.018   9.744  0.1402 -0.5979 -0.2716
   89SAPS  H10R 8600   2.276  -0.010   9.778  0.2116  0.1289  0.5449
   89SAPS  H10S 8601   2.419  -0.074   9.697 -0.5851 -0.0585 -2.0573
   89SAPS  C211 8602   2.390   0.136   9.649 -0.1817  0.4100 -0.2469
   89SAPS  H11R 8603   2.372   0.230   9.702 -1.0842 -0.2483  0.6488
   89SAPS  C212 8604   2.405   0.138   9.514  0.4500 -0.0465 -0.0461
   89SAPS  H12R 8605   2.410   0.238   9.469 -0.1784 -0.5366 -1.2399
   89SAPS  C213 8606   2.403   0.014   9.418 -0.1875  0.2264 -0.0542
   89SAPS  H13R 8607   2.473  -0.056   9.470 -0.3484  1.0524  1.3320
   89SAPS  H13S 8608   2.456   0.029   9.322  1.5131 -0.6634  0.6922
   89SAPS  C214 8609   2.266  -0.047   9.394 -0.1332 -0.0334  0.3948
   89SAPS  H14R 8610   2.189  -0.018   9.467 -0.6241  0.4991 -0.3291
   89SAPS  C215 8611   2.231  -0.120   9.284 -0.5555  0.2793  0.0243
   89SAPS  H15R 8612   2.130  -0.162   9.285  0.8930 -3.6269  1.5346
   89SAPS  C216 8613   2.313  -0.156   9.159 -0.2248  0.4245  0.4491
   89SAPS  H16R 8614   2.295  -0.265   9.143 -0.6884  0.5621  0.0075
   89SAPS  H16S 8615   2.418  -0.121   9.160  0.6839 -2.0959  0.7838
   89SAPS  C217 8616   2.243  -0.085   9.043 -0.5633  0.4660  0.0290
   89SAPS  H17R 8617   2.243   0.026   9.054  1.4720  0.3447  1.8796
   89SAPS  H17S 8618   2.138  -0.121   9.032 -0.4898  0.2155  0.1517
   89SAPS  C218 8619   2.321  -0.112   8.912 -0.1240  0.0894  0.4337
   89SAPS  H18R 8620   2.329  -0.220   8.885  0.9141  0.4499 -0.7802
   89SAPS  H18S 8621   2.420  -0.062   8.909  0.0486 -0.2151  0.9069
   89SAPS  C219 8622   2.253  -0.053   8.785  0.0319 -0.0025 -0.4929
   89SAPS  H19R 8623   2.229   0.054   8.798  0.8273  0.0489  0.6745
   89SAPS  H19S 8624   2.169  -0.118   8.751  1.2817 -2.3691  0.7146
   89SAPS  C220 8625   2.362  -0.048   8.677 -0.2922 -0.2421 -0.4417
   89SAPS  H20R 8626   2.320   0.005   8.589  0.2214  3.3921  1.3045
   89SAPS  H20S 8627   2.394  -0.149   8.643 -0.8853 -0.0088 -1.7393
   89SAPS  H20T 8628   2.446   0.021   8.701 -0.0196 -0.8691  0.4705
   89SAPS   C33 8629   2.642  -0.223  10.438  0.0787 -0.2335  0.6015
   89SAPS   H3X 8630   2.540  -0.184  10.460 -0.9506 -0.7923 -2.6217
   89SAPS   H3Y 8631   2.633  -0.306  10.364  1.5299 -0.3662  0.5485
   89SAPS   C34 8632   2.743  -0.120  10.378 -0.2574 -0.7656  0.2005
   89SAPS   H4X 8633   2.839  -0.174  10.371  0.6930  0.3967  2.8640
   89SAPS   H4Y 8634   2.761  -0.038  10.450 -1.7640 -1.1510  1.0734
   89SAPS   C35 8635   2.697  -0.064  10.236 -0.5700  0.2361 -0.1831
   89SAPS   H5X 8636   2.609   0.000  10.254 -0.0494  0.9061  0.0049
   89SAPS   H5Y 8637   2.672  -0.155  10.177 -1.0522  0.4956 -0.3759
   89SAPS   C36 8638   2.816   0.007  10.163  0.0406 -0.3534 -0.1121
   89SAPS   H6X 8639   2.908  -0.054  10.158  0.2334 -0.1696  0.9471
   89SAPS   H6Y 8640   2.836   0.102  10.218 -0.5424  0.1896 -0.8170
   89SAPS   C37 8641   2.787   0.048  10.018  0.0183  0.1622 -0.1772
   89SAPS   H7X 8642   2.706   0.123  10.010 -1.6638 -1.7028 -1.7316
   89SAPS   H7Y 8643   2.760  -0.039   9.953 -0.2458  0.7048 -0.8087
   89SAPS   C38 8644   2.915   0.115   9.961  0.4853  0.5009  0.0311
   89SAPS   H8X 8645   3.003   0.049   9.948 -0.4910 -1.0644  1.0124
   89SAPS   H8Y 8646   2.937   0.207  10.020 -1.9299  1.6637 -0.7709
   89SAPS   C39 8647   2.882   0.158   9.812  0.1389 -0.3240 -0.3240
   89SAPS   H9X 8648   2.970   0.216   9.777  0.0715  0.3555  0.6008
   89SAPS   H9Y 8649   2.794   0.225   9.812  0.4788  0.2081 -2.7324
   89SAPS  C310 8650   2.871   0.041   9.715  0.5903  0.7657 -0.3102
   89SAPS  H10X 8651   2.773  -0.011   9.726  1.8809 -1.9449 -0.6477
   89SAPS  H10Y 8652   2.949  -0.034   9.741 -1.0227 -0.7429  0.4581
   89SAPS  C311 8653   2.868   0.097   9.576  0.4037  0.3627  0.2642
   89SAPS  H11X 8654   2.857   0.012   9.505 -0.9612 -0.5484  1.5166
   89SAPS  H11Y 8655   2.973   0.130   9.565  1.0087 -1.1061  1.3265
   89SAPS  C312 8656   2.766   0.216   9.546  0.1347  0.4137  0.1373
   89SAPS  H12X 8657   2.817   0.313   9.563 -0.7606  1.2327 -1.6542
   89SAPS  H12Y 8658   2.685   0.212   9.622  2.1992 -1.1050  2.4291
   89SAPS  C313 8659   2.718   0.203   9.398 -0.6885 -0.2531  0.2163
   89SAPS  H13X 8660   2.642   0.283   9.384  1.4069  1.6809 -0.9609
   89SAPS  H13Y 8661   2.682   0.098   9.395  0.2977 -0.5884 -0.3372
   89SAPS  C314 8662   2.824   0.219   9.282  0.3939 -0.7202  0.6969
   89SAPS  H14X 8663   2.884   0.126   9.289  1.5664 -0.1776 -1.2628
   89SAPS  H14Y 8664   2.884   0.306   9.316 -0.5571 -0.6913  2.4447
   89SAPS  C315 8665   2.756   0.229   9.142 -0.4737  0.1501 -0.3627
   89SAPS  H15X 8666   2.684   0.312   9.151  0.7761  1.1929  0.3753
   89SAPS  H15Y 8667   2.704   0.134   9.118 -2.6698  1.2158 -0.0655
   89SAPS  C316 8668   2.864   0.267   9.041  0.0923 -0.3157 -0.1882
   89SAPS  H16X 8669   2.941   0.187   9.029  0.0780 -0.4574  0.6095
   89SAPS  H16Y 8670   2.907   0.365   9.070  1.4171 -0.7008 -0.7420
   89SAPS  C317 8671   2.809   0.265   8.898  0.4081 -0.1425  0.7704
   89SAPS  H17X 8672   2.880   0.326   8.839 -0.3339  0.4689  0.4889
   89SAPS  H17Y 8673   2.721   0.333   8.905  1.2152  1.2406 -1.6230
   89SAPS  C318 8674   2.770   0.135   8.833 -0.1653 -0.2983  0.3039
   89SAPS  H18X 8675   2.686   0.105   8.899 -0.2379 -2.2587 -0.6150
   89SAPS  H18Y 8676   2.853   0.063   8.847  1.3485  0.9284 -1.7386
   89SAPS  H18Z 8677   2.720   0.138   8.733 -3.0630 -2.0458  1.5793
   90SAPS     N 8678   1.950   2.142  10.415 -0.5400  0.7201  0.0912
   90SAPS   HN1 8679   1.945   2.072  10.338  0.4025 -0.3076  0.9340
   90SAPS   HN2 8680   1.931   2.236  10.375  0.2356  0.5894 -0.5871
   90SAPS   HN3 8681   2.048   2.142  10.450  0.1110  1.0791 -1.6400
   90SAPS   C12 8682   1.845   2.093  10.511 -0.6793  0.4819 -0.1711
   90SAPS  H12A 8683   1.841   2.148  10.603 -0.8358 -1.7934  1.2559
   90SAPS   C13 8684   1.701   2.093  10.455 -0.4910 -0.1651 -0.0473
   90SAPS  O13A 8685   1.675   2.127  10.342 -0.4580 -0.4812 -0.0696
   90SAPS  O13B 8686   1.614   2.078  10.541  0.1362  0.9443  0.0049
   90SAPS   C11 8687   1.901   1.954  10.563 -0.0150 -1.2131  0.2136
   90SAPS  H11A 8688   1.912   1.889  10.473 -1.9946 -2.0607  0.5203
   90SAPS  H11B 8689   1.820   1.917  10.630  1.2135 -0.4877  2.1886
   90SAPS     P 8690   2.095   1.840  10.692  0.0342  0.1915  0.3536
   90SAPS   O13 8691   2.213   1.885  10.770  0.1018 -0.1812  0.5065
   90SAPS   O14 8692   1.998   1.745  10.753 -0.0189 -0.3715  0.1372
   90SAPS   O12 8693   2.018   1.970  10.635 -0.7912  0.3234  0.1511
   90SAPS   O11 8694   2.155   1.762  10.565 -0.1607 -0.1300 -0.2959
   90SAPS    C1 8695   2.228   1.824  10.463 -0.7151 -0.0904  0.0765
   90SAPS    HA 8696   2.178   1.915  10.425 -1.0639 -1.0252 -1.8350
   90SAPS    HB 8697   2.335   1.844  10.487 -0.5574  0.6317 -1.1876
   90SAPS    C2 8698   2.240   1.730  10.344  0.1670  0.2650  0.1320
   90SAPS    HS 8699   2.291   1.639  10.382  0.7973  0.5530 -0.0103
   90SAPS   O21 8700   2.294   1.778  10.218 -0.5665  0.2637  0.0241
   90SAPS   C21 8701   2.424   1.793  10.222 -0.1700 -0.0092  0.9847
   90SAPS   O22 8702   2.494   1.778  10.315 -0.6270  0.0136 -0.0326
   90SAPS   C22 8703   2.467   1.844  10.074  0.4128  0.5157  0.0188
   90SAPS   H2R 8704   2.471   1.748  10.019  0.5914 -0.2566  1.3351
   90SAPS   H2S 8705   2.392   1.911  10.028 -1.3956 -0.3321  1.5914
   90SAPS    C3 8706   2.098   1.670  10.315  0.2172  0.3215 -1.0356
   90SAPS    HX 8707   2.023   1.751  10.321 -0.7809 -0.6623  0.3755
   90SAPS    HY 8708   2.077   1.610  10.406  2.0843  0.3350 -0.5414
   90SAPS   O31 8709   2.102   1.585  10.191  0.4132  0.2373  0.6732
   90SAPS   C31 8710   2.066   1.640  10.079  0.2754 -0.3884  0.5247
   90SAPS   O32 8711   2.013   1.749  10.063 -0.0485  0.2052  0.2996
   90SAPS   C32 8712   2.092   1.554   9.961 -0.9328  0.8304 -0.2146
   90SAPS   H2X 8713   2.163   1.480  10.003 -2.0018  0.3595  0.8100
   90SAPS   H2Y 8714   2.135   1.615   9.879 -0.4551  0.3389 -0.3343
   90SAPS   C23 8715   2.601   1.905  10.053 -0.2064 -0.4333  0.1682
   90SAPS   H3R 8716   2.677   1.831  10.084 -1.3385 -1.5089  0.4272
   90SAPS   H3S 8717   2.621   2.000  10.107 -1.6315  0.7158 -1.2329
   90SAPS   C24 8718   2.635   1.929   9.903 -0.4432 -0.1761 -0.4382
   90SAPS   H4R 8719   2.727   1.991   9.901 -0.3839 -0.2482 -0.0435
   90SAPS   H4S 8720   2.565   2.003   9.859  1.5627  1.9238 -0.2500
   90SAPS   C25 8721   2.665   1.807   9.814 -0.3495 -0.3005  0.1858
   90SAPS   H5R 8722   2.685   1.714   9.868 -0.9227 -1.8740 -2.1847
   90SAPS   C26 8723   2.657   1.800   9.680  0.2364 -0.1835  1.1231
   90SAPS   H6R 8724   2.674   1.707   9.623 -0.2096  0.3900  0.0180
   90SAPS   C27 8725   2.626   1.916   9.590  0.4489 -0.5116  0.0288
   90SAPS   H7R 8726   2.724   1.957   9.558 -0.6958  2.3671 -0.0664
   90SAPS   H7S 8727   2.564   1.995   9.637 -0.1373 -1.2735  0.5703
   90SAPS   C28 8728   2.547   1.865   9.473  0.0080  0.5070  0.3887
   90SAPS   H8R 8729   2.451   1.826   9.509  0.2041 -0.5873 -0.2190
   90SAPS   C29 8730   2.556   1.887   9.344  0.1823 -0.2845 -0.0352
   90SAPS   H9R 8731   2.472   1.837   9.293 -0.8546 -0.9447  2.2019
   90SAPS  C210 8732   2.669   1.942   9.258  0.6218 -0.2554  0.2053
   90SAPS  H10R 8733   2.746   1.994   9.319  1.0013  3.3611 -2.9445
   90SAPS  H10S 8734   2.622   2.026   9.202 -1.7701 -0.5019  1.6900
   90SAPS  C211 8735   2.719   1.835   9.164  0.6126 -0.0629  0.0008
   90SAPS  H11R 8736   2.765   1.745   9.207  0.5573 -1.0071 -1.8220
   90SAPS  C212 8737   2.704   1.831   9.026 -0.2864 -0.6725  0.4910
   90SAPS  H12R 8738   2.744   1.743   8.975  3.1365  1.0857 -0.1189
   90SAPS  C213 8739   2.632   1.934   8.934 -0.3647 -0.2992 -0.5775
   90SAPS  H13R 8740   2.696   1.957   8.846  2.2078  0.0671  1.2809
   90SAPS  H13S 8741   2.634   2.031   8.987 -1.9356 -1.0994  1.0432
   90SAPS  C214 8742   2.493   1.898   8.890 -0.1542 -0.1395  0.6447
   90SAPS  H14R 8743   2.417   1.914   8.968 -0.9691  0.0794 -0.1801
   90SAPS  C215 8744   2.453   1.833   8.780 -0.1089  0.5277 -0.5177
   90SAPS  H15R 8745   2.349   1.805   8.758  0.4994 -1.9038 -0.5288
   90SAPS  C216 8746   2.543   1.783   8.674 -0.6150  0.0932 -0.0336
   90SAPS  H16R 8747   2.636   1.844   8.675 -0.0445 -0.7431  0.9113
   90SAPS  H16S 8748   2.494   1.819   8.582 -1.8691  1.3727  1.0794
   90SAPS  C217 8749   2.569   1.625   8.661 -0.9231  0.1945  0.5410
   90SAPS  H17R 8750   2.602   1.577   8.756 -0.4088  0.8187  0.6846
   90SAPS  H17S 8751   2.655   1.619   8.591 -1.7283 -0.1356 -0.4430
   90SAPS  C218 8752   2.441   1.550   8.624 -0.6259 -0.1264 -0.2985
   90SAPS  H18R 8753   2.412   1.590   8.525 -2.7629  2.9318  1.3898
   90SAPS  H18S 8754   2.368   1.578   8.703 -0.7605 -1.6912  0.1725
   90SAPS  C219 8755   2.454   1.396   8.621 -0.0039 -1.1502 -0.0353
   90SAPS  H19R 8756   2.507   1.380   8.717 -0.1592 -1.1088  0.0567
   90SAPS  H19S 8757   2.522   1.365   8.539  0.6851 -1.2263  0.5575
   90SAPS  C220 8758   2.328   1.307   8.616 -0.3357 -0.1693  0.5066
   90SAPS  H20R 8759   2.266   1.322   8.708  0.9315 -0.8265  1.4960
   90SAPS  H20S 8760   2.375   1.208   8.600  0.7987  0.4211  0.1219
   90SAPS  H20T 8761   2.263   1.320   8.527 -1.0717 -0.8505  0.9220
   90SAPS   C33 8762   1.956   1.491   9.921 -0.6461 -0.7148  0.1907
   90SAPS   H3X 8763   1.878   1.569   9.924 -3.0313 -2.9462 -0.5062
   90SAPS   H3Y 8764   1.911   1.416   9.989 -0.0551 -0.5336  0.8017
   90SAPS   C34 8765   1.956   1.446   9.774 -0.4454  0.3370 -0.4919
   90SAPS   H4X 8766   2.030   1.364   9.767  2.7206  3.1303 -3.3677
   90SAPS   H4Y 8767   1.996   1.521   9.702  1.4808 -0.9997 -0.8764
   90SAPS   C35 8768   1.820   1.382   9.730  0.5460 -0.0412 -0.4195
   90SAPS   H5X 8769   1.737   1.452   9.751 -0.6362 -1.7431  0.8440
   90SAPS   H5Y 8770   1.801   1.300   9.803  0.4941  1.0363  0.8113
   90SAPS   C36 8771   1.815   1.331   9.582  0.3425  0.2098 -0.0717
   90SAPS   H6X 8772   1.858   1.229   9.572 -1.1456 -0.7491  2.4222
   90SAPS   H6Y 8773   1.879   1.401   9.524  0.2704  1.1595  0.9562
   90SAPS   C37 8774   1.676   1.343   9.530  0.6212  0.4734  0.5318
   90SAPS   H7X 8775   1.628   1.442   9.545 -0.1983 -0.3414  4.4510
   90SAPS   H7Y 8776   1.614   1.265   9.578  1.0405  0.0442  0.3850
   90SAPS   C38 8777   1.683   1.324   9.384 -0.3168 -0.3904 -0.5567
   90SAPS   H8X 8778   1.693   1.219   9.348 -1.9283 -0.4487 -0.9480
   90SAPS   H8Y 8779   1.765   1.384   9.340 -2.5448  0.9244 -3.2746
   90SAPS   C39 8780   1.572   1.376   9.298  0.1148  0.4969 -0.1721
   90SAPS   H9X 8781   1.604   1.360   9.193  0.4316  1.9175 -0.3073
   90SAPS   H9Y 8782   1.574   1.485   9.321 -0.9756  0.1609  1.7473
   90SAPS  C310 8783   1.436   1.310   9.333 -0.7176 -0.5651 -0.5241
   90SAPS  H10X 8784   1.403   1.344   9.433  1.7862 -1.0420  0.5210
   90SAPS  H10Y 8785   1.462   1.204   9.352  1.0391 -0.3100 -1.3277
   90SAPS  C311 8786   1.333   1.329   9.226  0.2987  0.1999  0.1383
   90SAPS  H11X 8787   1.369   1.285   9.131 -0.9684 -1.0541  0.2088
   90SAPS  H11Y 8788   1.313   1.437   9.208 -1.6687  0.2863  2.3626
   90SAPS  C312 8789   1.201   1.251   9.235  0.2028 -0.6210  0.3298
   90SAPS  H12X 8790   1.132   1.272   9.320 -0.9614  1.6183 -1.0589
   90SAPS  H12Y 8791   1.219   1.142   9.249 -0.2315 -1.1382 -2.4291
   90SAPS  C313 8792   1.119   1.258   9.104 -0.2718  0.3056 -0.4022
   90SAPS  H13X 8793   1.044   1.177   9.112  1.1873 -1.2231 -1.5138
   90SAPS  H13Y 8794   1.170   1.247   9.006 -2.1282  1.9892 -1.6347
   90SAPS  C314 8795   1.055   1.400   9.093 -0.1185 -0.0349  0.1151
   90SAPS  H14X 8796   0.983   1.392   9.009 -1.1614  0.9562  0.8882
   90SAPS  H14Y 8797   1.125   1.483   9.074  0.5820 -0.4723  0.7306
   90SAPS  C315 8798   0.982   1.454   9.214 -0.1184 -0.2834 -0.1029
   90SAPS  H15X 8799   1.053   1.495   9.289 -0.0196  1.7084 -1.2177
   90SAPS  H15Y 8800   0.918   1.376   9.259 -0.9598  1.2203  1.4141
   90SAPS  C316 8801   0.888   1.575   9.168  0.0076  0.2972  0.3875
   90SAPS  H16X 8802   0.825   1.547   9.081 -0.8584  0.8120  0.8305
   90SAPS  H16Y 8803   0.954   1.663   9.152  0.3443  0.2941  1.6828
   90SAPS  C317 8804   0.799   1.623   9.280 -0.0588  0.2265  0.1131
   90SAPS  H17X 8805   0.777   1.544   9.355 -0.3476 -0.1545 -0.3709
   90SAPS  H17Y 8806   0.706   1.660   9.231  0.8605  0.1334 -1.7896
   90SAPS  C318 8807   0.857   1.742   9.363 -0.2773 -0.0896 -0.0445
   90SAPS  H18X 8808   0.877   1.830   9.297  1.9931 -0.6693 -0.2303
   90SAPS  H18Y 8809   0.958   1.718   9.403  0.1163 -0.2133 -1.0842
   90SAPS  H18Z 8810   0.787   1.773   9.443  0.1455  3.7601 -0.9363
   91SAPS     N 8811   4.239   6.336   5.868  0.0869  0.0037  0.0747
   91SAPS   HN1 8812   4.268   6.283   5.783  0.0915  0.1162  0.0066
   91SAPS   HN2 8813   4.141   6.305   5.883 -0.3214 -0.2755 -2.6907
   91SAPS   HN3 8814   4.250   6.434   5.835 -0.3970 -0.1271 -0.4971
   91SAPS   C12 8815   4.327   6.305   5.982 -0.4883 -0.5944 -0.4290
   91SAPS  H12A 8816   4.313   6.201   6.009 -0.3534 -0.9030 -1.4846
   91SAPS   C13 8817   4.478   6.311   5.940  0.3167  0.0467  0.0708
   91SAPS  O13A 8818   4.503   6.335   5.819 -0.4791 -0.6161  0.0199
   91SAPS  O13B 8819   4.563   6.306   6.031 -0.0154 -0.5502  0.4893
   91SAPS   C11 8820   4.289   6.404   6.097 -0.0238  0.0676  0.0819
   91SAPS  H11A 8821   4.316   6.506   6.063  2.0903 -0.7883 -1.0002
   91SAPS  H11B 8822   4.358   6.387   6.182  1.2401 -1.7307 -1.2279
   91SAPS     P 8823   4.118   6.305   6.258  0.3975 -0.0595  0.1404
   91SAPS   O13 8824   3.971   6.281   6.260 -0.5425 -0.4469 -0.3955
   91SAPS   O14 8825   4.206   6.184   6.253  0.0836  0.1495  0.4868
   91SAPS   O12 8826   4.154   6.399   6.140  0.1712  0.2753  0.3910
   91SAPS   O11 8827   4.155   6.375   6.385 -1.1374 -0.0051 -0.1825
   91SAPS    C1 8828   4.153   6.522   6.384 -0.0516 -0.4668  0.0084
   91SAPS    HA 8829   4.251   6.558   6.346 -0.8232  0.6396 -0.9648
   91SAPS    HB 8830   4.069   6.573   6.333  0.4217 -0.3631 -0.6767
   91SAPS    C2 8831   4.159   6.579   6.529  0.0145 -0.2919  0.9462
   91SAPS    HS 8832   4.189   6.686   6.529 -1.2072  0.0771  0.0767
   91SAPS   O21 8833   4.238   6.502   6.614  0.4503 -0.2439  0.3523
   91SAPS   C21 8834   4.367   6.530   6.618 -0.6389  0.2560 -0.0282
   91SAPS   O22 8835   4.421   6.622   6.568  0.1310 -0.3885  0.0352
   91SAPS   C22 8836   4.434   6.409   6.670 -0.0096 -0.0147 -0.4063
   91SAPS   H2R 8837   4.368   6.334   6.718  0.6476 -0.0612  0.4479
   91SAPS   H2S 8838   4.475   6.350   6.585  1.2160  0.2961 -0.0507
   91SAPS    C3 8839   4.017   6.586   6.583 -0.0608 -0.1377  0.0548
   91SAPS    HX 8840   3.958   6.491   6.583 -0.2948 -0.0084  1.5999
   91SAPS    HY 8841   3.962   6.650   6.511  2.0499  0.5428 -1.0240
   91SAPS   O31 8842   4.017   6.652   6.716 -0.0390 -0.1173  0.1847
   91SAPS   C31 8843   4.023   6.568   6.818  0.0659  0.2567  0.2711
   91SAPS   O32 8844   3.991   6.449   6.811 -0.0245 -0.3059  0.5356
   91SAPS   C32 8845   4.077   6.637   6.941  0.1978 -0.2848 -0.4442
   91SAPS   H2X 8846   3.996   6.703   6.979  1.3410  0.6175  0.5067
   91SAPS   H2Y 8847   4.163   6.695   6.902  2.1744 -1.9138  1.2301
   91SAPS   C23 8848   4.569   6.432   6.751 -0.0092  0.5906  0.5171
   91SAPS   H3R 8849   4.645   6.478   6.685 -0.2591  1.1391  0.5997
   91SAPS   H3S 8850   4.607   6.333   6.784  1.9634 -0.7856 -4.8401
   91SAPS   C24 8851   4.556   6.518   6.881 -0.3631 -0.3545 -0.5074
   91SAPS   H4R 8852   4.489   6.598   6.845  0.6514  0.9750  0.4852
   91SAPS   H4S 8853   4.652   6.569   6.903 -1.1663  0.5026  1.1628
   91SAPS   C25 8854   4.492   6.444   7.001 -0.6590 -0.4576  0.2866
   91SAPS   H5R 8855   4.431   6.357   6.970  1.0866 -1.1996 -1.2336
   91SAPS   C26 8856   4.526   6.448   7.130 -0.5855 -0.1215  0.6787
   91SAPS   H6R 8857   4.493   6.373   7.204 -0.2435 -2.0512 -1.0320
   91SAPS   C27 8858   4.613   6.553   7.193 -0.1424 -0.3431  0.0281
   91SAPS   H7R 8859   4.551   6.609   7.267  0.1024  0.1510 -0.1398
   91SAPS   H7S 8860   4.635   6.624   7.110 -3.9790  0.6527 -0.3578
   91SAPS   C28 8861   4.739   6.500   7.270  0.0078  0.8539 -0.1335
   91SAPS   H8R 8862   4.834   6.482   7.219 -0.9317  0.2338 -1.7467
   91SAPS   C29 8863   4.746   6.477   7.405 -0.0850  0.2138  0.8081
   91SAPS   H9R 8864   4.841   6.442   7.449  0.2565  0.6170  0.4055
   91SAPS  C210 8865   4.642   6.499   7.520  1.1671  0.0762 -0.3617
   91SAPS  H10R 8866   4.588   6.596   7.517  0.8849  0.1848  3.5190
   91SAPS  H10S 8867   4.703   6.507   7.612  0.6104 -0.3907  0.0585
   91SAPS  C211 8868   4.539   6.397   7.540 -0.2142 -0.2964 -0.1699
   91SAPS  H11R 8869   4.487   6.361   7.451 -1.7602  1.2169  0.0628
   91SAPS  C212 8870   4.490   6.356   7.661  0.3534  0.0784 -0.6466
   91SAPS  H12R 8871   4.411   6.280   7.654 -2.0747  2.4241 -0.2209
   91SAPS  C213 8872   4.522   6.393   7.806 -0.5075 -0.0206  0.0752
   91SAPS  H13R 8873   4.433   6.412   7.869  0.7880  1.4800  1.5462
   91SAPS  H13S 8874   4.577   6.489   7.804 -0.2471 -0.1770 -0.6514
   91SAPS  C214 8875   4.608   6.279   7.864  0.1719 -0.5165 -0.8662
   91SAPS  H14R 8876   4.697   6.259   7.803  1.7596  1.7838  0.5610
   91SAPS  C215 8877   4.578   6.212   7.976  0.1341  0.1571 -0.4395
   91SAPS  H15R 8878   4.639   6.126   8.006  1.7769  0.4204 -2.7474
   91SAPS  C216 8879   4.468   6.239   8.078  0.5826  0.1205 -0.1723
   91SAPS  H16R 8880   4.403   6.149   8.088  1.8827 -0.9255 -0.7365
   91SAPS  H16S 8881   4.410   6.331   8.058  3.0048  1.0943 -3.5594
   91SAPS  C217 8882   4.532   6.265   8.209  0.0570 -0.1134  0.2922
   91SAPS  H17R 8883   4.581   6.363   8.195  1.5629 -1.0844 -1.8185
   91SAPS  H17S 8884   4.605   6.185   8.235  0.1522 -0.2280 -0.3249
   91SAPS  C218 8885   4.427   6.291   8.320  0.0053 -0.5411 -0.1425
   91SAPS  H18R 8886   4.399   6.194   8.367 -1.1528 -0.8645 -1.4178
   91SAPS  H18S 8887   4.342   6.345   8.273 -0.6224  0.9530  2.4982
   91SAPS  C219 8888   4.487   6.384   8.425 -0.1065 -0.5599 -0.3203
   91SAPS  H19R 8889   4.516   6.487   8.396  1.3343 -0.4807  1.2858
   91SAPS  H19S 8890   4.581   6.334   8.457  1.0820  0.8295 -1.4646
   91SAPS  C220 8891   4.410   6.399   8.550  0.0519 -0.1392 -0.2654
   91SAPS  H20R 8892   4.303   6.394   8.521  0.1457 -0.3776 -0.5896
   91SAPS  H20S 8893   4.443   6.489   8.606  1.4295 -0.7499 -0.0439
   91SAPS  H20T 8894   4.427   6.320   8.626  0.2138  0.0768 -0.0802
   91SAPS   C33 8895   4.098   6.542   7.057 -0.1445 -0.0808 -0.0240
   91SAPS   H3X 8896   4.165   6.461   7.021  0.5425  0.8509 -0.9219
   91SAPS   H3Y 8897   3.999   6.500   7.082 -0.3825  0.5651  0.1483
   91SAPS   C34 8898   4.172   6.598   7.181 -0.0330 -0.3421  0.6263
   91SAPS   H4X 8899   4.117   6.692   7.206 -0.0726 -0.4461  0.9387
   91SAPS   H4Y 8900   4.275   6.630   7.156 -0.2769  0.6757  0.8701
   91SAPS   C35 8901   4.168   6.515   7.311 -0.3974  0.8816  0.5472
   91SAPS   H5X 8902   4.240   6.432   7.298 -1.1415 -0.0440  2.1334
   91SAPS   H5Y 8903   4.061   6.486   7.310  0.5792 -3.3719  0.6032
   91SAPS   C36 8904   4.204   6.593   7.440  0.3287 -0.1677  0.2736
   91SAPS   H6X 8905   4.143   6.684   7.425  1.3220  0.3443 -0.8638
   91SAPS   H6Y 8906   4.314   6.609   7.444  0.4459 -0.9257  0.2366
   91SAPS   C37 8907   4.151   6.529   7.575 -0.4332 -0.5013  1.0212
   91SAPS   H7X 8908   4.176   6.421   7.583  0.1924 -0.6963 -2.2422
   91SAPS   H7Y 8909   4.040   6.535   7.583 -0.1935  2.3313  4.0412
   91SAPS   C38 8910   4.196   6.602   7.702  0.0217 -0.1203  0.2513
   91SAPS   H8X 8911   4.195   6.712   7.693  1.8834  0.0305  1.2378
   91SAPS   H8Y 8912   4.304   6.588   7.725  0.3709  1.0016 -0.6342
   91SAPS   C39 8913   4.110   6.563   7.821  1.2502 -0.4229 -0.0190
   91SAPS   H9X 8914   4.129   6.458   7.853  0.5368 -0.9145 -1.1474
   91SAPS   H9Y 8915   4.000   6.573   7.805  1.1812  1.7004  1.3932
   91SAPS  C310 8916   4.156   6.641   7.954 -0.6600  0.1636  0.1918
   91SAPS  H10X 8917   4.150   6.750   7.931 -0.0639  0.5853  1.9169
   91SAPS  H10Y 8918   4.262   6.611   7.969 -0.7000 -0.8063 -1.2943
   91SAPS  C311 8919   4.081   6.613   8.084 -0.2081 -0.3449 -0.9761
   91SAPS  H11X 8920   4.088   6.504   8.104  2.6076 -0.5341 -2.4562
   91SAPS  H11Y 8921   3.978   6.654   8.087 -0.8558 -1.7173  3.6297
   91SAPS  C312 8922   4.157   6.683   8.199  0.3073  0.0917 -0.2819
   91SAPS  H12X 8923   4.157   6.795   8.196 -0.6851  0.0830 -2.4201
   91SAPS  H12Y 8924   4.266   6.659   8.204  0.3031  0.3251  1.8007
   91SAPS  C313 8925   4.098   6.641   8.333  0.0334  0.1668 -1.0314
   91SAPS  H13X 8926   4.149   6.685   8.422 -0.1824  0.8330 -1.2314
   91SAPS  H13Y 8927   4.093   6.531   8.350  0.7504  0.6381  3.9414
   91SAPS  C314 8928   3.955   6.690   8.340 -0.3981 -0.1225 -0.0952
   91SAPS  H14X 8929   3.898   6.615   8.279  1.2398 -1.6354  0.1503
   91SAPS  H14Y 8930   3.953   6.788   8.289  0.1607 -0.3024 -0.4667
   91SAPS  C315 8931   3.892   6.699   8.476 -0.2051 -0.0347  0.2319
   91SAPS  H15X 8932   3.898   6.604   8.532 -0.0975  1.4450  2.9038
   91SAPS  H15Y 8933   3.787   6.728   8.456 -0.2597 -0.7759 -0.6039
   91SAPS  C316 8934   3.951   6.815   8.574 -0.2095  1.6325  0.5234
   91SAPS  H16X 8935   4.039   6.767   8.621 -1.7991 -0.9935  1.0115
   91SAPS  H16Y 8936   3.889   6.829   8.665 -2.2725  2.5211 -0.9436
   91SAPS  C317 8937   3.993   6.951   8.519 -0.3218 -0.0537  0.3574
   91SAPS  H17X 8938   4.083   6.932   8.456  0.2126  0.3139  1.0102
   91SAPS  H17Y 8939   4.021   7.016   8.604  2.2622 -2.3820  1.4389
   91SAPS  C318 8940   3.872   7.019   8.453  0.1192 -0.0257  0.1758
   91SAPS  H18X 8941   3.880   7.118   8.403 -2.4767 -0.9268 -2.3027
   91SAPS  H18Y 8942   3.801   7.037   8.537  1.3862  2.1816  0.8326
   91SAPS  H18Z 8943   3.814   6.959   8.379  1.4396  0.7467 -1.5750
   92SAPS     N 8944   6.546   4.145   6.355 -0.0915 -0.3620  0.5839
   92SAPS   HN1 8945   6.634   4.172   6.307 -0.2929 -0.1123  0.3488
   92SAPS   HN2 8946   6.555   4.180   6.453  3.0848  1.4003 -0.2076
   92SAPS   HN3 8947   6.537   4.042   6.345 -1.5972 -0.3408  1.4174
   92SAPS   C12 8948   6.430   4.211   6.297  0.2861 -0.4762  0.5972
   92SAPS  H12A 8949   6.355   4.201   6.374  1.1482  0.8316  1.6388
   92SAPS   C13 8950   6.445   4.364   6.271 -0.1683  0.7129  0.2571
   92SAPS  O13A 8951   6.536   4.424   6.339 -1.2148  0.4115  0.9366
   92SAPS  O13B 8952   6.341   4.420   6.223 -0.0796  1.3699 -0.2427
   92SAPS   C11 8953   6.386   4.151   6.163 -0.0418  0.0067 -0.1987
   92SAPS  H11A 8954   6.475   4.162   6.097 -1.6098  1.9942 -2.1288
   92SAPS  H11B 8955   6.304   4.203   6.109  0.9072 -0.0053 -1.7222
   92SAPS     P 8956   6.321   3.908   6.065 -0.0185  0.2064  0.1617
   92SAPS   O13 8957   6.257   3.988   5.958 -0.2145  0.6933  0.0393
   92SAPS   O14 8958   6.442   3.842   6.031  0.2328  0.1089  0.2737
   92SAPS   O12 8959   6.359   4.010   6.179 -0.0919  0.2330 -0.2873
   92SAPS   O11 8960   6.210   3.802   6.112  0.2860 -0.1765 -0.0006
   92SAPS    C1 8961   6.101   3.860   6.185  0.2253 -0.0608  0.3180
   92SAPS    HA 8962   6.054   3.940   6.124  0.8951 -1.7703 -2.6510
   92SAPS    HB 8963   6.022   3.781   6.189 -0.1833  0.2103 -1.4916
   92SAPS    C2 8964   6.135   3.919   6.333 -0.1558 -0.5307 -0.1630
   92SAPS    HS 8965   6.181   4.019   6.318  1.3051 -1.1330  0.1312
   92SAPS   O21 8966   6.231   3.843   6.406  0.4918  0.3365  0.2270
   92SAPS   C21 8967   6.280   3.914   6.518  0.3745  0.1102  0.1276
   92SAPS   O22 8968   6.272   4.033   6.533  0.0620  0.2274  0.2612
   92SAPS   C22 8969   6.358   3.819   6.610 -0.0631  0.1436  0.2613
   92SAPS   H2R 8970   6.294   3.743   6.659  1.7454 -2.1006 -0.6570
   92SAPS   H2S 8971   6.431   3.769   6.542 -0.4438  0.3180 -0.2789
   92SAPS    C3 8972   6.008   3.945   6.414 -0.6998 -0.4705  0.0375
   92SAPS    HX 8973   5.947   4.023   6.363  0.8593  0.4726 -0.4486
   92SAPS    HY 8974   6.029   3.998   6.509 -2.2469 -0.7855  0.5870
   92SAPS   O31 8975   5.923   3.833   6.418 -0.0918 -0.2610 -0.1819
   92SAPS   C31 8976   5.884   3.808   6.543  0.6386 -0.5798 -0.1731
   92SAPS   O32 8977   5.899   3.879   6.641  0.2214  0.3540  0.7948
   92SAPS   C32 8978   5.828   3.663   6.546  0.2550 -0.0728 -0.1612
   92SAPS   H2X 8979   5.915   3.595   6.561  1.7525  1.9674  0.9117
   92SAPS   H2Y 8980   5.787   3.642   6.445  0.3924  1.0969 -0.4745
   92SAPS   C23 8981   6.436   3.899   6.715 -0.9329  0.3349 -0.4554
   92SAPS   H3R 8982   6.356   3.944   6.777 -0.5100  1.7566 -0.8831
   92SAPS   H3S 8983   6.482   3.988   6.666  0.2144  0.1708  0.2790
   92SAPS   C24 8984   6.546   3.820   6.792  0.1589 -0.3598  0.3016
   92SAPS   H4R 8985   6.625   3.782   6.724 -0.5028 -1.7156  0.2403
   92SAPS   H4S 8986   6.492   3.728   6.826 -3.8287 -0.6588 -5.3865
   92SAPS   C25 8987   6.609   3.894   6.899  0.6444 -0.4340  0.3939
   92SAPS   H5R 8988   6.687   3.963   6.863  0.7234 -1.5077 -1.6232
   92SAPS   C26 8989   6.609   3.864   7.036 -0.4591  0.3819  0.7756
   92SAPS   H6R 8990   6.666   3.924   7.108  0.2498  0.5774  0.0736
   92SAPS   C27 8991   6.527   3.766   7.114  0.4701 -0.1042  0.3353
   92SAPS   H7R 8992   6.595   3.679   7.132 -0.5656 -1.4895 -1.9847
   92SAPS   H7S 8993   6.445   3.728   7.049  1.0324 -0.0456 -0.4198
   92SAPS   C28 8994   6.467   3.817   7.238  0.2431 -0.6701 -0.0563
   92SAPS   H8R 8995   6.367   3.863   7.227  0.2430 -0.9959 -1.8836
   92SAPS   C29 8996   6.517   3.814   7.365  0.3593 -0.2542  1.0864
   92SAPS   H9R 8997   6.450   3.860   7.439 -2.7148  2.3474 -2.8515
   92SAPS  C210 8998   6.655   3.765   7.398 -0.2102 -0.8723  0.8778
   92SAPS  H10R 8999   6.714   3.856   7.422 -1.6871  0.0000  1.3219
   92SAPS  H10S 9000   6.700   3.714   7.311 -3.7699  0.6565 -2.1323
   92SAPS  C211 9001   6.648   3.678   7.511 -0.3228 -0.3476  0.2838
   92SAPS  H11R 9002   6.638   3.570   7.492 -0.9349 -0.5786  1.7389
   92SAPS  C212 9003   6.642   3.721   7.643 -0.0004 -0.1832  0.5211
   92SAPS  H12R 9004   6.622   3.645   7.719  1.2591 -0.4561  0.6027
   92SAPS  C213 9005   6.663   3.859   7.696  0.1204 -0.7732  0.3412
   92SAPS  H13R 9006   6.572   3.878   7.758 -0.9764 -0.1383 -1.3955
   92SAPS  H13S 9007   6.656   3.935   7.616  1.7367 -0.7550  0.1943
   92SAPS  C214 9008   6.796   3.890   7.768  0.6344  0.4162 -0.2014
   92SAPS  H14R 9009   6.887   3.850   7.723  0.0922 -0.8584 -0.1961
   92SAPS  C215 9010   6.813   3.933   7.890 -0.3965  0.3114 -0.3723
   92SAPS  H15R 9011   6.914   3.937   7.933 -0.8940 -1.9263  1.2002
   92SAPS  C216 9012   6.702   3.975   7.984  1.1346  0.3107  0.0760
   92SAPS  H16R 9013   6.606   4.005   7.936 -0.5787 -2.1276  1.7300
   92SAPS  H16S 9014   6.737   4.062   8.043  2.7947 -1.5521  2.0004
   92SAPS  C217 9015   6.668   3.850   8.073  0.4801  0.0918  0.5745
   92SAPS  H17R 9016   6.760   3.813   8.124  0.4259 -1.2835 -0.2599
   92SAPS  H17S 9017   6.629   3.770   8.007  2.0063  0.2372 -0.5498
   92SAPS  C218 9018   6.561   3.886   8.177  0.5476 -0.2377 -0.0534
   92SAPS  H18R 9019   6.459   3.903   8.137  0.2538  1.5004  1.2664
   92SAPS  H18S 9020   6.592   3.981   8.227  0.6260 -1.0205  1.4289
   92SAPS  C219 9021   6.550   3.777   8.283  0.3962  0.8356 -0.6177
   92SAPS  H19R 9022   6.639   3.769   8.349 -0.7380  2.2106  1.2044
   92SAPS  H19S 9023   6.549   3.685   8.222  2.5336  0.5382 -0.2826
   92SAPS  C220 9024   6.427   3.782   8.368 -0.2217 -0.1241 -0.1766
   92SAPS  H20R 9025   6.330   3.778   8.313 -0.4560 -0.6029  0.2717
   92SAPS  H20S 9026   6.432   3.876   8.427 -0.5517 -0.0740 -0.2258
   92SAPS  H20T 9027   6.422   3.702   8.445 -0.8054 -1.0683 -1.1684
   92SAPS   C33 9028   5.725   3.643   6.667 -0.6882 -0.2327  0.3445
   92SAPS   H3X 9029   5.630   3.693   6.640  0.4971  0.7989 -2.2431
   92SAPS   H3Y 9030   5.767   3.690   6.759  0.7675 -1.7274  0.5046
   92SAPS   C34 9031   5.716   3.497   6.697 -0.5525  0.4440  0.0501
   92SAPS   H4X 9032   5.818   3.458   6.715 -0.7872  0.0743  0.5981
   92SAPS   H4Y 9033   5.664   3.453   6.610  0.3503 -1.3640  0.3924
   92SAPS   C35 9034   5.646   3.465   6.837 -0.1650  0.1018  0.5299
   92SAPS   H5X 9035   5.724   3.479   6.915  2.0784 -0.4732 -1.4664
   92SAPS   H5Y 9036   5.621   3.357   6.833  1.3252 -0.2866  0.9282
   92SAPS   C36 9037   5.531   3.557   6.861  0.1073 -0.6259  0.1058
   92SAPS   H6X 9038   5.462   3.546   6.774 -1.0116 -0.4133  0.9414
   92SAPS   H6Y 9039   5.578   3.658   6.863 -0.0150 -0.5710  0.2070
   92SAPS   C37 9040   5.456   3.525   6.991 -0.2851  0.1948  0.5369
   92SAPS   H7X 9041   5.438   3.416   6.996  3.8306 -0.7995 -1.5959
   92SAPS   H7Y 9042   5.357   3.575   6.988 -0.6975 -0.6491 -0.3729
   92SAPS   C38 9043   5.533   3.562   7.119 -0.1448 -0.1821  0.1317
   92SAPS   H8X 9044   5.596   3.653   7.109 -0.4670  0.0087 -0.1409
   92SAPS   H8Y 9045   5.603   3.478   7.143 -1.2368 -0.5807  2.1532
   92SAPS   C39 9046   5.444   3.570   7.248 -0.1411 -0.4452 -0.4645
   92SAPS   H9X 9047   5.380   3.480   7.253 -0.2499 -0.2760  2.2558
   92SAPS   H9Y 9048   5.375   3.656   7.244  3.3278  2.5503 -1.6715
   92SAPS  C310 9049   5.527   3.560   7.377 -0.3606  0.2501  0.8070
   92SAPS  H10X 9050   5.472   3.626   7.449 -1.2945 -1.5271  1.7999
   92SAPS  H10Y 9051   5.626   3.601   7.351 -0.4588 -0.4493 -0.7554
   92SAPS  C311 9052   5.535   3.423   7.443 -0.1283 -1.1718 -0.0366
   92SAPS  H11X 9053   5.581   3.362   7.363 -0.0919 -1.3810  0.1441
   92SAPS  H11Y 9054   5.432   3.395   7.473 -0.5090 -0.2005 -0.3897
   92SAPS  C312 9055   5.626   3.428   7.561 -0.3368 -0.2146 -0.4268
   92SAPS  H12X 9056   5.580   3.480   7.648 -0.9141 -3.5816  1.4702
   92SAPS  H12Y 9057   5.725   3.465   7.529 -0.0387  0.0051  0.7212
   92SAPS  C313 9058   5.640   3.281   7.612 -0.2446 -0.1741  0.4941
   92SAPS  H13X 9059   5.700   3.214   7.546 -1.0486 -0.6800  0.2516
   92SAPS  H13Y 9060   5.538   3.240   7.627 -1.0993  0.6814 -2.3065
   92SAPS  C314 9061   5.704   3.276   7.754 -0.0656  0.1013  0.2174
   92SAPS  H14X 9062   5.651   3.354   7.812 -0.9350  0.9535 -1.6321
   92SAPS  H14Y 9063   5.811   3.306   7.747  1.1527 -3.9478 -1.2231
   92SAPS  C315 9064   5.696   3.138   7.819 -0.4053 -0.4241 -0.5397
   92SAPS  H15X 9065   5.762   3.075   7.756 -0.4548  1.9251 -3.1099
   92SAPS  H15Y 9066   5.602   3.080   7.809 -0.7696 -0.3667  1.8492
   92SAPS  C316 9067   5.729   3.147   7.970 -0.4082  0.5531  0.7535
   92SAPS  H16X 9068   5.650   3.202   8.026 -1.8902 -0.6625 -0.0686
   92SAPS  H16Y 9069   5.830   3.192   7.980 -1.1023  2.5885 -0.7883
   92SAPS  C317 9070   5.740   3.008   8.030  0.3025 -0.2978  0.1317
   92SAPS  H17X 9071   5.808   2.955   7.959 -0.6310 -0.7399 -0.4579
   92SAPS  H17Y 9072   5.640   2.960   8.040 -0.0439  0.1114 -1.1687
   92SAPS  C318 9073   5.795   3.019   8.170 -0.4812 -0.0906  0.1781
   92SAPS  H18X 9074   5.733   3.081   8.237 -1.3087 -2.1951  1.4638
   92SAPS  H18Y 9075   5.899   3.057   8.158 -0.4844 -0.6282 -2.1280
   92SAPS  H18Z 9076   5.810   2.925   8.228  1.4126 -0.3352 -0.6130
   93SAPS     N 9077   5.715   3.542   6.020  0.0744 -0.4195 -0.0304
   93SAPS   HN1 9078   5.632   3.577   5.967  0.1998  2.0136  1.2364
   93SAPS   HN2 9079   5.741   3.451   5.978  1.0631  0.3485 -1.1404
   93SAPS   HN3 9080   5.705   3.530   6.123  1.8997  0.6959  0.3244
   93SAPS   C12 9081   5.829   3.632   6.012  0.0165  0.7439  1.1143
   93SAPS  H12A 9082   5.895   3.609   6.095  2.2036 -0.9484 -0.9746
   93SAPS   C13 9083   5.914   3.618   5.876 -0.3227 -0.0113 -0.0594
   93SAPS  O13A 9084   5.881   3.546   5.779  1.3555 -0.2170 -0.0439
   93SAPS  O13B 9085   6.007   3.699   5.863 -0.4854  0.4075 -0.2071
   93SAPS   C11 9086   5.775   3.780   6.020 -0.3554 -0.4372  0.2843
   93SAPS  H11A 9087   5.724   3.797   5.922 -1.2095 -0.1787  0.7638
   93SAPS  H11B 9088   5.868   3.839   6.034  1.2399 -3.2058  2.2592
   93SAPS     P 9089   5.589   3.914   6.135  0.4319  0.4486 -0.2756
   93SAPS   O13 9090   5.662   4.037   6.176 -0.1004  0.2693 -0.0149
   93SAPS   O14 9091   5.519   3.926   6.006  0.1777 -0.4831 -0.0553
   93SAPS   O12 9092   5.693   3.795   6.138  0.0825 -0.7507 -0.1774
   93SAPS   O11 9093   5.486   3.871   6.247  0.7965  0.2605  1.2375
   93SAPS    C1 9094   5.527   3.845   6.382  0.4860  0.1125  0.5865
   93SAPS    HA 9095   5.445   3.790   6.433 -0.6141  0.5941 -0.6198
   93SAPS    HB 9096   5.623   3.789   6.375  0.6638  0.5761 -0.9897
   93SAPS    C2 9097   5.552   3.981   6.458 -0.5543 -0.4693 -0.1934
   93SAPS    HS 9098   5.643   4.032   6.420 -1.8390  1.8440 -0.3337
   93SAPS   O21 9099   5.570   3.930   6.590  0.9002  0.2124 -0.6101
   93SAPS   C21 9100   5.623   4.015   6.682  0.1253 -0.6333  0.2924
   93SAPS   O22 9101   5.675   4.121   6.662 -0.1982 -0.2795  0.0169
   93SAPS   C22 9102   5.606   3.957   6.820  0.3811  0.3501  0.1604
   93SAPS   H2R 9103   5.523   3.884   6.819 -0.4825  1.2768  1.3192
   93SAPS   H2S 9104   5.707   3.916   6.844  0.3184 -1.2629 -2.0330
   93SAPS    C3 9105   5.429   4.077   6.436  0.0090  1.2761  0.1465
   93SAPS    HX 9106   5.335   4.019   6.440  0.1164  1.1123  0.3334
   93SAPS    HY 9107   5.432   4.114   6.331 -0.8861  0.6791 -0.0964
   93SAPS   O31 9108   5.418   4.179   6.539 -0.3490 -0.2868  0.0785
   93SAPS   C31 9109   5.465   4.294   6.508  0.2065  0.2225  0.2182
   93SAPS   O32 9110   5.503   4.327   6.395  0.3760  0.7806  0.4025
   93SAPS   C32 9111   5.462   4.391   6.634  0.4998 -0.4387 -0.1862
   93SAPS   H2X 9112   5.459   4.490   6.582  1.0104 -1.6151 -2.5945
   93SAPS   H2Y 9113   5.563   4.387   6.680 -0.1271 -1.8384  1.1545
   93SAPS   C23 9114   5.562   4.064   6.926  0.1039  0.4889  0.0229
   93SAPS   H3R 9115   5.454   4.058   6.952  0.0029  1.3852 -0.1498
   93SAPS   H3S 9116   5.565   4.167   6.884  0.6409  0.5811  0.2845
   93SAPS   C24 9117   5.650   4.068   7.056  0.6240 -1.0796 -0.0581
   93SAPS   H4R 9118   5.610   4.146   7.124 -1.0486  0.1001 -2.2768
   93SAPS   H4S 9119   5.751   4.105   7.027 -0.7768  2.7642 -0.7309
   93SAPS   C25 9120   5.669   3.942   7.142  0.0995  0.0544 -0.1030
   93SAPS   H5R 9121   5.757   3.878   7.126  1.2142  1.1299  1.3537
   93SAPS   C26 9122   5.590   3.907   7.249  0.0625  0.7525 -0.7997
   93SAPS   H6R 9123   5.604   3.811   7.301 -1.6526  0.0251 -1.6140
   93SAPS   C27 9124   5.461   3.965   7.297  0.1640  0.0558  0.1479
   93SAPS   H7R 9125   5.386   3.890   7.331  0.2402 -1.0914 -2.0830
   93SAPS   H7S 9126   5.411   4.015   7.211 -1.5398  1.7904  2.0026
   93SAPS   C28 9127   5.478   4.087   7.391  0.1146 -0.4182 -0.2068
   93SAPS   H8R 9128   5.470   4.185   7.342 -1.6042 -0.8413 -0.8566
   93SAPS   C29 9129   5.468   4.084   7.527  0.3817  0.2030  0.2421
   93SAPS   H9R 9130   5.480   4.183   7.574 -0.1599  0.7749 -0.7811
   93SAPS  C210 9131   5.481   3.961   7.614  0.2687 -0.8586  0.4755
   93SAPS  H10R 9132   5.502   3.873   7.551  0.9445  0.5718 -1.3991
   93SAPS  H10S 9133   5.383   3.961   7.667 -0.4012  0.4682 -0.7017
   93SAPS  C211 9134   5.592   3.979   7.715 -0.1485  0.4281 -0.2781
   93SAPS  H11R 9135   5.685   4.021   7.674 -0.6192  1.5072 -0.2793
   93SAPS  C212 9136   5.590   3.944   7.850  0.5211 -0.2225  0.4666
   93SAPS  H12R 9137   5.671   3.965   7.921 -0.1378 -0.4112  1.3027
   93SAPS  C213 9138   5.469   3.866   7.906  0.0672 -0.5654 -0.3163
   93SAPS  H13R 9139   5.439   3.775   7.849 -0.6302 -1.0382  0.7578
   93SAPS  H13S 9140   5.387   3.941   7.898 -0.9574 -1.6057  0.1283
   93SAPS  C214 9141   5.492   3.827   8.047  0.6044 -0.3727  0.0727
   93SAPS  H14R 9142   5.455   3.897   8.123  1.4700  0.1256  0.0436
   93SAPS  C215 9143   5.533   3.711   8.097  0.3347 -0.0365 -0.5477
   93SAPS  H15R 9144   5.522   3.696   8.206  2.2614 -1.6876 -0.5101
   93SAPS  C216 9145   5.576   3.591   8.019 -0.1731  0.1206  0.0848
   93SAPS  H16R 9146   5.655   3.541   8.080  0.3222  1.5864  0.6717
   93SAPS  H16S 9147   5.627   3.611   7.923  2.0234 -1.5970  0.7923
   93SAPS  C217 9148   5.455   3.501   7.996  0.0195  0.7069 -0.1736
   93SAPS  H17R 9149   5.498   3.412   7.945  0.6970  0.0693  1.4324
   93SAPS  H17S 9150   5.388   3.544   7.919 -1.5119 -0.2402  0.5976
   93SAPS  C218 9151   5.372   3.445   8.110 -0.2447  0.1230 -0.5554
   93SAPS  H18R 9152   5.310   3.518   8.168  0.6328  0.0423  0.5181
   93SAPS  H18S 9153   5.451   3.408   8.179 -0.2120  0.0261 -0.6441
   93SAPS  C219 9154   5.284   3.323   8.071 -0.2713  0.0473 -0.0037
   93SAPS  H19R 9155   5.357   3.240   8.054  0.5366  0.9565 -1.1740
   93SAPS  H19S 9156   5.249   3.348   7.968  0.4484 -0.6482 -0.4358
   93SAPS  C220 9157   5.177   3.299   8.173 -0.7610  0.1379  0.1413
   93SAPS  H20R 9158   5.098   3.376   8.162 -0.7236  0.4152  1.6016
   93SAPS  H20S 9159   5.218   3.307   8.276 -1.6197 -1.3824  0.6308
   93SAPS  H20T 9160   5.136   3.196   8.176 -0.9122  0.2113  0.5359
   93SAPS   C33 9161   5.348   4.360   6.736 -0.4582  0.3992  0.3177
   93SAPS   H3X 9162   5.357   4.251   6.757 -0.3310  0.7143  2.0012
   93SAPS   H3Y 9163   5.251   4.373   6.684  0.1452  1.3126 -0.6221
   93SAPS   C34 9164   5.381   4.437   6.865 -1.0705 -0.1668 -0.8982
   93SAPS   H4X 9165   5.376   4.546   6.841  2.0640 -0.1441 -1.8717
   93SAPS   H4Y 9166   5.487   4.418   6.889 -0.7319  1.3642 -1.0967
   93SAPS   C35 9167   5.291   4.402   6.979  0.3258  0.3218 -0.2317
   93SAPS   H5X 9168   5.300   4.292   6.992 -1.1025  0.1317 -0.6957
   93SAPS   H5Y 9169   5.190   4.432   6.944 -0.1274 -1.7733 -0.8395
   93SAPS   C36 9170   5.335   4.473   7.105  0.3630  0.4733  0.4300
   93SAPS   H6X 9171   5.347   4.582   7.091  1.9377  0.1945 -0.6358
   93SAPS   H6Y 9172   5.435   4.436   7.136  0.4263  0.8410  0.6636
   93SAPS   C37 9173   5.254   4.438   7.229 -0.2945 -0.3592 -0.4898
   93SAPS   H7X 9174   5.251   4.327   7.234 -0.6152 -0.6487 -4.2739
   93SAPS   H7Y 9175   5.149   4.471   7.215 -1.1250 -2.2733  0.7698
   93SAPS   C38 9176   5.312   4.502   7.363 -0.2317 -0.0281 -0.6343
   93SAPS   H8X 9177   5.297   4.612   7.355  1.9839  0.3012 -0.9472
   93SAPS   H8Y 9178   5.422   4.500   7.381 -0.5905  1.8271  2.5104
   93SAPS   C39 9179   5.238   4.446   7.487  0.3493  1.1679 -0.2796
   93SAPS   H9X 9180   5.297   4.353   7.503  0.4462  1.1659 -0.6466
   93SAPS   H9Y 9181   5.134   4.418   7.458 -0.4543  1.9658  1.6463
   93SAPS  C310 9182   5.224   4.538   7.605 -0.5665 -1.4958 -0.1320
   93SAPS  H10X 9183   5.148   4.615   7.582  0.3293 -0.8056 -0.8801
   93SAPS  H10Y 9184   5.326   4.579   7.625 -1.7320  2.6777 -1.6468
   93SAPS  C311 9185   5.182   4.463   7.736 -0.1727  0.1709 -0.3502
   93SAPS  H11X 9186   5.114   4.382   7.705 -1.8670  0.9042  1.2423
   93SAPS  H11Y 9187   5.136   4.539   7.803  0.4328 -0.0938  0.3691
   93SAPS  C312 9188   5.297   4.392   7.807 -0.2810  0.0791 -0.5065
   93SAPS  H12X 9189   5.362   4.464   7.860 -1.4085  1.0196 -0.3568
   93SAPS  H12Y 9190   5.352   4.340   7.726  3.9069  3.0546  0.1435
   93SAPS  C313 9191   5.249   4.297   7.918  0.2129  0.2061 -0.5188
   93SAPS  H13X 9192   5.320   4.212   7.910 -0.1200 -0.1493  0.2085
   93SAPS  H13Y 9193   5.149   4.255   7.892 -1.0489  1.6825  1.5749
   93SAPS  C314 9194   5.246   4.348   8.057 -0.3110  0.1615 -0.2457
   93SAPS  H14X 9195   5.222   4.457   8.056 -0.4376  0.1303 -1.6475
   93SAPS  H14Y 9196   5.345   4.322   8.100  0.1584 -0.1468 -1.4774
   93SAPS  C315 9197   5.147   4.280   8.153 -0.4017 -0.0050  0.6267
   93SAPS  H15X 9198   5.045   4.322   8.139 -0.2579  0.3724  0.6866
   93SAPS  H15Y 9199   5.184   4.305   8.255  0.3664  1.4576  0.0265
   93SAPS  C316 9200   5.131   4.127   8.131 -0.3693  0.0351 -0.1795
   93SAPS  H16X 9201   5.222   4.074   8.099  0.0877 -0.5632  1.9192
   93SAPS  H16Y 9202   5.042   4.108   8.067  0.2958 -2.9426 -0.3698
   93SAPS  C317 9203   5.102   4.057   8.267 -0.2546  0.2442 -0.0467
   93SAPS  H17X 9204   5.185   4.071   8.340  1.1789  1.1079 -1.7465
   93SAPS  H17Y 9205   5.087   3.948   8.249 -1.2214 -0.1361  2.6597
   93SAPS  C318 9206   4.972   4.100   8.335 -0.7812 -0.3032 -0.8281
   93SAPS  H18X 9207   4.970   4.210   8.352 -1.4886 -0.7730  3.2724
   93SAPS  H18Y 9208   4.959   4.052   8.435 -2.3375  0.1869 -0.7611
   93SAPS  H18Z 9209   4.878   4.072   8.282 -0.3547 -1.2124 -1.1129
   94SAPS     N 9210   4.703   0.033   5.954  0.1814  0.1426  0.4905
   94SAPS   HN1 9211   4.650   0.078   5.878  0.5836 -1.7306 -0.9870
   94SAPS   HN2 9212   4.669  -0.065   5.948  1.4324 -0.2431 -1.2692
   94SAPS   HN3 9213   4.688   0.073   6.049  1.6766  0.7512  0.5047
   94SAPS   C12 9214   4.851   0.042   5.927 -0.3256  0.4802 -0.0621
   94SAPS  H12A 9215   4.883  -0.041   5.866 -1.2425  0.9600 -1.2290
   94SAPS   C13 9216   4.894   0.169   5.842 -0.8247  0.3186  0.3832
   94SAPS  O13A 9217   4.809   0.254   5.810  0.3159  0.1503 -0.1033
   94SAPS  O13B 9218   5.009   0.167   5.801  0.0135 -0.1202  0.6315
   94SAPS   C11 9219   4.920   0.032   6.068 -0.8028 -0.2901 -0.3045
   94SAPS  H11A 9220   5.026   0.003   6.056 -0.2020  1.2076  1.1049
   94SAPS  H11B 9221   4.878  -0.052   6.128 -1.5180  1.1856  1.3684
   94SAPS     P 9222   4.827   0.177   6.248 -0.1265 -0.0458 -0.2053
   94SAPS   O13 9223   4.841   0.312   6.293 -0.1028 -0.1357  0.1680
   94SAPS   O14 9224   4.687   0.137   6.206 -0.3303 -0.1551 -0.5514
   94SAPS   O12 9225   4.915   0.166   6.123  0.5739 -0.7488  0.1993
   94SAPS   O11 9226   4.881   0.064   6.353 -0.1179  0.0458 -0.3358
   94SAPS    C1 9227   5.020   0.019   6.370  0.3754 -1.1609  1.0923
   94SAPS    HA 9228   5.028  -0.079   6.320 -1.4138 -1.8292  2.0037
   94SAPS    HB 9229   5.084   0.081   6.304 -2.3605  1.1508  0.3868
   94SAPS    C2 9230   5.074   0.025   6.515 -0.1512  0.4664  0.1447
   94SAPS    HS 9231   5.184   0.040   6.516 -0.0010 -0.1118  2.9599
   94SAPS   O21 9232   5.034  -0.097   6.590 -0.0320 -0.5034 -0.0083
   94SAPS   C21 9233   5.093  -0.207   6.547  0.1522  0.2220 -1.2967
   94SAPS   O22 9234   5.178  -0.220   6.462 -0.8147 -0.9478  0.2130
   94SAPS   C22 9235   5.014  -0.319   6.622 -0.7955  0.1822  0.1889
   94SAPS   H2R 9236   4.907  -0.290   6.617 -0.7729  0.0867 -2.2430
   94SAPS   H2S 9237   5.028  -0.412   6.562  1.0457  0.3432  0.3156
   94SAPS    C3 9238   5.034   0.153   6.589 -0.0921  0.8221  0.1538
   94SAPS    HX 9239   4.923   0.151   6.580 -0.0916 -1.4448 -0.0283
   94SAPS    HY 9240   5.069   0.241   6.532  1.1855  1.6739  2.1474
   94SAPS   O31 9241   5.078   0.154   6.730 -0.0596 -0.0769 -0.4512
   94SAPS   C31 9242   4.982   0.143   6.816  0.3093 -0.7781 -0.3211
   94SAPS   O32 9243   4.861   0.144   6.795 -0.0574 -0.3482 -0.1911
   94SAPS   C32 9244   5.039   0.162   6.958 -0.1989 -0.3326 -0.0016
   94SAPS   H2X 9245   5.065   0.270   6.953 -0.7567 -0.1658  0.5550
   94SAPS   H2Y 9246   5.119   0.086   6.957  0.0416 -0.1387 -2.8902
   94SAPS   C23 9247   5.065  -0.348   6.766  0.3515 -0.2393  0.3635
   94SAPS   H3R 9248   5.169  -0.383   6.752  0.3306  0.2844 -1.3129
   94SAPS   H3S 9249   5.006  -0.430   6.812 -1.4476  2.5265  3.4456
   94SAPS   C24 9250   5.043  -0.225   6.860 -0.1298 -0.7152 -0.0479
   94SAPS   H4R 9251   4.945  -0.174   6.848 -1.2365 -2.3345  1.5007
   94SAPS   H4S 9252   5.124  -0.151   6.843  0.1961 -0.8555  0.8019
   94SAPS   C25 9253   5.052  -0.273   7.002 -0.8680 -0.0290  0.3230
   94SAPS   H5R 9254   4.970  -0.343   7.028 -1.3043  0.6825  0.8845
   94SAPS   C26 9255   5.152  -0.252   7.101  0.6806  0.7748  0.9275
   94SAPS   H6R 9256   5.152  -0.308   7.196  1.1021 -3.0479 -1.1307
   94SAPS   C27 9257   5.262  -0.156   7.081 -1.0913  0.4516  0.0559
   94SAPS   H7R 9258   5.239  -0.055   7.120  0.1542 -0.7011  4.3263
   94SAPS   H7S 9259   5.294  -0.139   6.976 -3.1998  0.8013 -0.5769
   94SAPS   C28 9260   5.385  -0.183   7.167  0.5778 -0.7067  0.0240
   94SAPS   H8R 9261   5.465  -0.224   7.103 -0.4798 -1.9275 -0.5445
   94SAPS   C29 9262   5.395  -0.173   7.301  0.1995 -0.0117  0.7390
   94SAPS   H9R 9263   5.493  -0.192   7.346  0.1854 -1.7779  0.1219
   94SAPS  C210 9264   5.281  -0.126   7.388 -0.3141  0.4712 -0.0009
   94SAPS  H10R 9265   5.190  -0.088   7.336 -0.6129 -0.7503 -0.4133
   94SAPS  H10S 9266   5.321  -0.041   7.446 -1.5847  1.1650 -0.0888
   94SAPS  C211 9267   5.242  -0.223   7.490  0.5013 -0.4594 -0.0393
   94SAPS  H11R 9268   5.167  -0.290   7.447 -1.1037  1.7700 -0.8995
   94SAPS  C212 9269   5.264  -0.234   7.625  0.3786  0.0425 -0.5955
   94SAPS  H12R 9270   5.203  -0.315   7.668  1.3376 -1.3578 -1.7540
   94SAPS  C213 9271   5.361  -0.152   7.706  0.4071  0.1365  0.6907
   94SAPS  H13R 9272   5.296  -0.094   7.775 -2.4142 -0.1067 -1.5755
   94SAPS  H13S 9273   5.398  -0.068   7.644  0.2096  1.2135  1.9892
   94SAPS  C214 9274   5.460  -0.237   7.782 -0.1659 -0.8031 -0.1921
   94SAPS  H14R 9275   5.475  -0.340   7.746 -0.3557 -0.9735  0.2043
   94SAPS  C215 9276   5.526  -0.203   7.892  0.3779 -0.4375  0.1841
   94SAPS  H15R 9277   5.600  -0.277   7.928 -0.0110 -0.3958  1.0929
   94SAPS  C216 9278   5.511  -0.075   7.971  0.0907 -0.1891  0.1006
   94SAPS  H16R 9279   5.454   0.003   7.916  1.2159 -0.6384 -1.7923
   94SAPS  H16S 9280   5.607  -0.031   8.005  0.1531 -1.5004  1.7452
   94SAPS  C217 9281   5.438  -0.095   8.106  0.0890  0.9647 -0.8305
   94SAPS  H17R 9282   5.333  -0.122   8.082  0.3908 -1.3842  0.1633
   94SAPS  H17S 9283   5.438   0.002   8.160  0.7541 -0.3768  1.7578
   94SAPS  C218 9284   5.492  -0.205   8.202 -0.5415 -0.0236 -0.3411
   94SAPS  H18R 9285   5.602  -0.199   8.216 -0.7048 -0.9007  1.6772
   94SAPS  H18S 9286   5.480  -0.299   8.144 -0.7059  0.9390 -1.9214
   94SAPS  C219 9287   5.433  -0.211   8.345  0.1936 -0.1601  0.4814
   94SAPS  H19R 9288   5.324  -0.227   8.334  0.1804  0.5060 -0.4861
   94SAPS  H19S 9289   5.435  -0.107   8.381 -3.0321 -0.2906  1.2949
   94SAPS  C220 9290   5.511  -0.311   8.436 -0.8389 -0.0142 -0.2543
   94SAPS  H20R 9291   5.518  -0.408   8.382 -2.0935 -0.0983 -0.2891
   94SAPS  H20S 9292   5.461  -0.331   8.533  2.0604 -0.3557  1.2769
   94SAPS  H20T 9293   5.612  -0.270   8.455 -1.1145  0.1771  0.8069
   94SAPS   C33 9294   4.933   0.132   7.065  0.4252 -0.7323 -0.0743
   94SAPS   H3X 9295   4.905   0.025   7.060 -0.1109 -0.5626 -0.6577
   94SAPS   H3Y 9296   4.847   0.199   7.045  1.4219 -0.0023 -2.2362
   94SAPS   C34 9297   4.988   0.153   7.205 -0.0383 -0.4033  0.3695
   94SAPS   H4X 9298   5.023   0.258   7.203 -1.5890  0.1395  0.6390
   94SAPS   H4Y 9299   5.075   0.085   7.221 -0.3325 -0.6699  0.8544
   94SAPS   C35 9300   4.896   0.103   7.314  1.4114 -0.1685 -0.2228
   94SAPS   H5X 9301   4.872  -0.005   7.319  3.1324 -0.5528  0.1428
   94SAPS   H5Y 9302   4.800   0.160   7.319  1.9565  0.7156  0.3333
   94SAPS   C36 9303   4.963   0.130   7.452  0.0480 -0.1948  0.2962
   94SAPS   H6X 9304   5.016   0.228   7.456 -1.9375  0.8721  3.0724
   94SAPS   H6Y 9305   5.033   0.044   7.464 -1.5276 -1.5163  0.2830
   94SAPS   C37 9306   4.860   0.129   7.567 -0.2814 -0.5377 -0.3125
   94SAPS   H7X 9307   4.788   0.049   7.540 -0.3978 -0.4424 -0.2865
   94SAPS   H7Y 9308   4.802   0.224   7.563  0.7858  0.2568  1.5592
   94SAPS   C38 9309   4.917   0.113   7.708  0.3529 -0.1186 -0.2260
   94SAPS   H8X 9310   4.836   0.142   7.779 -0.6345  1.0690 -1.7775
   94SAPS   H8Y 9311   5.006   0.175   7.733  0.4652 -0.9832  1.7482
   94SAPS   C39 9312   4.948  -0.029   7.738 -0.5214  0.7616  0.4344
   94SAPS   H9X 9313   5.032  -0.051   7.668 -1.2940  2.5876 -1.1764
   94SAPS   H9Y 9314   4.854  -0.084   7.717  0.2450 -0.3763 -0.1370
   94SAPS  C310 9315   5.000  -0.051   7.878  0.0679  0.0567  0.3346
   94SAPS  H10X 9316   4.931  -0.009   7.955 -0.6479 -2.0349  0.8794
   94SAPS  H10Y 9317   5.099  -0.002   7.892  0.6474 -0.9575 -0.1183
   94SAPS  C311 9318   5.042  -0.194   7.911  0.0056  0.3089 -0.2479
   94SAPS  H11X 9319   5.084  -0.198   8.014 -0.3958 -1.9193 -0.1256
   94SAPS  H11Y 9320   5.123  -0.230   7.845 -1.0817 -1.2213 -0.7968
   94SAPS  C312 9321   4.924  -0.290   7.907  0.0671 -0.1047 -0.4420
   94SAPS  H12X 9322   4.905  -0.323   7.803  1.4056 -1.2996 -0.3294
   94SAPS  H12Y 9323   4.834  -0.242   7.952  0.4878  0.5008 -0.2408
   94SAPS  C313 9324   4.941  -0.410   8.004  0.0017  0.2978  0.4192
   94SAPS  H13X 9325   5.047  -0.436   7.987  0.5617  1.5416  1.8250
   94SAPS  H13Y 9326   4.876  -0.498   7.979  0.2284  0.7058 -1.8190
   94SAPS  C314 9327   4.921  -0.382   8.158 -0.4657  0.7818  0.1973
   94SAPS  H14X 9328   4.827  -0.326   8.175 -0.4303  0.8684  0.1081
   94SAPS  H14Y 9329   4.998  -0.315   8.204 -1.6375  2.5294 -0.3049
   94SAPS  C315 9330   4.923  -0.510   8.254  0.0229 -0.1995  0.0281
   94SAPS  H15X 9331   4.961  -0.587   8.184  1.0656 -0.0011  0.3635
   94SAPS  H15Y 9332   4.821  -0.543   8.285  0.1333 -1.1837 -0.6435
   94SAPS  C316 9333   5.016  -0.504   8.373  0.0263 -0.5132 -0.1505
   94SAPS  H16X 9334   4.990  -0.405   8.416  2.2926  0.3424 -0.6011
   94SAPS  H16Y 9335   5.123  -0.486   8.347  0.1761 -0.7432  0.2759
   94SAPS  C317 9336   5.011  -0.618   8.485  0.0515 -0.1964  0.4022
   94SAPS  H17X 9337   5.051  -0.709   8.435  1.6851  0.0303  1.2470
   94SAPS  H17Y 9338   4.903  -0.635   8.507 -0.4285  1.5383 -0.4229
   94SAPS  C318 9339   5.090  -0.587   8.615 -0.3143 -0.0748  0.3932
   94SAPS  H18X 9340   5.076  -0.651   8.704 -1.8556  0.1733  0.3481
   94SAPS  H18Y 9341   5.065  -0.480   8.635 -1.0016  0.1304 -1.3552
   94SAPS  H18Z 9342   5.200  -0.587   8.594 -0.6631 -0.6804 -1.7256
   95SAPS     N 9343   1.942   4.960   6.277  0.0787 -0.5269 -0.0546
   95SAPS   HN1 9344   1.954   4.924   6.374  3.1241  1.3273  0.4099
   95SAPS   HN2 9345   2.023   4.914   6.231  0.2381 -1.1715  0.8322
   95SAPS   HN3 9346   1.961   5.061   6.293 -0.1880 -0.4137 -0.4641
   95SAPS   C12 9347   1.823   4.922   6.214  0.3418  0.0078 -0.0545
   95SAPS  H12A 9348   1.829   4.951   6.110 -0.9115 -1.6541 -0.6403
   95SAPS   C13 9349   1.789   4.773   6.221  0.0068  0.2347  0.6496
   95SAPS  O13A 9350   1.858   4.690   6.288  0.0909 -0.0738  0.3780
   95SAPS  O13B 9351   1.685   4.730   6.164  0.2531  0.1854  0.2806
   95SAPS   C11 9352   1.708   5.006   6.276  0.4980  0.8551 -0.4267
   95SAPS  H11A 9353   1.718   5.020   6.386  0.8765  0.9729 -0.4766
   95SAPS  H11B 9354   1.609   4.958   6.261  1.1986 -0.9353  0.3481
   95SAPS     P 9355   1.605   5.253   6.255 -0.3612  0.5155  0.5970
   95SAPS   O13 9356   1.646   5.375   6.184 -0.2602  0.0963  0.6734
   95SAPS   O14 9357   1.470   5.207   6.231  0.4136  0.5996 -0.5659
   95SAPS   O12 9358   1.710   5.135   6.216  0.2150 -0.1459 -0.0380
   95SAPS   O11 9359   1.620   5.282   6.416 -0.2336  0.0184  0.2929
   95SAPS    C1 9360   1.716   5.373   6.466  0.3993  1.0245 -0.3319
   95SAPS    HA 9361   1.773   5.418   6.382  0.3178  1.7476 -0.0060
   95SAPS    HB 9362   1.664   5.454   6.521  1.1145  1.3820 -0.1781
   95SAPS    C2 9363   1.815   5.302   6.556 -0.3113 -0.2164 -0.0870
   95SAPS    HS 9364   1.861   5.232   6.483 -0.4008  1.9878 -2.4066
   95SAPS   O21 9365   1.751   5.232   6.662  0.3835  0.0203 -0.3998
   95SAPS   C21 9366   1.830   5.146   6.725 -0.2656  0.7958 -0.6687
   95SAPS   O22 9367   1.938   5.096   6.691  0.1746 -0.4072 -0.3820
   95SAPS   C22 9368   1.758   5.110   6.857  0.6899 -0.1887 -0.6833
   95SAPS   H2R 9369   1.766   5.198   6.924  1.6177 -0.0600 -0.9543
   95SAPS   H2S 9370   1.653   5.087   6.830  0.2098 -0.1685  1.0340
   95SAPS    C3 9371   1.929   5.398   6.600  0.6107  0.3261 -0.5554
   95SAPS    HX 9372   1.976   5.433   6.505 -2.1072  1.7948 -1.4854
   95SAPS    HY 9373   2.003   5.335   6.653  1.2705  0.1547 -1.6495
   95SAPS   O31 9374   1.875   5.513   6.666  0.1574 -0.1048 -0.5622
   95SAPS   C31 9375   1.891   5.507   6.799  0.8102 -0.0222 -0.6451
   95SAPS   O32 9376   1.946   5.424   6.869 -0.1007  0.5130  0.5536
   95SAPS   C32 9377   1.813   5.618   6.860  0.3567 -0.1120 -0.3888
   95SAPS   H2X 9378   1.841   5.713   6.810  3.0622 -0.5999  0.0377
   95SAPS   H2Y 9379   1.865   5.625   6.958  1.4581 -2.1763 -0.7874
   95SAPS   C23 9380   1.821   4.976   6.913 -0.7813  0.5949  0.0081
   95SAPS   H3R 9381   1.928   5.000   6.925 -0.3540 -0.8654 -0.6529
   95SAPS   H3S 9382   1.817   4.898   6.833  1.4661  0.2523  0.1616
   95SAPS   C24 9383   1.759   4.914   7.041  0.0931  0.1135  1.1578
   95SAPS   H4R 9384   1.670   4.854   7.013 -0.5761  1.8649 -0.8329
   95SAPS   H4S 9385   1.718   4.995   7.106  2.3552  0.5167  2.1636
   95SAPS   C25 9386   1.852   4.822   7.112  0.0126 -0.6428  0.5778
   95SAPS   H5R 9387   1.891   4.736   7.056 -1.7244 -1.5223  0.6559
   95SAPS   C26 9388   1.898   4.833   7.235 -0.0152 -0.6689 -0.4512
   95SAPS   H6R 9389   1.979   4.770   7.274 -0.9440 -1.7076 -0.1287
   95SAPS   C27 9390   1.849   4.935   7.342 -0.4216 -0.0440 -0.3102
   95SAPS   H7R 9391   1.862   4.909   7.449  1.7094  1.4844 -0.1513
   95SAPS   H7S 9392   1.745   4.967   7.317 -1.3472 -1.9232  0.8808
   95SAPS   C28 9393   1.934   5.063   7.317 -0.5017  0.0123 -0.0672
   95SAPS   H8R 9394   1.908   5.114   7.223  1.1378 -1.6432 -1.5017
   95SAPS   C29 9395   2.039   5.110   7.397  0.8646  0.2703 -0.4479
   95SAPS   H9R 9396   2.085   5.208   7.376 -0.4961  1.1976  0.6591
   95SAPS  C210 9397   2.098   5.034   7.515 -0.6631 -0.2872  0.1898
   95SAPS  H10R 9398   2.062   4.930   7.529  0.4152 -0.7135 -0.1636
   95SAPS  H10S 9399   2.060   5.081   7.608  0.1563  2.4741 -0.7590
   95SAPS  C211 9400   2.250   5.027   7.507 -0.2992 -0.1182  0.0447
   95SAPS  H11R 9401   2.291   4.988   7.413  2.3113 -0.2219  1.1486
   95SAPS  C212 9402   2.338   5.060   7.604 -0.3458 -0.7336 -0.0930
   95SAPS  H12R 9403   2.446   5.041   7.592  0.3349  0.1118  3.5176
   95SAPS  C213 9404   2.293   5.107   7.740 -1.0493 -0.2037 -0.7847
   95SAPS  H13R 9405   2.185   5.125   7.757 -0.6768 -0.7451  3.0207
   95SAPS  H13S 9406   2.345   5.204   7.755  2.2191 -1.9543  0.3683
   95SAPS  C214 9407   2.340   5.008   7.850  0.2807  0.1208  0.3145
   95SAPS  H14R 9408   2.311   4.906   7.821 -2.6855  1.5422 -2.3570
   95SAPS  C215 9409   2.394   5.037   7.968  0.2782 -0.2648 -0.5802
   95SAPS  H15R 9410   2.437   4.954   8.026  0.1066  0.2164  0.2455
   95SAPS  C216 9411   2.415   5.175   8.028  0.0258 -0.2977  0.4682
   95SAPS  H16R 9412   2.338   5.251   8.002 -0.1677 -0.8736 -0.6677
   95SAPS  H16S 9413   2.515   5.210   7.994  0.8841 -1.1787  1.9732
   95SAPS  C217 9414   2.426   5.178   8.179  0.0191  0.2452 -0.4349
   95SAPS  H17R 9415   2.366   5.096   8.222  2.5997 -1.3889  0.3178
   95SAPS  H17S 9416   2.389   5.270   8.228 -0.5427 -0.3477  0.2730
   95SAPS  C218 9417   2.570   5.154   8.226 -0.8308 -0.0343  0.2576
   95SAPS  H18R 9418   2.642   5.228   8.185 -2.3567  1.2173 -0.2794
   95SAPS  H18S 9419   2.611   5.055   8.197  1.0544  0.6354  0.5079
   95SAPS  C219 9420   2.584   5.162   8.378 -0.2689  0.5238  0.5260
   95SAPS  H19R 9421   2.590   5.268   8.412 -0.4126 -0.0071  2.3231
   95SAPS  H19S 9422   2.682   5.116   8.406 -0.2870 -0.4396 -0.9099
   95SAPS  C220 9423   2.477   5.096   8.453  0.0761  0.1673 -0.1692
   95SAPS  H20R 9424   2.376   5.130   8.421  0.2047  0.5701 -0.1458
   95SAPS  H20S 9425   2.508   5.111   8.559  0.4400  1.2169 -0.4135
   95SAPS  H20T 9426   2.468   4.987   8.433 -2.3847  0.8129 -3.5156
   95SAPS   C33 9427   1.660   5.574   6.868 -0.6496 -0.6800 -0.4547
   95SAPS   H3X 9428   1.625   5.513   6.781 -0.3163 -1.1194 -0.2890
   95SAPS   H3Y 9429   1.602   5.667   6.879  0.4690  0.0179 -0.2353
   95SAPS   C34 9430   1.621   5.512   7.004 -0.1574  0.2003 -0.4590
   95SAPS   H4X 9431   1.688   5.426   7.027 -0.8840  0.1171  1.6373
   95SAPS   H4Y 9432   1.516   5.477   6.993 -0.8691  2.5781 -1.9947
   95SAPS   C35 9433   1.608   5.618   7.118  0.7298  0.5261 -0.1714
   95SAPS   H5X 9434   1.522   5.680   7.088  0.9337  0.9522  0.1200
   95SAPS   H5Y 9435   1.700   5.680   7.129  1.3130  0.1522 -2.3668
   95SAPS   C36 9436   1.563   5.562   7.249  0.3633 -0.0832 -0.1118
   95SAPS   H6X 9437   1.488   5.493   7.207  0.4676 -0.0586 -0.3424
   95SAPS   H6Y 9438   1.516   5.636   7.316 -1.7071  0.6670 -2.2590
   95SAPS   C37 9439   1.669   5.480   7.331  0.1563 -0.0351 -0.0109
   95SAPS   H7X 9440   1.750   5.550   7.360  0.5942 -0.9829  1.1115
   95SAPS   H7Y 9441   1.716   5.397   7.274 -1.5074 -1.0198 -0.0075
   95SAPS   C38 9442   1.628   5.428   7.468  0.6300 -0.0884  0.3796
   95SAPS   H8X 9443   1.549   5.354   7.444  1.1363  0.4691 -3.8141
   95SAPS   H8Y 9444   1.570   5.505   7.523 -1.0053  0.4865 -1.9950
   95SAPS   C39 9445   1.742   5.362   7.540 -0.1372 -0.5900  0.4957
   95SAPS   H9X 9446   1.809   5.442   7.577 -1.0148 -0.0210  0.9055
   95SAPS   H9Y 9447   1.811   5.307   7.472 -2.4847 -0.5910 -2.1039
   95SAPS  C310 9448   1.702   5.287   7.662  0.8396  0.4568 -0.5856
   95SAPS  H10X 9449   1.639   5.202   7.628 -0.1601  1.7322 -2.1210
   95SAPS  H10Y 9450   1.632   5.348   7.724  0.2654  0.3056 -1.0715
   95SAPS  C311 9451   1.823   5.238   7.744 -0.2053 -0.1135 -0.3952
   95SAPS  H11X 9452   1.893   5.324   7.755  1.9365 -1.7190 -0.9042
   95SAPS  H11Y 9453   1.894   5.171   7.691  2.5952  0.0390  2.7979
   95SAPS  C312 9454   1.791   5.170   7.874  0.6016  0.7098 -1.1024
   95SAPS  H12X 9455   1.722   5.086   7.851 -0.7727  0.8548  1.9382
   95SAPS  H12Y 9456   1.743   5.242   7.944  1.3678 -1.7813  2.2655
   95SAPS  C313 9457   1.915   5.115   7.948  0.1293 -0.2813 -0.2789
   95SAPS  H13X 9458   1.996   5.191   7.934  0.5996 -0.6929  0.1577
   95SAPS  H13Y 9459   1.944   5.028   7.886 -1.9885 -1.0407 -0.2699
   95SAPS  C314 9460   1.886   5.068   8.089  0.3508 -0.1744 -0.3392
   95SAPS  H14X 9461   1.790   5.014   8.104 -0.1673  1.3485  2.5956
   95SAPS  H14Y 9462   1.863   5.154   8.155  1.9953 -1.2534  1.7883
   95SAPS  C315 9463   2.005   4.991   8.150 -0.7419 -0.8370 -0.2744
   95SAPS  H15X 9464   2.094   5.057   8.160 -0.9039 -0.4084 -1.4609
   95SAPS  H15Y 9465   2.040   4.913   8.079  0.7386 -1.4626  1.0725
   95SAPS  C316 9466   1.969   4.927   8.282 -0.1503 -0.9684 -0.2674
   95SAPS  H16X 9467   2.051   4.859   8.314  0.0131 -0.0576  1.3738
   95SAPS  H16Y 9468   1.879   4.862   8.284  0.4093 -1.7405  0.5781
   95SAPS  C317 9469   1.924   5.029   8.392  0.1282  0.3541 -0.2680
   95SAPS  H17X 9470   1.900   4.971   8.484  1.6917  0.0298 -0.0338
   95SAPS  H17Y 9471   1.830   5.081   8.363 -0.0369 -1.0545 -2.4988
   95SAPS  C318 9472   2.035   5.130   8.421 -0.2350 -0.4707  0.5063
   95SAPS  H18X 9473   2.001   5.184   8.512 -0.9503  2.5658 -1.4202
   95SAPS  H18Y 9474   2.055   5.201   8.339  2.2023  0.3603  1.7153
   95SAPS  H18Z 9475   2.135   5.087   8.442  0.7773  0.5710 -1.8476
   96SAPS     N 9476   2.181   0.042   6.091  0.1692  0.6743 -0.1505
   96SAPS   HN1 9477   2.188   0.134   6.140 -0.7801  0.5151  0.3103
   96SAPS   HN2 9478   2.170  -0.029   6.166 -0.0734  2.6601  1.7793
   96SAPS   HN3 9479   2.268   0.025   6.037  0.7364  1.7087  0.4010
   96SAPS   C12 9480   2.053   0.037   6.011  1.3264 -0.1380 -0.2852
   96SAPS  H12A 9481   1.971   0.068   6.073  0.8670 -1.7101 -0.0750
   96SAPS   C13 9482   2.052   0.132   5.884  0.2606 -0.0974  0.1348
   96SAPS  O13A 9483   2.133   0.226   5.870 -0.0976  0.3179 -0.3851
   96SAPS  O13B 9484   1.939   0.140   5.828 -0.0077  0.1009 -0.1295
   96SAPS   C11 9485   2.022  -0.101   5.965  0.5969  0.3590 -0.1760
   96SAPS  H11A 9486   2.112  -0.139   5.913  0.1976 -0.8615 -0.0200
   96SAPS  H11B 9487   1.940  -0.093   5.891 -1.2368  1.4177  1.8567
   96SAPS     P 9488   2.012  -0.324   6.115 -0.1109 -0.0477  0.6930
   96SAPS   O13 9489   1.941  -0.412   6.020  0.9096  0.0401 -0.3936
   96SAPS   O14 9490   2.158  -0.339   6.137  0.1426 -0.3859  0.1840
   96SAPS   O12 9491   1.981  -0.174   6.073  0.2683 -0.0921  0.0264
   96SAPS   O11 9492   1.931  -0.327   6.258  0.0204 -0.0003  0.9815
   96SAPS    C1 9493   1.907  -0.451   6.325  0.2109 -0.4674 -0.2459
   96SAPS    HA 9494   1.810  -0.485   6.285  0.3860  0.7732 -1.7867
   96SAPS    HB 9495   1.972  -0.535   6.290  2.3688  0.9668  0.0896
   96SAPS    C2 9496   1.908  -0.438   6.474 -0.3901 -0.3873 -0.7984
   96SAPS    HS 9497   1.861  -0.340   6.498 -3.3442 -2.1184  1.1508
   96SAPS   O21 9498   2.041  -0.453   6.517  0.3868  0.0537 -0.2113
   96SAPS   C21 9499   2.102  -0.362   6.596  0.0392 -0.0198  0.2743
   96SAPS   O22 9500   2.051  -0.258   6.626 -0.2642 -0.3057  0.3748
   96SAPS   C22 9501   2.237  -0.407   6.654 -0.0486  0.1901  0.0612
   96SAPS   H2R 9502   2.224  -0.507   6.700  0.4430  0.7173  1.3781
   96SAPS   H2S 9503   2.301  -0.411   6.563  0.8775  0.0805  0.7073
   96SAPS    C3 9504   1.809  -0.544   6.541  0.4957 -0.0562  0.0633
   96SAPS    HX 9505   1.838  -0.643   6.500 -1.2554 -1.3547  1.8316
   96SAPS    HY 9506   1.705  -0.519   6.514 -0.0992  0.7989  2.8602
   96SAPS   O31 9507   1.831  -0.548   6.682  0.3116  0.1664  0.6070
   96SAPS   C31 9508   1.786  -0.444   6.742  0.0111 -0.3988  0.2214
   96SAPS   O32 9509   1.745  -0.347   6.687  0.1709 -0.1830  0.4838
   96SAPS   C32 9510   1.814  -0.464   6.887  0.4699  0.0504  0.9721
   96SAPS   H2X 9511   1.912  -0.516   6.888  0.3959 -0.6721 -3.6823
   96SAPS   H2Y 9512   1.735  -0.529   6.930 -0.6979  1.2302  0.6751
   96SAPS   C23 9513   2.301  -0.317   6.757  0.1238 -0.4298 -0.4268
   96SAPS   H3R 9514   2.330  -0.213   6.733  1.5241 -1.3224 -2.9782
   96SAPS   H3S 9515   2.404  -0.356   6.770  1.0057  1.2969 -1.8571
   96SAPS   C24 9516   2.241  -0.320   6.900  0.0574 -0.1613 -0.2072
   96SAPS   H4R 9517   2.315  -0.338   6.982  1.1979 -2.8688 -1.7139
   96SAPS   H4S 9518   2.182  -0.413   6.888  0.4205 -0.8181  2.4319
   96SAPS   C25 9519   2.144  -0.203   6.924 -0.1271  0.3466  0.3630
   96SAPS   H5R 9520   2.053  -0.203   6.862  0.3409  0.3725 -0.3290
   96SAPS   C26 9521   2.168  -0.097   7.012 -0.6642  0.2714  0.3337
   96SAPS   H6R 9522   2.087  -0.024   7.019 -0.9324 -0.1867  3.3440
   96SAPS   C27 9523   2.287  -0.080   7.100  0.3435 -0.0000  0.4234
   96SAPS   H7R 9524   2.289   0.030   7.112  0.5885 -0.0589  0.9302
   96SAPS   H7S 9525   2.385  -0.112   7.057  0.9109  0.5134  1.3159
   96SAPS   C28 9526   2.269  -0.151   7.225 -0.1313 -0.0110 -0.0746
   96SAPS   H8R 9527   2.217  -0.248   7.218  2.7296 -1.8926  2.3907
   96SAPS   C29 9528   2.306  -0.104   7.348 -0.1520 -0.1705  0.3900
   96SAPS   H9R 9529   2.297  -0.163   7.441  1.9467 -0.9692  0.1460
   96SAPS  C210 9530   2.373   0.033   7.361  0.2999 -0.1289 -0.4499
   96SAPS  H10R 9531   2.436   0.055   7.272  2.9035  0.0777  1.3125
   96SAPS  H10S 9532   2.439   0.015   7.449 -2.3170 -3.1840  1.0805
   96SAPS  C211 9533   2.287   0.155   7.392  0.1542  0.6128  0.1089
   96SAPS  H11R 9534   2.242   0.194   7.300 -0.2182 -2.1202 -0.9252
   96SAPS  C212 9535   2.270   0.219   7.512  0.7139  0.0236  0.8956
   96SAPS  H12R 9536   2.218   0.315   7.528  0.6985 -0.2402  2.5676
   96SAPS  C213 9537   2.329   0.172   7.647 -0.4840 -0.0402 -0.0079
   96SAPS  H13R 9538   2.400   0.250   7.682  1.7964 -1.0456 -2.0282
   96SAPS  H13S 9539   2.397   0.083   7.645  0.4986  0.6141  1.7678
   96SAPS  C214 9540   2.217   0.150   7.746 -0.1819  0.1786  0.0253
   96SAPS  H14R 9541   2.181   0.046   7.746  0.5956 -0.1482 -2.1182
   96SAPS  C215 9542   2.171   0.233   7.845 -0.4907  0.3029 -1.1533
   96SAPS  H15R 9543   2.091   0.202   7.914  2.0341 -0.3720  1.6902
   96SAPS  C216 9544   2.240   0.365   7.885 -0.4558 -0.1800 -0.1696
   96SAPS  H16R 9545   2.192   0.459   7.849 -0.0502 -0.1460 -0.6355
   96SAPS  H16S 9546   2.348   0.354   7.862 -0.3947 -1.9251  0.8083
   96SAPS  C217 9547   2.256   0.394   8.040  0.0123  0.7893 -0.5788
   96SAPS  H17R 9548   2.243   0.302   8.101 -2.1656  0.5874 -1.2290
   96SAPS  H17S 9549   2.171   0.460   8.067 -0.2438  1.0451 -1.9228
   96SAPS  C218 9550   2.390   0.456   8.067  0.1833  0.5146 -0.5671
   96SAPS  H18R 9551   2.418   0.539   7.998  2.2733  0.3046 -0.0378
   96SAPS  H18S 9552   2.474   0.383   8.062  0.6739  0.9833  0.3681
   96SAPS  C219 9553   2.408   0.522   8.199  0.0747 -0.0476  0.2244
   96SAPS  H19R 9554   2.389   0.459   8.289 -3.3249  2.7981  1.7719
   96SAPS  H19S 9555   2.324   0.594   8.217  0.4742  0.2691  0.8720
   96SAPS  C220 9556   2.533   0.601   8.212 -0.1622 -0.0729 -1.0844
   96SAPS  H20R 9557   2.552   0.678   8.134 -0.4202  0.7865 -0.3210
   96SAPS  H20S 9558   2.617   0.530   8.196 -1.0185 -1.2506 -0.5186
   96SAPS  H20T 9559   2.539   0.647   8.313 -0.6866 -2.1140 -0.0800
   96SAPS   C33 9560   1.813  -0.344   6.986  0.5636 -0.4681  0.2080
   96SAPS   H3X 9561   1.704  -0.325   7.002  0.5425  1.7662 -1.8715
   96SAPS   H3Y 9562   1.861  -0.252   6.946  1.7757 -1.3072 -0.3077
   96SAPS   C34 9563   1.886  -0.360   7.119 -0.3674 -0.8924  0.3317
   96SAPS   H4X 9564   1.924  -0.265   7.162  0.9599 -0.3132 -1.8996
   96SAPS   H4Y 9565   1.981  -0.417   7.106 -1.0208 -1.8527 -0.3278
   96SAPS   C35 9566   1.796  -0.436   7.215 -0.9842 -0.4078  0.6180
   96SAPS   H5X 9567   1.763  -0.538   7.189 -2.8330  0.0299  1.0569
   96SAPS   H5Y 9568   1.702  -0.379   7.232 -0.5698  1.0867 -1.6754
   96SAPS   C36 9569   1.868  -0.469   7.350  0.2456 -0.1956  0.4696
   96SAPS   H6X 9570   1.963  -0.525   7.336 -1.1254 -2.6620  0.3992
   96SAPS   H6Y 9571   1.802  -0.535   7.410 -1.3907 -0.2424 -1.2657
   96SAPS   C37 9572   1.889  -0.342   7.440 -0.2699  0.8957  0.3458
   96SAPS   H7X 9573   1.797  -0.282   7.456  0.0259  0.8575  2.6366
   96SAPS   H7Y 9574   1.960  -0.276   7.386 -1.6642  3.0546  1.0438
   96SAPS   C38 9575   1.954  -0.387   7.575  0.1484 -0.6332  0.3905
   96SAPS   H8X 9576   2.056  -0.423   7.551 -0.0305 -0.8488 -0.0624
   96SAPS   H8Y 9577   1.895  -0.472   7.616 -0.2965 -0.5189 -0.0014
   96SAPS   C39 9578   1.971  -0.281   7.692  0.6379  0.6368 -0.4730
   96SAPS   H9X 9579   1.870  -0.234   7.696 -0.2158 -1.1572  0.5834
   96SAPS   H9Y 9580   2.038  -0.198   7.660 -0.7672  1.5465 -1.2184
   96SAPS  C310 9581   2.012  -0.338   7.827 -0.1880  0.2130 -0.4573
   96SAPS  H10X 9582   2.113  -0.386   7.828 -0.3783 -0.1886  0.4831
   96SAPS  H10Y 9583   1.961  -0.433   7.852  2.4203 -1.6744 -1.7505
   96SAPS  C311 9584   1.995  -0.245   7.941 -0.2255 -0.2309  0.0109
   96SAPS  H11X 9585   1.888  -0.219   7.956  0.7035  2.2934  3.5430
   96SAPS  H11Y 9586   2.054  -0.154   7.915 -1.4235  0.2828 -1.0391
   96SAPS  C312 9587   2.052  -0.298   8.076  0.5045  0.0815  0.5685
   96SAPS  H12X 9588   2.156  -0.326   8.049  0.3509 -1.2160  1.2499
   96SAPS  H12Y 9589   1.997  -0.390   8.106  0.2817 -0.7505 -2.1503
   96SAPS  C313 9590   2.063  -0.185   8.183 -0.0838  0.3807 -0.0810
   96SAPS  H13X 9591   2.140  -0.115   8.145  2.5398 -1.1973  1.9914
   96SAPS  H13Y 9592   2.109  -0.241   8.268  0.5175  0.5136 -0.3136
   96SAPS  C314 9593   1.938  -0.116   8.212  0.5653  0.9005  0.6922
   96SAPS  H14X 9594   1.863  -0.197   8.230  0.9674  0.5557  0.8324
   96SAPS  H14Y 9595   1.906  -0.061   8.121  0.5820 -0.9615 -0.4961
   96SAPS  C315 9596   1.945  -0.034   8.337  0.3300 -0.7567 -0.8976
   96SAPS  H15X 9597   1.958  -0.100   8.426 -0.4304  0.9501  0.5405
   96SAPS  H15Y 9598   1.844   0.010   8.350  1.3698  1.2661  1.0366
   96SAPS  C316 9599   2.050   0.079   8.336  0.5056 -0.1754  0.4182
   96SAPS  H16X 9600   2.045   0.140   8.243  0.9901  0.1407  0.5985
   96SAPS  H16Y 9601   2.147   0.025   8.338  0.4686 -0.2203  1.4951
   96SAPS  C317 9602   2.043   0.159   8.464 -0.5819 -0.7452 -0.3266
   96SAPS  H17X 9603   2.037   0.095   8.555  1.9775  0.5359  0.8538
   96SAPS  H17Y 9604   1.943   0.207   8.453 -0.4713 -1.0411 -3.4295
   96SAPS  C318 9605   2.156   0.257   8.483  0.5736 -0.0200 -0.7161
   96SAPS  H18X 9606   2.174   0.318   8.392  0.8693 -0.7273 -1.1451
   96SAPS  H18Y 9607   2.244   0.188   8.480 -0.5596 -1.5563 -0.2679
   96SAPS  H18Z 9608   2.155   0.316   8.577  2.5134 -2.5474  1.0530
   97SAPS     N 9609   4.371   4.770   6.147  0.6439  0.6451 -0.5839
   97SAPS   HN1 9610   4.466   4.811   6.156  1.5630 -1.5514  0.7035
   97SAPS   HN2 9611   4.303   4.827   6.201 -1.9966 -0.8371 -2.1361
   97SAPS   HN3 9612   4.376   4.673   6.185 -0.7032  0.9245  0.3616
   97SAPS   C12 9613   4.336   4.778   6.003  0.1589  0.3040  0.1003
   97SAPS  H12A 9614   4.330   4.884   5.983 -0.3804  0.0712 -1.0404
   97SAPS   C13 9615   4.430   4.715   5.903 -0.1580 -0.0657 -0.3349
   97SAPS  O13A 9616   4.539   4.663   5.945  0.2207 -0.5419  0.1605
   97SAPS  O13B 9617   4.404   4.735   5.780 -0.1689  0.2768 -0.9056
   97SAPS   C11 9618   4.188   4.723   5.994  0.3205  0.2351  0.0550
   97SAPS  H11A 9619   4.148   4.732   5.891  1.0638 -2.0979 -0.5094
   97SAPS  H11B 9620   4.121   4.779   6.063 -0.7475  0.4916 -1.1651
   97SAPS     P 9621   4.105   4.519   6.140 -0.2329  0.4710  0.1665
   97SAPS   O13 9622   3.968   4.585   6.135 -0.0134  0.0138 -0.8341
   97SAPS   O14 9623   4.118   4.371   6.138  0.1525 -0.0125  0.1144
   97SAPS   O12 9624   4.186   4.584   6.025 -0.1535  0.4593 -0.5662
   97SAPS   O11 9625   4.168   4.568   6.271  0.3358 -0.0351 -0.7063
   97SAPS    C1 9626   4.089   4.602   6.384 -0.2049 -0.3911 -0.8796
   97SAPS    HA 9627   3.983   4.631   6.372 -0.4485 -1.0587 -0.3898
   97SAPS    HB 9628   4.084   4.511   6.448  2.0262 -0.0070 -0.0737
   97SAPS    C2 9629   4.156   4.708   6.483 -0.3504  0.5655 -0.2044
   97SAPS    HS 9630   4.166   4.794   6.413 -2.2529  0.4145 -0.7158
   97SAPS   O21 9631   4.274   4.654   6.549  0.0573  0.7327 -0.1084
   97SAPS   C21 9632   4.392   4.718   6.511  0.6813  0.9092  0.5438
   97SAPS   O22 9633   4.398   4.814   6.434 -0.2068  0.1332  0.6829
   97SAPS   C22 9634   4.510   4.650   6.574 -0.4567  0.3328  0.4293
   97SAPS   H2R 9635   4.485   4.605   6.673 -0.7513  0.9091  0.6230
   97SAPS   H2S 9636   4.531   4.568   6.502 -1.5636  0.7122 -0.3525
   97SAPS    C3 9637   4.058   4.766   6.578 -0.8707  0.2566  0.4040
   97SAPS    HX 9638   3.992   4.840   6.527  0.0227 -0.8966 -2.6791
   97SAPS    HY 9639   4.118   4.825   6.650 -0.0285 -1.2628  0.9723
   97SAPS   O31 9640   3.979   4.667   6.634 -0.1952 -0.1516  0.4071
   97SAPS   C31 9641   3.909   4.710   6.742  0.9622 -0.4096 -0.2664
   97SAPS   O32 9642   3.916   4.823   6.784 -0.5947  0.0615 -0.1624
   97SAPS   C32 9643   3.843   4.590   6.809 -0.0878 -0.5648 -0.2999
   97SAPS   H2X 9644   3.891   4.500   6.763 -1.0558 -0.2834 -1.9461
   97SAPS   H2Y 9645   3.736   4.578   6.785 -1.6558  0.6669  4.9237
   97SAPS   C23 9646   4.640   4.734   6.576 -0.4581  0.8870  0.1088
   97SAPS   H3R 9647   4.650   4.797   6.485  3.4048  1.1826  0.5913
   97SAPS   H3S 9648   4.728   4.669   6.558 -1.4047  0.1376 -2.2477
   97SAPS   C24 9649   4.642   4.815   6.706 -0.3638  1.2559 -0.6019
   97SAPS   H4R 9650   4.743   4.858   6.725  0.8479 -1.4083 -0.5638
   97SAPS   H4S 9651   4.618   4.747   6.790  0.5967 -0.8040 -1.8968
   97SAPS   C25 9652   4.537   4.918   6.700  0.0924  0.3029  0.0550
   97SAPS   H5R 9653   4.553   4.993   6.620  0.1216 -1.0530 -1.2500
   97SAPS   C26 9654   4.420   4.921   6.765  0.3037  0.1114 -0.0211
   97SAPS   H6R 9655   4.360   5.012   6.750  0.8030  1.4640  4.5057
   97SAPS   C27 9656   4.368   4.818   6.863  0.2305 -1.0075 -0.3433
   97SAPS   H7R 9657   4.446   4.755   6.911  1.9241  0.6081 -0.8576
   97SAPS   H7S 9658   4.312   4.749   6.796  0.0152  1.3925 -2.7941
   97SAPS   C28 9659   4.276   4.873   6.976 -0.2681  0.1093  0.1653
   97SAPS   H8R 9660   4.170   4.898   6.962 -0.9543 -1.5268  1.9600
   97SAPS   C29 9661   4.310   4.877   7.108  0.0955  0.1400 -0.5126
   97SAPS   H9R 9662   4.236   4.913   7.181  0.7813 -1.5390  1.0895
   97SAPS  C210 9663   4.449   4.856   7.167  0.1309 -0.2079  0.9756
   97SAPS  H10R 9664   4.493   4.767   7.117  1.4797  0.8052  0.3131
   97SAPS  H10S 9665   4.440   4.816   7.270  0.4412 -0.5665  0.8678
   97SAPS  C211 9666   4.552   4.966   7.146  0.1989  0.5201  0.4867
   97SAPS  H11R 9667   4.579   4.977   7.040  0.3803 -1.8378  0.2396
   97SAPS  C212 9668   4.616   5.040   7.236  0.8375  0.3900 -0.4938
   97SAPS  H12R 9669   4.681   5.119   7.198 -1.0701  1.6452 -1.3184
   97SAPS  C213 9670   4.604   5.030   7.389 -0.6833 -0.9651 -0.5136
   97SAPS  H13R 9671   4.689   5.083   7.437  0.1360  0.8132 -3.6643
   97SAPS  H13S 9672   4.604   4.930   7.437 -0.9080 -1.3650 -1.3304
   97SAPS  C214 9673   4.478   5.100   7.435  0.1983 -0.5001 -0.4914
   97SAPS  H14R 9674   4.397   5.099   7.361 -1.8136 -1.0304  1.5976
   97SAPS  C215 9675   4.451   5.141   7.558 -0.0012 -0.4397  0.0541
   97SAPS  H15R 9676   4.353   5.192   7.564  1.0206  1.5809  0.5491
   97SAPS  C216 9677   4.542   5.146   7.673 -0.0091  0.3085  0.1603
   97SAPS  H16R 9678   4.643   5.111   7.642 -1.4063 -1.5112 -2.5949
   97SAPS  H16S 9679   4.497   5.076   7.746 -0.6980 -1.2314 -1.6758
   97SAPS  C217 9680   4.552   5.280   7.735 -0.4608 -0.3970 -0.3148
   97SAPS  H17R 9681   4.456   5.325   7.768 -1.3438 -2.3863 -0.0638
   97SAPS  H17S 9682   4.600   5.350   7.662  1.2344 -1.7060 -0.5202
   97SAPS  C218 9683   4.645   5.278   7.855 -0.1613 -0.1018  0.1596
   97SAPS  H18R 9684   4.675   5.384   7.874 -1.0092  0.7596 -2.7339
   97SAPS  H18S 9685   4.738   5.224   7.825 -0.2154  0.2035 -0.5937
   97SAPS  C219 9686   4.575   5.222   7.978  0.0847  0.0916 -0.2454
   97SAPS  H19R 9687   4.544   5.116   7.973  1.5394 -0.6656  3.4251
   97SAPS  H19S 9688   4.481   5.278   7.996  0.7159  1.3401 -0.7036
   97SAPS  C220 9689   4.653   5.239   8.103 -0.3203 -0.4546 -0.4235
   97SAPS  H20R 9690   4.621   5.172   8.186 -0.5743  0.8281  0.5481
   97SAPS  H20S 9691   4.647   5.348   8.128 -0.8065 -1.0791  2.6710
   97SAPS  H20T 9692   4.758   5.206   8.089  0.3080  0.4090  1.7628
   97SAPS   C33 9693   3.863   4.586   6.958 -0.5356 -0.1153 -0.2421
   97SAPS   H3X 9694   3.815   4.495   7.000  0.8210 -1.6029 -1.7717
   97SAPS   H3Y 9695   3.813   4.675   7.001  0.5601 -0.9139  2.9286
   97SAPS   C34 9696   4.008   4.593   7.008  0.4942 -0.3559 -0.2488
   97SAPS   H4X 9697   4.053   4.691   6.980  0.0839 -0.4790 -1.3915
   97SAPS   H4Y 9698   4.071   4.510   6.968  1.3028 -0.5975  1.4391
   97SAPS   C35 9699   3.998   4.582   7.162  0.0825 -0.1632  0.8527
   97SAPS   H5X 9700   4.091   4.555   7.217 -0.6695  0.0465  2.2706
   97SAPS   H5Y 9701   3.931   4.501   7.196 -0.0835  0.0666  1.0836
   97SAPS   C36 9702   3.933   4.705   7.239  0.3666 -0.7624 -0.5171
   97SAPS   H6X 9703   3.876   4.765   7.164  0.0479 -1.7880 -1.1206
   97SAPS   H6Y 9704   4.020   4.763   7.277 -1.2408  1.4479  0.0155
   97SAPS   C37 9705   3.846   4.662   7.355 -1.1399  0.3095  0.3953
   97SAPS   H7X 9706   3.816   4.756   7.406 -0.8183  1.0700 -0.7828
   97SAPS   H7Y 9707   3.912   4.595   7.413 -0.0245  0.7633 -0.3218
   97SAPS   C38 9708   3.712   4.605   7.311 -0.2198  0.0003 -0.4601
   97SAPS   H8X 9709   3.721   4.501   7.271  2.0759 -0.5984  1.3648
   97SAPS   H8Y 9710   3.648   4.667   7.245 -0.1099  0.6451  0.0290
   97SAPS   C39 9711   3.623   4.587   7.435  0.3725  0.3681 -0.0621
   97SAPS   H9X 9712   3.542   4.513   7.419  2.6652 -2.5332  0.6491
   97SAPS   H9Y 9713   3.572   4.681   7.463 -1.3749 -1.1248  2.0715
   97SAPS  C310 9714   3.688   4.532   7.562 -0.7086 -0.1421 -0.3055
   97SAPS  H10X 9715   3.775   4.592   7.597 -1.3572  0.6848 -0.0511
   97SAPS  H10Y 9716   3.732   4.434   7.535 -3.6770 -0.9824 -2.6303
   97SAPS  C311 9717   3.600   4.512   7.683  1.0049 -0.8830 -0.6969
   97SAPS  H11X 9718   3.508   4.457   7.654 -0.3128  0.6818  0.3567
   97SAPS  H11Y 9719   3.569   4.611   7.724  1.0496 -0.4074 -1.7829
   97SAPS  C312 9720   3.669   4.437   7.792  0.7508 -0.4553  0.5852
   97SAPS  H12X 9721   3.763   4.490   7.818  0.7119 -0.4927  0.8099
   97SAPS  H12Y 9722   3.692   4.342   7.739 -1.7290  0.1001 -1.6928
   97SAPS  C313 9723   3.579   4.414   7.915  0.8130  0.2009  0.7748
   97SAPS  H13X 9724   3.503   4.340   7.881  2.7371 -1.4276 -0.1788
   97SAPS  H13Y 9725   3.538   4.513   7.944 -0.2057  0.5875 -1.7750
   97SAPS  C314 9726   3.657   4.360   8.034  0.6136 -0.2993 -0.0924
   97SAPS  H14X 9727   3.591   4.397   8.116 -1.0770 -2.6588 -0.2573
   97SAPS  H14Y 9728   3.753   4.415   8.043 -0.0315  1.4247 -2.6152
   97SAPS  C315 9729   3.661   4.203   8.026  0.2070  0.8432 -0.4894
   97SAPS  H15X 9730   3.750   4.183   7.962  0.5391 -0.2899  0.2987
   97SAPS  H15Y 9731   3.566   4.163   7.984  0.3491 -0.6166  0.5019
   97SAPS  C316 9732   3.703   4.135   8.159 -0.4967  0.4381  0.3376
   97SAPS  H16X 9733   3.725   4.028   8.140  0.1026  0.6353 -0.1141
   97SAPS  H16Y 9734   3.618   4.143   8.230  1.1374 -1.9183  2.7592
   97SAPS  C317 9735   3.832   4.197   8.218  0.0581  0.3309 -0.2559
   97SAPS  H17X 9736   3.822   4.307   8.229  1.0315  0.5421 -1.2334
   97SAPS  H17Y 9737   3.903   4.194   8.132 -0.0508 -0.8485 -0.3311
   97SAPS  C318 9738   3.886   4.131   8.337 -0.5368  0.2754 -0.5151
   97SAPS  H18X 9739   3.995   4.146   8.353 -0.5658 -1.2416  1.5279
   97SAPS  H18Y 9740   3.870   4.021   8.326 -0.8949  0.2491  0.2337
   97SAPS  H18Z 9741   3.834   4.164   8.429 -0.0853  1.6506 -0.7262
   98SAPS     N 9742   2.099   4.583   6.294  0.4294  0.0937  0.0216
   98SAPS   HN1 9743   2.172   4.632   6.350  1.3437 -1.3133  0.1263
   98SAPS   HN2 9744   2.003   4.620   6.309 -0.9085 -1.6925 -3.1961
   98SAPS   HN3 9745   2.084   4.488   6.333 -1.2521 -0.4438 -1.7815
   98SAPS   C12 9746   2.129   4.580   6.143 -0.0833  0.1719  0.6786
   98SAPS  H12A 9747   2.040   4.540   6.097  0.5105  0.9691 -1.2603
   98SAPS   C13 9748   2.154   4.720   6.088  0.0029 -0.2290  0.2398
   98SAPS  O13A 9749   2.135   4.817   6.163 -0.2088 -0.7299 -0.0863
   98SAPS  O13B 9750   2.224   4.744   5.984  0.5001  0.1470 -0.1980
   98SAPS   C11 9751   2.239   4.474   6.113 -0.0235  0.0053  1.0703
   98SAPS  H11A 9752   2.334   4.512   6.158  0.0435 -1.1709  2.0027
   98SAPS  H11B 9753   2.249   4.465   6.003 -0.0728  0.4864  1.0276
   98SAPS     P 9754   2.313   4.231   6.135  0.1327 -0.2746  0.0581
   98SAPS   O13 9755   2.245   4.100   6.121  0.0856 -0.3339 -1.3636
   98SAPS   O14 9756   2.392   4.264   6.013  0.0511  0.8325 -0.3679
   98SAPS   O12 9757   2.210   4.347   6.169  0.3547  0.0843  0.0114
   98SAPS   O11 9758   2.412   4.234   6.261 -0.3509 -0.3059 -0.0616
   98SAPS    C1 9759   2.361   4.281   6.386 -0.4864 -0.4931 -0.0455
   98SAPS    HA 9760   2.330   4.387   6.371  1.6473 -0.0238 -1.5490
   98SAPS    HB 9761   2.280   4.221   6.433  0.7668  0.2720  3.3625
   98SAPS    C2 9762   2.467   4.306   6.500  0.4201  0.5906 -0.4080
   98SAPS    HS 9763   2.549   4.373   6.463  1.8330 -0.7729  0.1459
   98SAPS   O21 9764   2.518   4.181   6.541 -0.3275 -0.0810 -0.1410
   98SAPS   C21 9765   2.641   4.185   6.598  0.0324 -0.5842  0.2151
   98SAPS   O22 9766   2.708   4.289   6.618 -0.1590 -0.0498  0.8522
   98SAPS   C22 9767   2.685   4.045   6.647  0.6210 -0.1471 -0.4439
   98SAPS   H2R 9768   2.599   3.982   6.679  2.4993 -1.3958  2.5685
   98SAPS   H2S 9769   2.725   4.002   6.552 -0.8425  1.0122 -1.6314
   98SAPS    C3 9770   2.397   4.372   6.629  0.4809 -0.0283  0.6613
   98SAPS    HX 9771   2.364   4.475   6.604  3.5724  0.8511 -0.2900
   98SAPS    HY 9772   2.474   4.397   6.705  1.8856  2.2051 -1.3480
   98SAPS   O31 9773   2.287   4.295   6.680  0.3689 -0.1037 -0.2023
   98SAPS   C31 9774   2.323   4.213   6.784 -0.0728  0.2211  0.2755
   98SAPS   O32 9775   2.439   4.195   6.823  0.0440  0.5680 -0.3826
   98SAPS   C32 9776   2.193   4.141   6.829  0.1380  0.0939 -0.2573
   98SAPS   H2X 9777   2.170   4.061   6.755 -0.5782  0.5590 -0.5473
   98SAPS   H2Y 9778   2.106   4.210   6.832 -1.7218 -2.0683 -1.1618
   98SAPS   C23 9779   2.794   4.032   6.760 -0.0414  0.6568  0.0048
   98SAPS   H3R 9780   2.876   4.096   6.722  1.3923 -0.0036  1.8388
   98SAPS   H3S 9781   2.812   3.923   6.769  0.7107  0.9090  2.3436
   98SAPS   C24 9782   2.747   4.075   6.895  0.7164 -0.7747 -0.3555
   98SAPS   H4R 9783   2.647   4.032   6.918  0.7631 -1.6655 -1.6969
   98SAPS   H4S 9784   2.741   4.186   6.893  1.1723 -0.7513 -0.3981
   98SAPS   C25 9785   2.848   4.040   7.000 -0.0890 -1.5482 -0.1342
   98SAPS   H5R 9786   2.951   4.071   6.979 -1.3364  2.3285 -1.5423
   98SAPS   C26 9787   2.816   3.987   7.116 -0.2744 -1.1025 -0.0486
   98SAPS   H6R 9788   2.897   3.969   7.188 -0.7117  0.8009  1.0013
   98SAPS   C27 9789   2.680   3.941   7.155 -0.0845 -0.3025 -0.2052
   98SAPS   H7R 9790   2.646   3.884   7.065  1.5486 -1.2391 -0.2574
   98SAPS   H7S 9791   2.608   4.026   7.165 -0.1665 -0.1529 -1.7149
   98SAPS   C28 9792   2.684   3.862   7.273 -0.3880  0.2819 -0.4129
   98SAPS   H8R 9793   2.687   3.752   7.262 -1.0595  0.0769  1.1962
   98SAPS   C29 9794   2.681   3.913   7.398  0.4697  0.3292 -0.1300
   98SAPS   H9R 9795   2.678   3.846   7.485 -2.2466 -0.1004 -0.4773
   98SAPS  C210 9796   2.692   4.064   7.427 -0.3265 -0.0644  0.1996
   98SAPS  H10R 9797   2.599   4.090   7.483 -0.3151  2.0829 -0.7150
   98SAPS  H10S 9798   2.669   4.126   7.338  1.5593  0.6755  0.1753
   98SAPS  C211 9799   2.818   4.102   7.491 -0.7846  0.2436 -0.4365
   98SAPS  H11R 9800   2.900   4.128   7.424  0.1511 -0.3561  0.4436
   98SAPS  C212 9801   2.848   4.096   7.624 -0.0887 -0.0054  0.1256
   98SAPS  H12R 9802   2.941   4.142   7.660  0.7631  0.1412 -2.1074
   98SAPS  C213 9803   2.752   4.055   7.735  0.0946  0.6956 -0.1594
   98SAPS  H13R 9804   2.782   3.960   7.784 -0.6282 -0.0631 -1.1698
   98SAPS  H13S 9805   2.650   4.046   7.693 -1.3223 -1.2507  3.2987
   98SAPS  C214 9806   2.738   4.159   7.844  0.1528 -0.1795  0.2124
   98SAPS  H14R 9807   2.637   4.202   7.854  0.4182  0.2087  1.3994
   98SAPS  C215 9808   2.842   4.199   7.923  0.6940 -0.5207  0.2414
   98SAPS  H15R 9809   2.819   4.276   7.997 -1.4886  0.5798 -1.4836
   98SAPS  C216 9810   2.978   4.138   7.922  0.8267 -0.3794 -0.5455
   98SAPS  H16R 9811   3.049   4.201   7.864  1.6754 -0.7442  0.0703
   98SAPS  H16S 9812   2.972   4.044   7.863 -2.1494 -0.1042 -0.8144
   98SAPS  C217 9813   3.019   4.103   8.061 -1.0685  0.3035 -0.2885
   98SAPS  H17R 9814   2.964   4.015   8.101 -1.3235 -1.0064 -3.2431
   98SAPS  H17S 9815   3.008   4.195   8.121 -0.0456  1.2951 -1.5714
   98SAPS  C218 9816   3.173   4.063   8.057  0.1506 -0.6688  0.1343
   98SAPS  H18R 9817   3.175   3.977   7.987 -0.7897 -0.6689  0.0997
   98SAPS  H18S 9818   3.198   4.014   8.154 -1.8440 -1.3813  0.3449
   98SAPS  C219 9819   3.265   4.176   8.028  0.2479  0.1601 -0.0534
   98SAPS  H19R 9820   3.246   4.227   7.931 -2.5886  0.3590  0.5239
   98SAPS  H19S 9821   3.364   4.126   8.014  0.8138  1.5904 -1.4402
   98SAPS  C220 9822   3.290   4.263   8.145 -0.1887 -0.3257 -0.4088
   98SAPS  H20R 9823   3.220   4.349   8.152 -1.1094 -1.1805  1.7938
   98SAPS  H20S 9824   3.384   4.319   8.125  0.5180 -0.8980  1.1096
   98SAPS  H20T 9825   3.306   4.214   8.244 -0.4759  0.8731  0.2520
   98SAPS   C33 9826   2.212   4.084   6.978 -0.5483  0.1640 -0.5543
   98SAPS   H3X 9827   2.258   4.164   7.039 -1.2551 -0.3223  0.6531
   98SAPS   H3Y 9828   2.279   3.996   6.968 -0.9712 -0.3274  0.7802
   98SAPS   C34 9829   2.081   4.051   7.041  0.3636  0.0370  0.1576
   98SAPS   H4X 9830   2.015   3.986   6.981  0.6921 -1.6456  1.5100
   98SAPS   H4Y 9831   2.028   4.146   7.060 -1.7233 -1.3266  1.6901
   98SAPS   C35 9832   2.107   3.994   7.186 -0.0662  1.4466 -0.5997
   98SAPS   H5X 9833   2.184   3.914   7.178 -2.9072 -1.6031  0.1821
   98SAPS   H5Y 9834   2.011   3.950   7.221 -0.3522  1.2257 -1.6408
   98SAPS   C36 9835   2.135   4.106   7.291 -0.8124  0.0623 -0.1533
   98SAPS   H6X 9836   2.041   4.141   7.339  0.3996  2.6189  0.5162
   98SAPS   H6Y 9837   2.176   4.199   7.246 -0.5168  0.9450  1.7994
   98SAPS   C37 9838   2.228   4.059   7.410 -0.7638  0.3271  0.7937
   98SAPS   H7X 9839   2.319   4.027   7.355 -2.0969 -0.5979 -0.9849
   98SAPS   H7Y 9840   2.190   3.965   7.456 -0.3234  0.1891  0.8799
   98SAPS   C38 9841   2.245   4.165   7.516 -0.7483 -0.3926 -0.3454
   98SAPS   H8X 9842   2.141   4.204   7.525  0.0227  2.1195 -1.2929
   98SAPS   H8Y 9843   2.302   4.250   7.473 -1.2407  0.3758  0.4907
   98SAPS   C39 9844   2.320   4.099   7.635 -0.3279  0.3422 -0.1883
   98SAPS   H9X 9845   2.408   4.042   7.597  0.6110  0.8599  1.1550
   98SAPS   H9Y 9846   2.249   4.025   7.678 -0.2505  1.1064  1.3087
   98SAPS  C310 9847   2.371   4.197   7.748  0.0138  0.4369 -0.1644
   98SAPS  H10X 9848   2.437   4.268   7.694 -0.6849  0.7438 -0.6346
   98SAPS  H10Y 9849   2.411   4.131   7.828 -2.9672 -3.3209 -1.4949
   98SAPS  C311 9850   2.256   4.258   7.824 -0.0237 -0.9299 -1.0746
   98SAPS  H11X 9851   2.174   4.184   7.835 -1.7109  1.0429  0.0642
   98SAPS  H11Y 9852   2.205   4.347   7.782 -0.2008  0.5315  2.0044
   98SAPS  C312 9853   2.305   4.300   7.965  0.7855 -0.1093 -0.3317
   98SAPS  H12X 9854   2.387   4.374   7.951  0.4332  0.2405 -0.5507
   98SAPS  H12Y 9855   2.342   4.210   8.020  1.4941  0.0896 -0.4691
   98SAPS  C313 9856   2.193   4.374   8.040  0.7258 -0.2872  0.1793
   98SAPS  H13X 9857   2.107   4.304   8.042 -0.5859  1.2732  1.4040
   98SAPS  H13Y 9858   2.159   4.462   7.982  1.3129  0.3494  0.7861
   98SAPS  C314 9859   2.235   4.394   8.186 -0.2009  0.1549 -0.4425
   98SAPS  H14X 9860   2.279   4.296   8.213 -0.9572 -0.3972 -1.1696
   98SAPS  H14Y 9861   2.137   4.406   8.237 -0.2583  1.5433 -0.8464
   98SAPS  C315 9862   2.338   4.512   8.213 -0.3803  0.9017 -0.2357
   98SAPS  H15X 9863   2.274   4.602   8.200  0.8247  1.7363 -0.5710
   98SAPS  H15Y 9864   2.413   4.515   8.131  1.1759  0.5871  1.1321
   98SAPS  C316 9865   2.418   4.504   8.335  0.0194  0.5280 -0.2269
   98SAPS  H16X 9866   2.499   4.429   8.329 -1.2063 -0.8102 -0.6381
   98SAPS  H16Y 9867   2.348   4.462   8.410  0.2774 -0.3613 -0.4733
   98SAPS  C317 9868   2.468   4.637   8.394 -0.2724  0.0161  0.2257
   98SAPS  H17X 9869   2.372   4.692   8.409 -0.9500 -0.6129 -1.6457
   98SAPS  H17Y 9870   2.534   4.683   8.317  0.0702 -2.3376 -0.9540
   98SAPS  C318 9871   2.549   4.629   8.526 -0.1024  0.6258  0.1855
   98SAPS  H18X 9872   2.643   4.573   8.510 -0.1875  0.3617  0.6152
   98SAPS  H18Y 9873   2.493   4.596   8.615 -0.4703  1.8219  0.4154
   98SAPS  H18Z 9874   2.596   4.728   8.546 -0.2068  1.2330 -2.2306
   99SAPS     N 9875   0.205   0.511   6.143 -0.1285  0.0560  0.4772
   99SAPS   HN1 9876   0.132   0.585   6.144 -0.3949 -0.1240 -1.5369
   99SAPS   HN2 9877   0.193   0.448   6.062  0.2200 -0.9557  1.1968
   99SAPS   HN3 9878   0.189   0.458   6.231 -1.1884 -2.2107 -1.0153
   99SAPS   C12 9879   0.345   0.575   6.153 -0.0977  0.0639  0.5601
   99SAPS  H12A 9880   0.412   0.491   6.143 -2.9751 -2.2603 -1.0397
   99SAPS   C13 9881   0.389   0.669   6.049  0.2189 -0.4085  0.3466
   99SAPS  O13A 9882   0.324   0.702   5.946  0.7891  0.1424  0.3327
   99SAPS  O13B 9883   0.507   0.704   6.062 -0.3314  0.2191  0.4659
   99SAPS   C11 9884   0.363   0.643   6.287 -0.3330  0.8136  0.0418
   99SAPS  H11A 9885   0.463   0.690   6.286 -0.0832  0.3019  0.2815
   99SAPS  H11B 9886   0.360   0.572   6.373 -1.8382  1.3483  0.4686
   99SAPS     P 9887   0.234   0.817   6.435 -0.3802  0.3144  0.2440
   99SAPS   O13 9888   0.193   0.957   6.414 -0.5037 -0.3485 -0.2718
   99SAPS   O14 9889   0.127   0.735   6.506  0.0792 -0.3908  0.1588
   99SAPS   O12 9890   0.266   0.748   6.295  0.3773  0.4210 -0.4225
   99SAPS   O11 9891   0.371   0.802   6.510  0.0934  0.7813 -0.0579
   99SAPS    C1 9892   0.378   0.715   6.630 -0.4251  0.1410  0.5045
   99SAPS    HA 9893   0.285   0.661   6.656 -1.6039  1.5858 -0.4820
   99SAPS    HB 9894   0.448   0.633   6.605 -0.2831  0.4943 -0.2926
   99SAPS    C2 9895   0.432   0.792   6.761 -0.1028  0.3729  0.0056
   99SAPS    HS 9896   0.406   0.738   6.855 -0.3394  0.8788  0.2317
   99SAPS   O21 9897   0.377   0.923   6.771 -0.1423 -0.6257 -0.0880
   99SAPS   C21 9898   0.248   0.931   6.799  0.7050 -1.1375  0.6796
   99SAPS   O22 9899   0.178   0.837   6.825  0.2495 -0.0419 -0.0198
   99SAPS   C22 9900   0.203   1.080   6.812  1.1698  0.3167 -0.2380
   99SAPS   H2R 9901   0.290   1.149   6.806  0.0817  1.8472  0.8366
   99SAPS   H2S 9902   0.123   1.111   6.741  0.5728 -2.3876 -0.8524
   99SAPS    C3 9903   0.586   0.819   6.760  0.9327  0.0508  1.3596
   99SAPS    HX 9904   0.600   0.881   6.670 -2.4534 -1.2282 -0.2121
   99SAPS    HY 9905   0.640   0.722   6.750 -0.9508 -0.8968 -0.3397
   99SAPS   O31 9906   0.626   0.887   6.881  0.7171  0.0407  0.1225
   99SAPS   C31 9907   0.755   0.901   6.899 -0.5555  0.0576  0.5292
   99SAPS   O32 9908   0.840   0.879   6.811  0.1573  0.4634 -0.0777
   99SAPS   C32 9909   0.785   0.964   7.038  0.0035  0.0363  0.2584
   99SAPS   H2X 9910   0.717   1.051   7.055 -0.4133 -0.5945  2.0669
   99SAPS   H2Y 9911   0.892   0.993   7.035 -0.0354  0.2307  0.6515
   99SAPS   C23 9912   0.146   1.093   6.957 -0.7707 -0.6671  0.5259
   99SAPS   H3R 9913   0.102   1.007   7.011  3.5322 -1.7055  2.8312
   99SAPS   H3S 9914   0.061   1.163   6.939  0.8233  0.6366 -2.8531
   99SAPS   C24 9915   0.249   1.161   7.056  0.0126  0.6265 -0.0342
   99SAPS   H4R 9916   0.193   1.200   7.143 -0.8777  0.2128 -0.4147
   99SAPS   H4S 9917   0.307   1.245   7.012  2.1268 -0.5856  0.2739
   99SAPS   C25 9918   0.364   1.062   7.101  0.0305 -0.0077  0.3196
   99SAPS   H5R 9919   0.427   1.025   7.019 -2.1067  1.7627 -2.3005
   99SAPS   C26 9920   0.390   1.018   7.228  0.1039 -0.7382 -0.6013
   99SAPS   H6R 9921   0.476   0.950   7.236 -0.3987 -1.1441  2.3911
   99SAPS   C27 9922   0.327   1.068   7.349  0.5658 -0.6120 -0.9464
   99SAPS   H7R 9923   0.297   0.987   7.419  1.7514  0.1933  0.5482
   99SAPS   H7S 9924   0.240   1.136   7.333  0.3177 -1.0030 -1.2946
   99SAPS   C28 9925   0.413   1.163   7.431  0.2457 -0.8890 -0.3331
   99SAPS   H8R 9926   0.457   1.246   7.373 -0.4178  1.5074  2.3589
   99SAPS   C29 9927   0.446   1.163   7.562 -0.0674 -0.2286  0.0694
   99SAPS   H9R 9928   0.507   1.248   7.596 -1.3737  1.2431 -1.0703
   99SAPS  C210 9929   0.395   1.060   7.664  0.1465 -0.2440  0.0660
   99SAPS  H10R 9930   0.392   0.961   7.613  1.8713 -0.1887 -0.1868
   99SAPS  H10S 9931   0.290   1.085   7.691  0.6028 -0.0683  1.7903
   99SAPS  C211 9932   0.474   1.053   7.790  0.2442 -0.0273 -0.4822
   99SAPS  H11R 9933   0.583   1.049   7.775  0.6352  1.1168  1.5389
   99SAPS  C212 9934   0.417   1.048   7.912  0.1853 -0.2075  0.0499
   99SAPS  H12R 9935   0.490   1.052   7.994  0.0560 -3.0268  0.4075
   99SAPS  C213 9936   0.268   1.035   7.952  0.4242 -0.0119 -0.2233
   99SAPS  H13R 9937   0.203   1.035   7.862 -0.0945  0.6458  0.1468
   99SAPS  H13S 9938   0.243   1.133   7.998  2.4257  0.6359 -0.4164
   99SAPS  C214 9939   0.216   0.934   8.059 -0.4695 -0.3951 -0.2804
   99SAPS  H14R 9940   0.183   0.835   8.023  1.0957 -0.7822 -0.7272
   99SAPS  C215 9941   0.223   0.954   8.191 -0.4147 -0.1605 -0.0599
   99SAPS  H15R 9942   0.187   0.873   8.255 -0.3499  1.0826  1.6230
   99SAPS  C216 9943   0.268   1.069   8.274 -0.1891 -0.5166  0.7026
   99SAPS  H16R 9944   0.188   1.090   8.349 -0.3483 -0.4926  0.5241
   99SAPS  H16S 9945   0.284   1.162   8.217  0.8733 -1.4553 -0.5780
   99SAPS  C217 9946   0.405   1.045   8.349  0.1591  0.5543  0.0162
   99SAPS  H17R 9947   0.489   1.045   8.277 -0.0346 -0.5079 -0.2270
   99SAPS  H17S 9948   0.407   0.947   8.401 -0.6029  0.9627  0.8485
   99SAPS  C218 9949   0.432   1.149   8.457  0.2336  0.5424 -0.1072
   99SAPS  H18R 9950   0.346   1.171   8.524  0.6226  0.1901  0.5100
   99SAPS  H18S 9951   0.449   1.243   8.399 -4.1991  0.8507 -1.3278
   99SAPS  C219 9952   0.557   1.118   8.532  0.0913  0.1649 -0.6773
   99SAPS  H19R 9953   0.600   1.212   8.571 -0.2270  0.3111 -0.6713
   99SAPS  H19S 9954   0.627   1.072   8.459  1.2511  0.5905  0.1400
   99SAPS  C220 9955   0.543   1.022   8.655 -0.0354  0.7797 -0.0504
   99SAPS  H20R 9956   0.506   0.921   8.630  0.3522 -1.0660  5.4329
   99SAPS  H20S 9957   0.479   1.069   8.732 -2.2964 -1.8323 -0.1884
   99SAPS  H20T 9958   0.642   1.012   8.704  0.1517 -2.1872 -0.8292
   99SAPS   C33 9959   0.776   0.864   7.155 -0.6205 -0.2511  0.2276
   99SAPS   H3X 9960   0.861   0.794   7.140  0.2672  1.2755 -2.4769
   99SAPS   H3Y 9961   0.675   0.820   7.141  0.1087 -1.5455 -1.2241
   99SAPS   C34 9962   0.802   0.926   7.294 -0.0538 -0.2069  0.1821
   99SAPS   H4X 9963   0.722   0.999   7.317  1.8628  1.4456  2.0055
   99SAPS   H4Y 9964   0.897   0.982   7.285 -0.5643  1.1571  2.4679
   99SAPS   C35 9965   0.813   0.812   7.395 -0.0513 -0.1460  0.1663
   99SAPS   H5X 9966   0.890   0.737   7.369  0.0792 -0.3973  1.2309
   99SAPS   H5Y 9967   0.719   0.753   7.402 -0.3426  0.4274  1.2650
   99SAPS   C36 9968   0.854   0.869   7.529 -0.0660 -0.2687  0.0270
   99SAPS   H6X 9969   0.780   0.947   7.554 -0.0658  0.1409 -1.1492
   99SAPS   H6Y 9970   0.954   0.917   7.522  0.3624 -1.1423  0.0068
   99SAPS   C37 9971   0.856   0.764   7.633  0.5872  1.0987 -0.1250
   99SAPS   H7X 9972   0.955   0.715   7.624  1.7051  3.3226 -0.8018
   99SAPS   H7Y 9973   0.775   0.691   7.614  1.1392  0.1376  1.0941
   99SAPS   C38 9974   0.830   0.814   7.773 -0.2539  0.4147  0.0734
   99SAPS   H8X 9975   0.825   0.723   7.837  1.2278 -1.0561 -1.8043
   99SAPS   H8Y 9976   0.732   0.866   7.776  0.0268  0.9218  1.5217
   99SAPS   C39 9977   0.947   0.900   7.817 -0.7314  0.9824  0.5347
   99SAPS   H9X 9978   0.961   0.995   7.761  0.2545  1.4310  1.5205
   99SAPS   H9Y 9979   1.048   0.855   7.816 -1.2723 -0.2954  0.2162
   99SAPS  C310 9980   0.937   0.940   7.964 -0.0608  0.2853 -0.2645
   99SAPS  H10X 9981   1.031   0.990   7.995  0.9319 -1.2300 -0.7116
   99SAPS  H10Y 9982   0.920   0.852   8.030 -0.1850  1.2415  1.0283
   99SAPS  C311 9983   0.818   1.040   7.989  0.1871  0.4707 -1.0462
   99SAPS  H11X 9984   0.727   1.005   7.937 -0.9121  0.5335  0.7679
   99SAPS  H11Y 9985   0.848   1.137   7.944  0.5561 -0.6588 -3.3654
   99SAPS  C312 9986   0.778   1.048   8.139  0.3427 -0.8390  0.7416
   99SAPS  H12X 9987   0.762   0.945   8.176  2.7007 -0.9390  1.6285
   99SAPS  H12Y 9988   0.696   1.121   8.158 -0.4028 -1.4228 -0.1522
   99SAPS  C313 9989   0.898   1.100   8.222  0.2683 -0.6607 -0.5611
   99SAPS  H13X 9990   0.945   1.181   8.162 -2.1158 -1.3293 -3.5584
   99SAPS  H13Y 9991   0.965   1.014   8.241 -0.0376 -0.4450  1.8107
   99SAPS  C314 9992   0.852   1.151   8.356 -0.9825  0.6938 -1.3639
   99SAPS  H14X 9993   0.821   1.065   8.419  1.3198  0.4505 -0.4404
   99SAPS  H14Y 9994   0.755   1.202   8.337 -1.4343  0.0057 -0.9178
   99SAPS  C315 9995   0.959   1.233   8.444 -0.1060 -0.0558 -0.0471
   99SAPS  H15X 9996   0.984   1.322   8.382  0.2530  0.4174  0.7678
   99SAPS  H15Y 9997   1.041   1.162   8.466 -1.2902 -0.7974  2.3219
   99SAPS  C316 9998   0.929   1.274   8.589 -0.5068  0.4762  0.3455
   99SAPS  H16X 9999   0.917   1.175   8.639 -1.2341 -0.8427 -2.2620
   99SAPS  H16Y10000   0.835   1.332   8.597 -0.1416  1.2593 -0.9064
   99SAPS  C31710001   1.042   1.348   8.665 -0.5543  0.9238 -0.2178
   99SAPS  H17X10002   1.021   1.380   8.769  1.1223  1.6989 -0.0806
   99SAPS  H17Y10003   1.059   1.437   8.601 -0.6490  0.3798 -1.0162
   99SAPS  C31810004   1.171   1.270   8.664 -0.0462  0.1193  0.1642
   99SAPS  H18X10005   1.218   1.287   8.564 -1.4619  0.4155 -0.4834
   99SAPS  H18Y10006   1.174   1.159   8.668  0.3492  0.1149 -0.1258
   99SAPS  H18Z10007   1.246   1.305   8.737 -1.4108  2.6756  0.4559
  100SAPS     N10008   4.368   3.199   5.745  0.2245 -0.8099 -0.1237
  100SAPS   HN110009   4.400   3.127   5.813  0.5477 -0.6186 -0.0686
  100SAPS   HN210010   4.334   3.281   5.799 -0.3309 -0.9201 -0.2978
  100SAPS   HN310011   4.284   3.157   5.701  0.8536 -1.4240 -0.7713
  100SAPS   C1210012   4.475   3.224   5.638 -0.2959  0.2045  0.4728
  100SAPS  H12A10013   4.474   3.138   5.574 -0.7420  2.3820 -2.6784
  100SAPS   C1310014   4.444   3.348   5.552  0.0590  0.6338 -0.2005
  100SAPS  O13A10015   4.339   3.412   5.577  0.2393  0.0461  0.4438
  100SAPS  O13B10016   4.518   3.383   5.458 -0.1018 -0.3128  0.1293
  100SAPS   C1110017   4.623   3.214   5.696  0.3182  0.2714 -0.8887
  100SAPS  H11A10018   4.694   3.205   5.611 -2.1422  0.0673 -3.0672
  100SAPS  H11B10019   4.637   3.116   5.745  0.7969  0.6620 -0.2135
  100SAPS     P10020   4.799   3.302   5.859 -0.2168 -0.0356  0.2731
  100SAPS   O1310021   4.871   3.185   5.815  0.7739 -0.3382  0.2070
  100SAPS   O1410022   4.864   3.430   5.838 -0.2944  0.0118 -0.1308
  100SAPS   O1210023   4.658   3.314   5.787 -0.2540 -0.6979 -0.2404
  100SAPS   O1110024   4.771   3.277   6.010  0.0347  0.1346  0.0007
  100SAPS    C110025   4.642   3.248   6.062 -0.4253 -0.0367 -0.3081
  100SAPS    HA10026   4.569   3.327   6.033 -1.0683 -0.0688  1.1620
  100SAPS    HB10027   4.597   3.150   6.034 -2.1078  0.2165  1.3492
  100SAPS    C210028   4.651   3.248   6.221 -0.0123  0.3583  0.5174
  100SAPS    HS10029   4.551   3.278   6.258  0.9772  1.2889  2.6287
  100SAPS   O2110030   4.751   3.336   6.280  0.2403 -0.4972 -0.1003
  100SAPS   C2110031   4.703   3.461   6.272 -0.3684  0.8916 -0.1745
  100SAPS   O2210032   4.602   3.501   6.220  0.5113 -0.5488  0.7364
  100SAPS   C2210033   4.788   3.547   6.355 -0.3411 -0.0941 -0.4843
  100SAPS   H2R10034   4.882   3.493   6.379 -1.0271 -1.0727  0.1089
  100SAPS   H2S10035   4.810   3.641   6.300  3.5141  0.3640  1.4775
  100SAPS    C310036   4.669   3.102   6.275 -0.5814  0.2896 -0.6984
  100SAPS    HX10037   4.772   3.068   6.250 -1.0077 -2.4768  0.8904
  100SAPS    HY10038   4.590   3.048   6.218 -1.8060  1.1443  0.1331
  100SAPS   O3110039   4.640   3.100   6.415 -0.0912 -0.2562  0.3932
  100SAPS   C3110040   4.746   3.120   6.495 -0.2932  0.2076 -0.4237
  100SAPS   O3210041   4.856   3.155   6.464 -0.3023 -0.0280 -0.1828
  100SAPS   C3210042   4.707   3.086   6.641 -0.0808  0.9256  0.3310
  100SAPS   H2X10043   4.644   2.996   6.628  0.6058  0.8091 -3.4324
  100SAPS   H2Y10044   4.640   3.164   6.683 -1.5434 -0.2259  0.2228
  100SAPS   C2310045   4.706   3.598   6.481 -0.4681  0.3700  0.6145
  100SAPS   H3R10046   4.604   3.625   6.444 -0.8167  0.5944  1.7028
  100SAPS   H3S10047   4.756   3.688   6.522  0.3449 -0.2213  0.9332
  100SAPS   C2410048   4.690   3.496   6.594 -0.5098 -0.3571 -0.0210
  100SAPS   H4R10049   4.634   3.407   6.557  0.5709 -0.6962 -0.8943
  100SAPS   H4S10050   4.611   3.528   6.665 -0.7528 -0.3378 -0.2963
  100SAPS   C2510051   4.814   3.456   6.672  0.1276  0.0093 -0.6988
  100SAPS   H5R10052   4.880   3.390   6.614 -1.4140 -2.7152  0.4590
  100SAPS   C2610053   4.850   3.488   6.803 -0.3894  0.2627  0.3620
  100SAPS   H6R10054   4.935   3.430   6.841 -0.1352 -1.1710 -2.1937
  100SAPS   C2710055   4.766   3.572   6.895 -0.1175  0.3921 -0.0499
  100SAPS   H7R10056   4.701   3.640   6.836 -0.3154  0.8026  0.6214
  100SAPS   H7S10057   4.834   3.646   6.944 -1.7542  1.2389  1.0499
  100SAPS   C2810058   4.689   3.480   6.990  0.2443 -0.4370 -0.8539
  100SAPS   H8R10059   4.604   3.428   6.943 -1.9860  2.1377  0.0655
  100SAPS   C2910060   4.723   3.465   7.118 -0.1111 -0.4939  0.2083
  100SAPS   H9R10061   4.661   3.399   7.181  1.6437 -1.5371  0.9308
  100SAPS  C21010062   4.846   3.519   7.197  1.1478 -0.2516  0.2573
  100SAPS  H10R10063   4.828   3.496   7.304  1.2412  0.1066  0.3511
  100SAPS  H10S10064   4.835   3.629   7.204  0.5168 -0.4250  2.8157
  100SAPS  C21110065   4.981   3.475   7.153 -0.2527 -0.7375  0.1502
  100SAPS  H11R10066   4.986   3.405   7.069 -1.1304 -2.6654  1.6248
  100SAPS  C21210067   5.100   3.505   7.214  0.3107  0.5200  1.2275
  100SAPS  H12R10068   5.195   3.474   7.167  2.1068  2.4762  3.3490
  100SAPS  C21310069   5.107   3.571   7.348 -0.0629  0.0421 -0.5482
  100SAPS  H13R10070   5.015   3.630   7.368  0.1568 -0.3607  1.9862
  100SAPS  H13S10071   5.188   3.648   7.349 -0.0650  0.0711 -1.8096
  100SAPS  C21410072   5.122   3.475   7.468  0.1822  0.2781  0.3760
  100SAPS  H14R10073   5.110   3.366   7.456  2.6668  0.0483 -0.5996
  100SAPS  C21510074   5.148   3.514   7.595 -0.2398  0.2246  0.8484
  100SAPS  H15R10075   5.154   3.430   7.666 -1.1616 -0.7565 -0.1995
  100SAPS  C21610076   5.167   3.652   7.647  0.7660 -0.3362 -0.4978
  100SAPS  H16R10077   5.147   3.726   7.566 -0.0946 -0.7946 -0.7070
  100SAPS  H16S10078   5.268   3.671   7.691 -0.6196  0.4602  2.6219
  100SAPS  C21710079   5.064   3.707   7.752 -0.3311  0.6054  0.5460
  100SAPS  H17R10080   4.970   3.713   7.693 -0.6646 -1.5684  0.7841
  100SAPS  H17S10081   5.088   3.812   7.782 -0.0312  0.7646 -0.2473
  100SAPS  C21810082   5.046   3.623   7.875  0.4613  0.3500  0.3067
  100SAPS  H18R10083   5.138   3.600   7.933  1.0873 -2.0057 -1.4470
  100SAPS  H18S10084   4.995   3.528   7.845  0.5501  0.5363 -0.4545
  100SAPS  C21910085   4.948   3.697   7.964  0.0067  0.5353  0.1301
  100SAPS  H19R10086   4.887   3.759   7.894 -0.1366 -1.6458 -1.7752
  100SAPS  H19S10087   5.011   3.769   8.021 -2.0645 -0.4554  4.0012
  100SAPS  C22010088   4.869   3.604   8.050  0.4053 -0.3807  0.2039
  100SAPS  H20R10089   4.784   3.656   8.099 -0.4572 -0.9183 -0.6692
  100SAPS  H20S10090   4.933   3.544   8.118  0.7725 -0.7771 -0.4802
  100SAPS  H20T10091   4.820   3.545   7.969 -0.8535  1.8452 -0.7399
  100SAPS   C3310092   4.829   3.067   6.735  0.7969 -0.0905  0.1072
  100SAPS   H3X10093   4.892   3.158   6.719  1.8481 -0.8097  0.0879
  100SAPS   H3Y10094   4.882   2.980   6.692 -0.7152 -1.8016  1.5331
  100SAPS   C3410095   4.804   3.046   6.882 -0.0080  0.4297  0.3257
  100SAPS   H4X10096   4.740   2.956   6.873  0.0430  0.4807 -0.6429
  100SAPS   H4Y10097   4.738   3.116   6.939 -1.7177 -0.6959 -0.1703
  100SAPS   C3510098   4.929   3.017   6.966 -0.0468  0.2839  0.6539
  100SAPS   H5X10099   4.994   3.107   6.960  0.3219 -0.0294 -4.1236
  100SAPS   H5Y10100   4.987   2.937   6.916  0.5233  0.8415  0.4090
  100SAPS   C3610101   4.908   2.977   7.111 -0.1265 -0.6549 -0.0636
  100SAPS   H6X10102   5.005   2.949   7.158 -0.6635  0.3977  1.7642
  100SAPS   H6Y10103   4.845   2.886   7.109  0.2366 -0.8971 -1.2940
  100SAPS   C3710104   4.853   3.098   7.200  0.4333  0.0487  0.2826
  100SAPS   H7X10105   4.743   3.093   7.181  0.5771  0.0404 -0.5766
  100SAPS   H7Y10106   4.885   3.195   7.154  3.3729  0.0556  2.1069
  100SAPS   C3810107   4.885   3.103   7.347 -0.5904 -0.0581 -0.0374
  100SAPS   H8X10108   4.843   3.199   7.384 -1.1527 -0.7292  1.1109
  100SAPS   H8Y10109   4.995   3.108   7.361 -0.6062  0.5617 -0.0857
  100SAPS   C3910110   4.828   2.992   7.430  0.2571 -0.3296  0.4059
  100SAPS   H9X10111   4.863   2.894   7.392 -0.2275 -0.9902  1.5862
  100SAPS   H9Y10112   4.718   2.996   7.420  0.3020 -1.7170 -1.0639
  100SAPS  C31010113   4.867   3.015   7.577  0.2429  0.5998 -0.1192
  100SAPS  H10X10114   4.844   3.120   7.607  0.4936  0.7463 -0.4343
  100SAPS  H10Y10115   4.975   2.990   7.593  1.1016  3.4174 -0.8192
  100SAPS  C31110116   4.780   2.918   7.667  0.2350 -0.2801 -0.2385
  100SAPS  H11X10117   4.690   2.898   7.606  0.4794 -2.2481 -0.0128
  100SAPS  H11Y10118   4.764   2.963   7.767  0.6370  0.6957 -0.6009
  100SAPS  C31210119   4.859   2.802   7.720 -0.2400  0.1537  0.0214
  100SAPS  H12X10120   4.945   2.842   7.776  0.2419  0.0800 -0.6512
  100SAPS  H12Y10121   4.901   2.740   7.638  1.5288  1.2616  0.0563
  100SAPS  C31310122   4.782   2.698   7.802 -0.0389 -0.8930  0.5982
  100SAPS  H13X10123   4.770   2.612   7.733  0.2383 -0.6610  0.2519
  100SAPS  H13Y10124   4.692   2.735   7.855  0.4497  1.4646 -0.0845
  100SAPS  C31410125   4.869   2.646   7.922  0.5707  0.1712  0.1265
  100SAPS  H14X10126   4.974   2.644   7.886  0.6211 -1.0008  0.3105
  100SAPS  H14Y10127   4.844   2.541   7.948 -0.2886  0.1517 -0.7495
  100SAPS  C31510128   4.867   2.741   8.043 -0.8282  0.6244 -1.0525
  100SAPS  H15X10129   4.764   2.770   8.074 -0.8571 -0.9067  0.4093
  100SAPS  H15Y10130   4.934   2.827   8.021 -0.3265  0.9584  1.4430
  100SAPS  C31610131   4.926   2.674   8.173 -0.1285 -0.1416 -0.1214
  100SAPS  H16X10132   4.885   2.574   8.200  0.0426  0.0320  0.8097
  100SAPS  H16Y10133   4.879   2.746   8.243 -4.3843 -0.7078 -2.0870
  100SAPS  C31710134   5.078   2.693   8.191 -0.2167  0.0658 -0.4839
  100SAPS  H17X10135   5.103   2.800   8.173  0.2559  0.0426  0.0112
  100SAPS  H17Y10136   5.125   2.618   8.124 -0.7736  0.3582 -1.2091
  100SAPS  C31810137   5.121   2.661   8.333 -0.1927 -0.3011  0.3778
  100SAPS  H18X10138   5.061   2.727   8.399  0.4562  0.8836 -0.1893
  100SAPS  H18Y10139   5.229   2.682   8.350  0.2277 -1.0239 -1.1812
  100SAPS  H18Z10140   5.109   2.553   8.356  1.8768 -0.6161  0.1815
  101OSM      N10141   4.731   4.683  10.437 -0.6399 -0.1704 -0.0569
  101OSM    C1510142   4.659   4.814  10.449  0.2882 -0.1530  0.1737
  101OSM   H15A10143   4.553   4.806  10.431  0.6877 -1.0448 -2.0525
  101OSM   H15B10144   4.690   4.900  10.391 -0.8595  0.0890 -0.0997
  101OSM   H15C10145   4.681   4.856  10.546  0.6359  1.6127 -0.6199
  101OSM    C1410146   4.863   4.687  10.512 -0.3030  0.6628 -0.4262
  101OSM   H14A10147   4.935   4.760  10.476 -0.3335  0.6943 -0.4237
  101OSM   H14B10148   4.917   4.594  10.501 -0.4255  0.8008 -2.7665
  101OSM   H14C10149   4.854   4.719  10.615  1.3686  0.8844 -0.3259
  101OSM    C1310150   4.642   4.580  10.506 -0.0371 -0.3927  0.4901
  101OSM   H13A10151   4.683   4.481  10.496  0.7758  0.2067 -4.0375
  101OSM   H13B10152   4.553   4.582  10.445  0.8438  0.8594 -0.8187
  101OSM   H13C10153   4.630   4.603  10.611  0.2218  1.8774  0.0902
  101OSM    C1210154   4.754   4.650  10.289 -0.0971  0.5819 -0.0863
  101OSM   H12A10155   4.785   4.547  10.278  0.4725  0.7164  0.2472
  101OSM   H12B10156   4.832   4.718  10.261 -1.3575  1.8542 -0.6275
  101OSM    C1110157   4.636   4.668  10.194  0.4928  0.1071 -0.5984
  101OSM   H11A10158   4.684   4.651  10.095 -0.5167 -0.8625 -0.9384
  101OSM   H11B10159   4.596   4.771  10.192  3.1378  1.2098 -1.6774
  101OSM      P10160   4.547   4.425  10.174  0.0452 -0.3692 -0.3280
  101OSM    O1310161   4.633   4.357  10.269  0.2657  0.4571  0.5859
  101OSM    O1410162   4.413   4.367  10.156 -0.2163 -0.1404 -0.1306
  101OSM    O1110163   4.635   4.433  10.045  0.0831 -0.4175 -0.1183
  101OSM    O1210164   4.530   4.578  10.222 -0.4221 -0.0476  0.2172
  101OSM    C1S10165   4.571   4.426   9.914 -0.2935  0.0670 -0.2629
  101OSM    H1S10166   4.499   4.508   9.897  0.1474  0.7751  1.1489
  101OSM    H1T10167   4.511   4.333   9.905 -1.0634  0.6060 -0.8691
  101OSM     NF10168   4.615   4.376   9.664 -0.1023 -0.0078 -0.3192
  101OSM    HNF10169   4.634   4.281   9.641 -1.6673 -1.0160  2.1613
  101OSM    C2S10170   4.678   4.415   9.792  0.4711  0.2343  0.1970
  101OSM    H2S10171   4.722   4.515   9.770  0.5217  0.6401  2.0039
  101OSM    C3S10172   4.815   4.338   9.837  0.5023  0.4166 -0.6945
  101OSM    H3S10173   4.790   4.230   9.849  0.0657  0.5868 -0.0113
  101OSM     O310174   4.875   4.389   9.957  0.2595  0.2631  0.0993
  101OSM    HO310175   4.800   4.413  10.013  1.1615 -0.8990  1.8712
  101OSM    C4S10176   4.922   4.369   9.739 -0.4187  0.7879  0.3270
  101OSM    H4S10177   4.978   4.462   9.757  1.8848 -0.1564 -1.4279
  101OSM    C5S10178   4.964   4.281   9.644 -0.4309 -0.1973 -0.0528
  101OSM    H5S10179   4.915   4.184   9.632  3.4055 -2.1801 -1.1210
  101OSM    C6S10180   5.067   4.327   9.544  0.1480 -0.2024  0.1941
  101OSM    H6S10181   5.112   4.237   9.498 -0.3696 -1.1312  1.4495
  101OSM    H6T10182   5.149   4.387   9.589 -1.5396  1.4818  1.1911
  101OSM    C7S10183   4.987   4.414   9.446  0.1838 -0.0447  0.7465
  101OSM    H7S10184   5.068   4.442   9.375  1.0410  0.2245  1.7969
  101OSM    H7T10185   4.949   4.508   9.491 -1.5893  0.2701 -1.2325
  101OSM    C8S10186   4.875   4.335   9.364  0.0799  0.2893  0.0382
  101OSM    H8S10187   4.784   4.337   9.428 -1.2927 -0.9756 -1.7817
  101OSM    H8T10188   4.916   4.232   9.357 -1.0914 -0.2038  0.1658
  101OSM    C9S10189   4.835   4.385   9.225 -0.5294  0.0414 -0.0243
  101OSM    H9S10190   4.927   4.395   9.162  0.3077 -0.3851  1.1057
  101OSM    H9T10191   4.778   4.480   9.239  0.9225  0.9555 -0.0881
  101OSM   C10S10192   4.744   4.274   9.170  0.7310  0.1848  0.4991
  101OSM   H10S10193   4.674   4.244   9.251  1.7274  0.3255  1.4299
  101OSM   H10T10194   4.808   4.187   9.145  0.8120  0.2672  0.4203
  101OSM   C11S10195   4.654   4.300   9.048 -0.8079  0.1653 -0.3120
  101OSM   H11S10196   4.717   4.306   8.957 -1.6182 -0.3352 -0.9218
  101OSM   H11T10197   4.605   4.400   9.051  0.0755  0.8956 -4.4373
  101OSM   C12S10198   4.541   4.195   9.039  0.4981 -0.9659 -0.4817
  101OSM   H12S10199   4.463   4.224   9.113  1.6803  0.9081  0.1101
  101OSM   H12T10200   4.588   4.098   9.063  1.6706 -0.2874  0.0621
  101OSM   C13S10201   4.476   4.183   8.899 -0.5120 -0.8816  0.7194
  101OSM   H13S10202   4.558   4.171   8.824 -0.6097  1.6450  0.1021
  101OSM   H13T10203   4.425   4.276   8.867 -0.9088 -1.3047  0.0953
  101OSM   C14S10204   4.388   4.058   8.884  0.3226 -0.5112 -0.4104
  101OSM   H14S10205   4.306   4.085   8.815  0.1291  1.7509  0.6117
  101OSM   H14T10206   4.351   4.020   8.982  0.9830 -1.2889 -0.4460
  101OSM   C15S10207   4.472   3.941   8.826 -0.6595  0.0999 -0.7592
  101OSM   H15S10208   4.435   3.841   8.856  3.7579 -1.4556  0.3078
  101OSM   H15T10209   4.569   3.948   8.880 -1.6482 -0.7777  1.2138
  101OSM   C16S10210   4.480   3.955   8.673  0.1811  0.0625  0.2466
  101OSM   H16S10211   4.536   4.048   8.652  2.2547 -1.3244 -0.6266
  101OSM   H16T10212   4.378   3.976   8.634 -0.0394 -1.7250 -0.2279
  101OSM   C17S10213   4.527   3.834   8.592 -0.1274  0.4365  0.5063
  101OSM   H17S10214   4.442   3.764   8.608 -0.0390 -0.0035 -0.7935
  101OSM   H17T10215   4.613   3.782   8.639  0.3798 -0.0478 -0.9094
  101OSM   C18S10216   4.554   3.851   8.442 -0.3410 -0.0916  0.2570
  101OSM   H18S10217   4.467   3.894   8.389 -0.8609 -0.2715  0.9466
  101OSM   H18T10218   4.566   3.747   8.405 -0.5243  0.7308 -2.3063
  101OSM   H18U10219   4.647   3.907   8.419  1.5635 -2.0156  2.7795
  101OSM    C1F10220   4.511   4.437   9.608  0.0772  0.6104 -0.2432
  101OSM     OF10221   4.446   4.521   9.665 -0.2994 -0.7923  0.3594
  101OSM    C2F10222   4.459   4.389   9.469 -0.4819 -0.2926 -0.3112
  101OSM    H2F10223   4.444   4.279   9.472  1.7827 -0.7530  4.9106
  101OSM    H2G10224   4.542   4.407   9.397 -0.4959 -0.9078 -0.4805
  101OSM    C3F10225   4.334   4.463   9.418 -0.1679 -0.5362  0.7790
  101OSM    H3F10226   4.333   4.574   9.418 -0.6595 -0.5335  0.3833
  101OSM    H3G10227   4.254   4.439   9.492  0.0470 -3.7208  0.1327
  101OSM    C4F10228   4.276   4.395   9.283  0.1765 -0.1530 -0.2193
  101OSM    H4F10229   4.168   4.371   9.290 -0.4289  2.1964 -0.4921
  101OSM    H4G10230   4.329   4.301   9.260 -0.3597  0.1337 -3.0122
  101OSM    C5F10231   4.291   4.499   9.167  0.1598  0.0911 -0.1958
  101OSM    H5F10232   4.402   4.496   9.156 -0.0509  0.2705 -2.8450
  101OSM    H5G10233   4.243   4.596   9.188 -1.5576 -0.0741 -2.9072
  101OSM    C6F10234   4.213   4.444   9.039  0.9020 -0.0618  0.2275
  101OSM    H6F10235   4.103   4.439   9.053  0.6398 -1.9294 -1.8846
  101OSM    H6G10236   4.240   4.341   9.006  1.4453  0.2220 -0.2342
  101OSM    C7F10237   4.233   4.526   8.920 -0.4948 -0.3115  0.9491
  101OSM    H7F10238   4.335   4.508   8.881 -1.6564  0.0210 -2.6145
  101OSM    H7G10239   4.235   4.637   8.927  0.8701 -0.3180  0.8288
  101OSM    C8F10240   4.142   4.491   8.801 -0.1522 -0.0749 -0.0305
  101OSM    H8F10241   4.151   4.561   8.715  2.6759  0.8117  0.8572
  101OSM    H8G10242   4.035   4.499   8.830 -0.7231  1.8489 -2.3133
  101OSM    C9F10243   4.173   4.348   8.748 -0.0404 -0.0750  0.5478
  101OSM    H9F10244   4.157   4.262   8.814 -0.7577 -0.4160 -0.0491
  101OSM   C10F10245   4.219   4.326   8.623 -0.3796  0.2167 -0.1649
  101OSM   H10F10246   4.237   4.221   8.598 -0.6896  0.1045  0.0719
  101OSM   C11F10247   4.237   4.424   8.518 -0.7329 -1.4331  0.0991
  101OSM   H11F10248   4.313   4.401   8.441 -1.9328 -0.7190 -1.3517
  101OSM   H11G10249   4.268   4.523   8.558 -0.3543 -1.2777 -0.5644
  101OSM   C12F10250   4.109   4.450   8.443  0.3700 -0.1562 -0.2597
  101OSM   H12F10251   4.028   4.475   8.515  0.4278  0.4025 -0.3837
  101OSM   H12G10252   4.069   4.355   8.401 -1.0654  0.3582 -0.0934
  101OSM   C13F10253   4.101   4.560   8.328 -0.2516  0.6486  0.1047
  101OSM   H13F10254   4.193   4.558   8.266  0.3674  0.9416  0.9916
  101OSM   H13G10255   4.093   4.664   8.366  0.1852  1.0217 -0.8039
  101OSM   C14F10256   3.979   4.540   8.238  0.0715 -0.2856 -0.1766
  101OSM   H14F10257   3.896   4.502   8.300 -1.3581  0.0054 -1.8201
  101OSM   H14G10258   4.002   4.472   8.153 -0.6891  0.8180 -1.3250
  101OSM   C15F10259   3.932   4.679   8.184 -0.2559 -0.1870 -0.1619
  101OSM   H15F10260   4.023   4.729   8.144 -0.7541 -0.3701 -1.5611
  101OSM   H15G10261   3.904   4.726   8.281 -0.2404  0.2468 -0.3626
  101OSM   C16F10262   3.833   4.685   8.070 -0.0766  0.0169  0.1352
  101OSM   H16F10263   3.739   4.632   8.097 -1.9489  2.3985 -1.3414
  101OSM   H16G10264   3.879   4.650   7.975 -0.9864 -0.5756 -0.0974
  101OSM   C17F10265   3.789   4.832   8.052  0.2606  0.2122 -0.6001
  101OSM   H17F10266   3.879   4.896   8.067 -0.3302  1.3202 -1.6461
  101OSM   H17G10267   3.710   4.862   8.124 -0.6100  0.0817 -1.4912
  101OSM   C18F10268   3.742   4.876   7.910 -0.0070 -0.0441  0.2042
  101OSM   H18F10269   3.640   4.835   7.897 -0.9132  2.5519 -1.8130
  101OSM   H18G10270   3.821   4.825   7.851  0.8831  0.6556  0.7494
  101OSM   H18H10271   3.737   4.987   7.904  0.4279  0.0212  0.8881
  102OSM      N10272   4.895   1.564  10.714  0.0991  0.1049  0.4222
  102OSM    C1510273   4.758   1.519  10.668 -0.7455  0.5648 -0.0419
  102OSM   H15A10274   4.778   1.438  10.600  0.1832  0.3078  0.5182
  102OSM   H15B10275   4.701   1.600  10.625  1.5422  2.1414 -0.2995
  102OSM   H15C10276   4.689   1.485  10.745 -0.9005 -0.5867 -0.6673
  102OSM    C1410277   4.991   1.590  10.604  0.0826 -0.1900  0.2519
  102OSM   H14A10278   4.939   1.631  10.518  1.3851  0.8034 -0.1031
  102OSM   H14B10279   5.045   1.502  10.574 -1.7761 -0.4490 -2.7210
  102OSM   H14C10280   5.068   1.660  10.633  2.1554 -2.6165  0.9705
  102OSM    C1310281   4.878   1.695  10.795  0.1439  0.5464 -0.5145
  102OSM   H13A10282   4.969   1.740  10.832  0.2635 -0.3793  0.3497
  102OSM   H13B10283   4.804   1.671  10.870 -0.4814  2.1754 -0.5559
  102OSM   H13C10284   4.833   1.769  10.731  0.5962  0.9894 -0.3331
  102OSM    C1210285   4.954   1.462  10.813 -0.1125  0.0765  0.3406
  102OSM   H12A10286   4.895   1.459  10.904 -0.3887  1.3916  0.2286
  102OSM   H12B10287   5.054   1.490  10.841  0.4102 -1.1658 -0.2398
  102OSM    C1110288   4.965   1.316  10.767  0.1366 -0.5188  0.2308
  102OSM   H11A10289   4.864   1.275  10.744  0.2675 -0.3528 -0.6768
  102OSM   H11B10290   5.002   1.257  10.853  1.8671 -0.2404 -0.2842
  102OSM      P10291   5.095   1.157  10.619  0.0101  0.4794 -0.0219
  102OSM    O1310292   5.222   1.150  10.547  0.8685  0.5608  0.3541
  102OSM    O1410293   5.084   1.071  10.738 -0.5248  0.1604 -0.0469
  102OSM    O1110294   4.980   1.126  10.514  0.2958  0.6769  0.5815
  102OSM    O1210295   5.056   1.309  10.661  0.4792 -0.4860 -0.3424
  102OSM    C1S10296   4.940   1.229  10.418  0.0025 -0.0179  0.1477
  102OSM    H1S10297   5.013   1.314  10.417  1.7936 -1.4759  0.6451
  102OSM    H1T10298   4.846   1.270  10.461 -1.2369 -1.1471 -1.3830
  102OSM     NF10299   4.871   1.294  10.196 -0.2007 -0.5540  0.4498
  102OSM    HNF10300   4.773   1.311  10.188 -0.0527 -0.0651 -0.5050
  102OSM    C2S10301   4.914   1.180  10.275 -0.2307 -0.2564  0.2961
  102OSM    H2S10302   5.009   1.134  10.239 -0.8350 -3.5886  2.5095
  102OSM    C3S10303   4.813   1.062  10.271  0.2744 -0.8539  0.3596
  102OSM    H3S10304   4.706   1.093  10.275  0.2656 -0.9956  2.2563
  102OSM     O310305   4.803   0.975  10.378 -0.1317  0.1199 -0.3794
  102OSM    HO310306   4.881   1.008  10.423 -0.6487  1.1008 -0.1757
  102OSM    C4S10307   4.825   0.995  10.136  0.9486 -0.0802  0.2589
  102OSM    H4S10308   4.798   1.044  10.042  1.7133 -2.9557 -1.6044
  102OSM    C5S10309   4.880   0.872  10.119  0.6658 -0.1641 -0.4830
  102OSM    H5S10310   4.915   0.822  10.210 -1.9451 -0.1511  0.6012
  102OSM    C6S10311   4.904   0.799   9.993 -0.1048  0.2769  0.0375
  102OSM    H6S10312   4.874   0.693  10.007 -0.9436  0.4296 -0.5381
  102OSM    H6T10313   5.013   0.803   9.973 -0.1453  0.6092 -0.1321
  102OSM    C7S10314   4.835   0.862   9.869  0.2868 -0.1387  0.1335
  102OSM    H7S10315   4.852   0.971   9.854 -0.3933  0.4789  3.1753
  102OSM    H7T10316   4.728   0.860   9.898  0.3903  0.1055  0.5446
  102OSM    C8S10317   4.865   0.785   9.739  0.5003 -0.7143  0.0323
  102OSM    H8S10318   4.851   0.674   9.738 -0.9127 -0.5712  0.6903
  102OSM    H8T10319   4.971   0.808   9.718 -0.2158  0.2536 -2.9091
  102OSM    C9S10320   4.785   0.854   9.620 -0.5841  0.5638 -0.2663
  102OSM    H9S10321   4.829   0.956   9.609  3.3272 -0.8578  0.7437
  102OSM    H9T10322   4.675   0.853   9.637 -0.9131  1.5136 -2.0485
  102OSM   C10S10323   4.833   0.791   9.489 -0.3061  0.0956  0.4946
  102OSM   H10S10324   4.933   0.743   9.497 -0.0011  0.8502  1.4051
  102OSM   H10T10325   4.844   0.878   9.421  0.5709 -0.7610 -0.5057
  102OSM   C11S10326   4.735   0.690   9.422 -0.0241 -0.3488 -0.0206
  102OSM   H11S10327   4.638   0.745   9.413  0.8312  1.1005 -0.7289
  102OSM   H11T10328   4.716   0.609   9.495 -3.2724  1.1995  1.0677
  102OSM   C12S10329   4.783   0.644   9.284 -0.0639 -0.7266  0.1620
  102OSM   H12S10330   4.749   0.542   9.258  1.4718 -0.5398 -2.9687
  102OSM   H12T10331   4.894   0.645   9.279 -0.0265 -1.4218  0.6630
  102OSM   C13S10332   4.737   0.739   9.174 -0.4641 -0.0210 -1.0112
  102OSM   H13S10333   4.778   0.841   9.194  1.3624 -1.2087  1.9797
  102OSM   H13T10334   4.627   0.748   9.162 -0.5912  0.2980  0.3205
  102OSM   C14S10335   4.789   0.697   9.035  0.2615 -0.0361  0.3985
  102OSM   H14S10336   4.744   0.597   9.016 -0.6145  0.4069  0.1027
  102OSM   H14T10337   4.898   0.689   9.053  0.4553  1.2767 -0.1075
  102OSM   C15S10338   4.754   0.787   8.916  0.1362 -0.1607 -0.2674
  102OSM   H15S10339   4.645   0.810   8.919 -0.0598 -1.1074  0.6776
  102OSM   H15T10340   4.764   0.737   8.818 -0.4922  0.3376 -0.5994
  102OSM   C16S10341   4.826   0.916   8.919  0.2091 -0.3963  0.3234
  102OSM   H16S10342   4.935   0.896   8.928  0.5308  1.4392  0.7500
  102OSM   H16T10343   4.803   0.971   9.013 -1.2916 -2.1642  1.0574
  102OSM   C17S10344   4.797   1.016   8.809 -0.2760 -1.1069  0.1843
  102OSM   H17S10345   4.838   1.114   8.841 -0.6710 -1.5491  2.1410
  102OSM   H17T10346   4.687   1.034   8.807 -0.3563 -1.5030 -1.8875
  102OSM   C18S10347   4.848   0.971   8.673 -0.6511  0.0689 -0.7513
  102OSM   H18S10348   4.774   0.904   8.624 -0.8334 -1.1965  1.1845
  102OSM   H18T10349   4.942   0.914   8.685  0.3073  1.9242  1.2118
  102OSM   H18U10350   4.858   1.062   8.609 -0.9069  1.4043  1.0444
  102OSM    C1F10351   4.961   1.386  10.166 -0.5803  0.0369 -0.1352
  102OSM     OF10352   5.081   1.389  10.197 -0.2032  0.0639 -0.5123
  102OSM    C2F10353   4.897   1.513  10.124 -0.1007  0.1724 -0.4188
  102OSM    H2F10354   4.885   1.576  10.215 -1.1075 -1.3480  0.5472
  102OSM    H2G10355   4.798   1.496  10.078 -0.9403  0.5992  1.1454
  102OSM    C3F10356   4.975   1.588  10.008  0.3375 -0.9926  0.1258
  102OSM    H3F10357   5.078   1.603  10.049 -0.1585  2.3653  0.4694
  102OSM    H3G10358   4.936   1.691   9.992  1.2119 -0.7258 -0.3993
  102OSM    C4F10359   4.967   1.515   9.874  0.5416 -0.6794 -0.0304
  102OSM    H4F10360   4.864   1.523   9.832  0.7631 -0.4476 -0.5397
  102OSM    H4G10361   4.977   1.405   9.892  0.6750 -0.5384  0.7682
  102OSM    C5F10362   5.069   1.572   9.775 -0.9263  0.1584 -0.3097
  102OSM    H5F10363   5.173   1.535   9.793 -1.1643 -0.6634 -0.6052
  102OSM    H5G10364   5.070   1.682   9.792 -1.5832  0.2432 -0.7968
  102OSM    C6F10365   5.030   1.550   9.627 -0.2027  0.1674 -0.3155
  102OSM    H6F10366   4.926   1.590   9.627  0.8799  3.6298  3.1341
  102OSM    H6G10367   5.031   1.441   9.611  1.1870  0.1949 -0.5324
  102OSM    C7F10368   5.134   1.614   9.527  0.4136 -0.2902 -1.0844
  102OSM    H7F10369   5.222   1.546   9.534  2.1032  1.9695  1.6608
  102OSM    H7G10370   5.177   1.712   9.558  0.8315 -0.4520 -1.1342
  102OSM    C8F10371   5.111   1.632   9.376 -0.3798  0.1854  0.7196
  102OSM    H8F10372   5.206   1.666   9.330 -0.9004  1.0451  0.2544
  102OSM    H8G10373   5.023   1.698   9.360 -1.4618 -1.7424 -2.0686
  102OSM    C9F10374   5.071   1.499   9.309  0.3571  0.2064  0.1578
  102OSM    H9F10375   4.999   1.434   9.361 -0.6831  0.5197 -0.8536
  102OSM   C10F10376   5.105   1.447   9.186  0.6888  0.7220 -0.3852
  102OSM   H10F10377   5.084   1.341   9.163  1.8358  0.4915 -0.4020
  102OSM   C11F10378   5.205   1.506   9.093 -0.0166 -0.2476 -0.4406
  102OSM   H11F10379   5.307   1.520   9.135  0.8596  1.1404 -2.8306
  102OSM   H11G10380   5.167   1.608   9.072 -3.3245 -0.8927  1.5989
  102OSM   C12F10381   5.209   1.437   8.950  0.1123 -0.0652  0.3788
  102OSM   H12F10382   5.226   1.328   8.964  0.5134 -0.2312 -1.2617
  102OSM   H12G10383   5.289   1.474   8.884  0.3947 -1.3407 -0.0210
  102OSM   C13F10384   5.080   1.438   8.874  0.1672 -0.0555 -0.4597
  102OSM   H13F10385   5.057   1.542   8.844  0.4989  0.7850  2.0402
  102OSM   H13G10386   5.000   1.411   8.946  1.0190  0.9988  0.9236
  102OSM   C14F10387   5.074   1.349   8.755 -0.0248  0.2202 -0.0985
  102OSM   H14F10388   4.995   1.274   8.778 -0.0334  0.1751 -0.2726
  102OSM   H14G10389   5.175   1.305   8.739 -0.0750  0.3580 -0.8201
  102OSM   C15F10390   5.034   1.418   8.623 -0.0795 -0.0939 -0.2082
  102OSM   H15F10391   5.107   1.501   8.622 -1.7952  1.5793  2.3957
  102OSM   H15G10392   4.934   1.465   8.616  0.5236  1.2592 -0.1160
  102OSM   C16F10393   5.049   1.332   8.498 -0.0654 -0.5859  0.5533
  102OSM   H16F10394   4.960   1.268   8.479 -2.6880  2.6656  0.7753
  102OSM   H16G10395   5.140   1.272   8.519  2.7584  3.0579 -0.2102
  102OSM   C17F10396   5.078   1.415   8.375 -0.2442 -0.2294  0.2029
  102OSM   H17F10397   5.139   1.503   8.403  0.5147 -1.0778  1.2999
  102OSM   H17G10398   4.987   1.450   8.321 -0.2198 -0.9010 -0.3003
  102OSM   C18F10399   5.150   1.324   8.271  0.4580  0.2655  0.2445
  102OSM   H18F10400   5.077   1.249   8.234 -0.3208  1.7218 -1.3179
  102OSM   H18G10401   5.246   1.290   8.316  0.7407  2.2074  1.2056
  102OSM   H18H10402   5.181   1.381   8.181  1.3428  0.4257  0.6446
  103OSM      N10403   2.686   4.379  11.091  0.0971 -0.2794  0.5931
  103OSM    C1510404   2.767   4.427  11.204  0.6747 -0.0220 -0.4728
  103OSM   H15A10405   2.841   4.496  11.166 -0.6082  1.1163 -1.0191
  103OSM   H15B10406   2.805   4.345  11.263 -0.5110  0.4152  0.9543
  103OSM   H15C10407   2.710   4.481  11.278  1.7888  1.0237 -0.3456
  103OSM    C1410408   2.772   4.297  10.996 -0.5586 -0.1196 -0.7027
  103OSM   H14A10409   2.838   4.230  11.048 -0.9198  0.1906  0.1841
  103OSM   H14B10410   2.829   4.364  10.934 -0.1389 -0.3691 -0.5869
  103OSM   H14C10411   2.710   4.239  10.930 -0.3109 -1.6233  0.3318
  103OSM    C1310412   2.583   4.286  11.135  0.6330  0.4676  0.7513
  103OSM   H13A10413   2.539   4.246  11.045  0.7914  1.5287  0.1820
  103OSM   H13B10414   2.509   4.349  11.182 -1.1545 -0.6881 -0.3859
  103OSM   H13C10415   2.619   4.199  11.187 -0.1624  1.4528  3.0859
  103OSM    C1210416   2.614   4.488  11.005  0.7208 -0.1300 -0.0967
  103OSM   H12A10417   2.561   4.440  10.924 -1.6309  3.3715 -0.8775
  103OSM   H12B10418   2.692   4.548  10.961 -1.4806  0.8922 -2.9054
  103OSM    C1110419   2.515   4.580  11.076  0.0160  0.9491  0.2240
  103OSM   H11A10420   2.494   4.663  11.005 -0.0031 -0.9838 -2.1792
  103OSM   H11B10421   2.563   4.630  11.163 -2.0468  2.1097  0.7547
  103OSM      P10422   2.289   4.460  10.995 -0.3386 -0.0105  0.3689
  103OSM    O1310423   2.213   4.349  11.045  0.5469  0.4070  0.1037
  103OSM    O1410424   2.212   4.577  10.941  0.4353 -0.0042  0.5956
  103OSM    O1110425   2.388   4.412  10.881  0.4889  0.0489  0.3139
  103OSM    O1210426   2.390   4.510  11.115 -0.3884 -0.6037 -0.6522
  103OSM    C1S10427   2.360   4.300  10.796 -0.4726 -0.2063  0.3084
  103OSM    H1S10428   2.295   4.224  10.844 -1.7407  0.7099  0.0799
  103OSM    H1T10429   2.455   4.244  10.779  0.8423  1.0936  2.7789
  103OSM     NF10430   2.273   4.208  10.585  0.0174  0.3740 -0.4944
  103OSM    HNF10431   2.338   4.167  10.520  2.5501 -0.2046  2.1688
  103OSM    C2S10432   2.295   4.332  10.657  0.2463 -0.3273 -0.3612
  103OSM    H2S10433   2.195   4.379  10.673 -0.5168 -1.1493 -2.3173
  103OSM    C3S10434   2.380   4.439  10.575  0.4907 -0.3495  0.4568
  103OSM    H3S10435   2.474   4.385  10.554  0.0720 -0.8670 -0.1035
  103OSM     O310436   2.427   4.553  10.643 -0.1369  0.3440 -0.3388
  103OSM    HO310437   2.413   4.519  10.732  0.1058 -1.5262 -0.9684
  103OSM    C4S10438   2.307   4.467  10.446  0.0358  0.0412 -0.2181
  103OSM    H4S10439   2.344   4.414  10.357 -1.1844  0.2350 -0.8541
  103OSM    C5S10440   2.193   4.533  10.427  0.3608 -0.1727  0.1181
  103OSM    H5S10441   2.130   4.573  10.507  0.4279 -1.2540  0.7255
  103OSM    C6S10442   2.116   4.544  10.301 -0.0122 -0.1926 -0.3230
  103OSM    H6S10443   2.170   4.502  10.214  1.2196  1.3251 -0.3386
  103OSM    H6T10444   2.123   4.653  10.278  0.6689  0.5176  2.6833
  103OSM    C7S10445   1.975   4.481  10.318  0.3288  0.1796 -0.4340
  103OSM    H7S10446   1.941   4.511  10.419  1.0320  0.7121 -0.3444
  103OSM    H7T10447   1.973   4.372  10.299 -1.4076 -0.1632  1.4377
  103OSM    C8S10448   1.873   4.536  10.203  0.5808 -0.8777 -0.3975
  103OSM    H8S10449   1.864   4.646  10.194  1.4918 -0.8824 -1.8672
  103OSM    H8T10450   1.774   4.500  10.237  0.1625 -0.7002 -1.3917
  103OSM    C9S10451   1.912   4.496  10.060  0.1858 -0.5375  0.0946
  103OSM    H9S10452   1.909   4.386  10.045  0.2516 -0.5350  0.0656
  103OSM    H9T10453   2.014   4.538  10.045 -0.9105  3.5640  2.6132
  103OSM   C10S10454   1.813   4.561   9.951  0.1141 -0.1003 -1.3188
  103OSM   H10S10455   1.826   4.671   9.947 -1.8348  0.2148 -0.2985
  103OSM   H10T10456   1.709   4.535   9.983  1.4492 -1.6108  2.2777
  103OSM   C11S10457   1.842   4.511   9.808 -0.0452  0.3944  0.2256
  103OSM   H11S10458   1.882   4.408   9.807  0.6406  0.6428  1.1065
  103OSM   H11T10459   1.905   4.583   9.752  0.1920  0.3941  0.4945
  103OSM   C12S10460   1.710   4.508   9.719 -0.0237  0.2825 -0.2837
  103OSM   H12S10461   1.686   4.616   9.705  0.5655  0.3689 -0.6449
  103OSM   H12T10462   1.632   4.445   9.767 -0.8228  0.5384 -1.1904
  103OSM   C13S10463   1.733   4.443   9.582  0.0422  0.2121  0.3130
  103OSM   H13S10464   1.775   4.341   9.590  0.0677  0.1927 -0.0662
  103OSM   H13T10465   1.812   4.506   9.536  1.2127 -0.5983  1.1451
  103OSM   C14S10466   1.604   4.435   9.496 -0.1611 -0.2249 -0.4750
  103OSM   H14S10467   1.539   4.518   9.531  1.4294  0.4603  0.9833
  103OSM   H14T10468   1.548   4.342   9.522 -0.9071 -0.1429 -1.7058
  103OSM   C15S10469   1.620   4.448   9.347 -0.4676 -0.7639  1.1644
  103OSM   H15S10470   1.688   4.363   9.324 -2.5016 -1.7438 -1.7254
  103OSM   H15T10471   1.659   4.547   9.318 -1.7022 -0.4051  0.6792
  103OSM   C16S10472   1.488   4.425   9.280 -0.4903  0.2914  1.0081
  103OSM   H16S10473   1.402   4.482   9.322 -0.2414  0.4512  1.2998
  103OSM   H16T10474   1.466   4.317   9.295 -1.4557  0.0956 -1.3854
  103OSM   C17S10475   1.491   4.455   9.129 -0.9139  0.0705 -0.1252
  103OSM   H17S10476   1.572   4.396   9.080  0.1797  1.3167  0.1131
  103OSM   H17T10477   1.517   4.562   9.109  0.0956 -0.3080 -0.9788
  103OSM   C18S10478   1.365   4.409   9.059 -0.6121 -0.4812 -0.1366
  103OSM   H18S10479   1.283   4.484   9.065  0.3951  0.5152  2.2873
  103OSM   H18T10480   1.327   4.316   9.105 -0.3567 -0.3927  0.2528
  103OSM   H18U10481   1.394   4.391   8.953  1.5358  1.4135  0.0454
  103OSM    C1F10482   2.177   4.134  10.628 -0.1796  1.0107  0.0823
  103OSM     OF10483   2.082   4.177  10.694  0.3824  0.0170  0.1953
  103OSM    C2F10484   2.171   3.992  10.570 -0.1473 -0.3465  0.6287
  103OSM    H2F10485   2.204   3.913  10.642  1.4889 -1.9654 -1.7225
  103OSM    H2G10486   2.226   3.988  10.474 -2.2416  1.2550 -0.7107
  103OSM    C3F10487   2.019   3.956  10.542  0.6572 -0.2383  0.0823
  103OSM    H3F10488   1.965   3.955  10.639  1.5196 -1.1115  0.5728
  103OSM    H3G10489   1.999   3.853  10.507 -0.3779 -1.5156  3.9452
  103OSM    C4F10490   1.969   4.052  10.432 -0.6286  0.2670 -0.5232
  103OSM    H4F10491   2.054   4.048  10.361  0.4993  1.4247  0.7046
  103OSM    H4G10492   1.963   4.155  10.474  0.8409  0.7645 -1.4330
  103OSM    C5F10493   1.852   4.010  10.343 -0.6518 -0.7941  0.3000
  103OSM    H5F10494   1.767   3.983  10.409 -0.4095 -0.2568  0.8442
  103OSM    H5G10495   1.876   3.912  10.296 -1.2791 -0.3779 -0.9497
  103OSM    C6F10496   1.823   4.115  10.235 -0.3649 -0.5082  0.0599
  103OSM    H6F10497   1.920   4.159  10.205  0.0886  1.3488  3.7202
  103OSM    H6G10498   1.777   4.206  10.280  2.5744  1.5757 -0.8742
  103OSM    C7F10499   1.736   4.049  10.135  0.4789 -0.5101  0.3719
  103OSM    H7F10500   1.655   3.985  10.177 -0.7551 -0.2897 -1.5586
  103OSM    H7G10501   1.790   3.967  10.083 -2.0311 -0.1853 -3.1188
  103OSM    C8F10502   1.674   4.139  10.021  0.1893  0.2237 -0.1800
  103OSM    H8F10503   1.627   4.079   9.940  0.2894 -0.8348  0.5278
  103OSM    H8G10504   1.757   4.198   9.976 -0.6896  0.3588 -1.6913
  103OSM    C9F10505   1.579   4.243  10.080  0.3616  0.3181 -0.6616
  103OSM    H9F10506   1.629   4.294  10.164  1.9800  0.7916 -1.8821
  103OSM   C10F10507   1.445   4.258  10.054 -0.2365  1.2572  0.0174
  103OSM   H10F10508   1.392   4.344  10.100 -0.5491  1.1934 -0.2189
  103OSM   C11F10509   1.367   4.182   9.951 -0.2867  0.1888  0.2911
  103OSM   H11F10510   1.325   4.085   9.986 -0.5283  0.6089  1.1734
  103OSM   H11G10511   1.426   4.160   9.859  1.8483  1.1092  1.3595
  103OSM   C12F10512   1.245   4.267   9.899  0.6484 -0.3760  0.5377
  103OSM   H12F10513   1.275   4.371   9.875 -2.3665  0.3082 -0.7318
  103OSM   H12G10514   1.178   4.263   9.988  1.4485 -1.0627  1.1314
  103OSM   C13F10515   1.175   4.193   9.788  0.2143  0.1263  0.5476
  103OSM   H13F10516   1.180   4.082   9.790 -0.8025 -0.0035 -1.5556
  103OSM   H13G10517   1.067   4.220   9.790  0.1220 -0.2180  2.4498
  103OSM   C14F10518   1.224   4.243   9.648 -0.1888 -0.2030 -0.1471
  103OSM   H14F10519   1.332   4.225   9.633 -0.0823 -0.4381  0.8342
  103OSM   H14G10520   1.209   4.353   9.654  0.0134 -0.2410  2.8766
  103OSM   C15F10521   1.142   4.198   9.529  0.0749  0.0304 -0.2973
  103OSM   H15F10522   1.045   4.253   9.529 -1.0414 -1.8329 -1.6751
  103OSM   H15G10523   1.101   4.096   9.545 -0.4775  0.5179  1.6688
  103OSM   C16F10524   1.198   4.207   9.386  0.5975  0.1344  0.2044
  103OSM   H16F10525   1.288   4.143   9.373  0.0932 -0.2111 -1.8503
  103OSM   H16G10526   1.227   4.312   9.363 -1.3303  0.3624 -1.4170
  103OSM   C17F10527   1.083   4.155   9.298 -0.1190 -0.4567 -0.0609
  103OSM   H17F10528   0.986   4.203   9.324 -1.0854 -1.1761 -2.0976
  103OSM   H17G10529   1.057   4.052   9.332 -1.1328 -0.5081 -0.9198
  103OSM   C18F10530   1.101   4.155   9.143 -0.0165  0.5356 -0.0245
  103OSM   H18F10531   1.180   4.080   9.122 -1.4148 -1.0373  0.1611
  103OSM   H18G10532   1.112   4.252   9.089 -0.1743  0.9804  0.7225
  103OSM   H18H10533   1.015   4.109   9.089  0.0575 -0.9189  1.0552
  104OSM      N10534   3.499   3.393  10.984 -0.5116 -1.2957  0.1057
  104OSM    C1510535   3.360   3.456  10.989 -0.3215 -0.1537 -0.3156
  104OSM   H15A10536   3.332   3.524  10.911 -0.7191  0.3895  0.2865
  104OSM   H15B10537   3.350   3.499  11.088 -0.9401  2.2520 -1.3607
  104OSM   H15C10538   3.295   3.369  10.986 -2.1251  1.1112 -0.1182
  104OSM    C1410539   3.594   3.507  10.993  0.6320 -0.7311 -0.5576
  104OSM   H14A10540   3.556   3.573  10.917  0.7208 -1.6451 -1.4085
  104OSM   H14B10541   3.698   3.484  10.977  1.0177  1.1144 -0.9811
  104OSM   H14C10542   3.575   3.564  11.083 -1.4442 -0.3860 -1.1650
  104OSM    C1310543   3.511   3.294  11.092 -0.2607  0.7585 -0.4020
  104OSM   H13A10544   3.459   3.203  11.067  0.9743 -1.1211  3.2471
  104OSM   H13B10545   3.491   3.335  11.190 -2.3450  0.9819 -0.8855
  104OSM   H13C10546   3.613   3.257  11.096  0.5227  2.6174 -1.6349
  104OSM    C1210547   3.519   3.333  10.845  0.1758 -1.2257 -0.6038
  104OSM   H12A10548   3.625   3.322  10.825  1.4453  3.4061  1.9400
  104OSM   H12B10549   3.501   3.414  10.776 -2.5492 -0.2107  1.1385
  104OSM    C1110550   3.440   3.210  10.795  0.2879 -0.2010  1.0539
  104OSM   H11A10551   3.415   3.227  10.688 -1.5794  1.9939  1.7649
  104OSM   H11B10552   3.342   3.202  10.847  1.7555 -1.4835  3.8601
  104OSM      P10553   3.620   3.042  10.732  0.1402  0.0417 -0.3521
  104OSM    O1310554   3.672   3.155  10.656  0.2842  0.0566 -0.6667
  104OSM    O1410555   3.720   2.970  10.810 -0.1079  0.1654  0.1883
  104OSM    O1110556   3.563   2.935  10.626 -0.2181 -0.2443  0.3156
  104OSM    O1210557   3.501   3.088  10.825  0.5330  0.2002 -0.4565
  104OSM    C1S10558   3.482   2.974  10.517 -0.6145 -0.5965 -0.0059
  104OSM    H1S10559   3.489   3.084  10.505  0.5901 -0.8046 -1.5037
  104OSM    H1T10560   3.377   2.942  10.534 -0.2884 -0.0113  4.2712
  104OSM     NF10561   3.449   2.977  10.269  0.6929 -0.6977  0.2544
  104OSM    HNF10562   3.357   2.947  10.243  0.2319  1.6448 -1.1708
  104OSM    C2S10563   3.528   2.916  10.381 -0.0971 -0.0389  0.5525
  104OSM    H2S10564   3.629   2.958  10.367 -0.9882  2.1665  0.3129
  104OSM    C3S10565   3.526   2.767  10.381  0.4734 -0.0964  0.0025
  104OSM    H3S10566   3.421   2.733  10.393  0.8613 -0.8758  1.4217
  104OSM     O310567   3.598   2.710  10.482 -0.4935 -0.4297 -0.6730
  104OSM    HO310568   3.598   2.785  10.542  3.8561 -0.2294 -0.5684
  104OSM    C4S10569   3.571   2.714  10.253  0.1212 -0.1027 -0.2213
  104OSM    H4S10570   3.675   2.727  10.218 -0.3457 -3.1132 -3.3438
  104OSM    C5S10571   3.498   2.632  10.172 -0.3276  0.4307  0.6272
  104OSM    H5S10572   3.407   2.594  10.220  0.1770 -0.7806  0.6571
  104OSM    C6S10573   3.540   2.557  10.047  0.4216  0.3013 -0.0579
  104OSM    H6S10574   3.491   2.458  10.040  1.3518 -0.2636  1.1465
  104OSM    H6T10575   3.649   2.537  10.051 -0.0120 -2.3050  2.4590
  104OSM    C7S10576   3.501   2.627   9.908  0.0034 -0.0140  0.0209
  104OSM    H7S10577   3.553   2.725   9.914  1.5683 -0.8824  1.5907
  104OSM    H7T10578   3.393   2.652   9.901 -0.2281 -0.7824  0.7984
  104OSM    C8S10579   3.546   2.540   9.799  0.5801  0.3152 -0.0069
  104OSM    H8S10580   3.516   2.435   9.822  0.1740  0.6268  0.9197
  104OSM    H8T10581   3.654   2.532   9.773  0.1150 -1.8179 -1.5856
  104OSM    C9S10582   3.472   2.585   9.674 -0.1127 -0.3019 -0.0050
  104OSM    H9S10583   3.491   2.694   9.666  0.2445 -0.1362  2.3432
  104OSM    H9T10584   3.362   2.583   9.684 -0.0333 -2.5217  1.2751
  104OSM   C10S10585   3.519   2.511   9.550  0.0713  0.0742  0.2361
  104OSM   H10S10586   3.469   2.413   9.534 -0.9616  0.9234 -2.2576
  104OSM   H10T10587   3.630   2.500   9.546  0.1633  1.0496 -0.3197
  104OSM   C11S10588   3.482   2.600   9.432  0.1361  0.6158  0.0699
  104OSM   H11S10589   3.535   2.698   9.433  0.0819  0.6560 -0.6519
  104OSM   H11T10590   3.374   2.620   9.445  0.2576  1.2416  0.1437
  104OSM   C12S10591   3.519   2.538   9.292  0.3622 -0.1917  0.3072
  104OSM   H12S10592   3.547   2.435   9.324  1.2064 -0.1098 -0.1323
  104OSM   H12T10593   3.609   2.587   9.250  1.0834 -0.8774  1.0315
  104OSM   C13S10594   3.409   2.564   9.189 -0.3784  0.0122  0.6368
  104OSM   H13S10595   3.411   2.670   9.153  1.9166 -0.5436 -1.0981
  104OSM   H13T10596   3.309   2.531   9.225 -0.5599 -1.0329 -0.7518
  104OSM   C14S10597   3.432   2.479   9.059 -0.2877  0.2763  0.1695
  104OSM   H14S10598   3.431   2.375   9.098  3.8422 -1.2238 -2.9958
  104OSM   H14T10599   3.531   2.506   9.016 -0.2011 -0.1463  0.1008
  104OSM   C15S10600   3.320   2.505   8.951 -0.2103 -0.6576 -0.8594
  104OSM   H15S10601   3.314   2.615   8.944 -0.5099 -0.6708 -0.8600
  104OSM   H15T10602   3.222   2.469   8.990  0.6205 -0.9861  1.0512
  104OSM   C16S10603   3.341   2.436   8.828 -0.4221  0.1687  0.0383
  104OSM   H16S10604   3.347   2.325   8.835  3.2057  0.2226 -0.6237
  104OSM   H16T10605   3.440   2.470   8.791  0.0720  1.2546  2.2271
  104OSM   C17S10606   3.245   2.464   8.715 -0.7706 -0.2123  0.0040
  104OSM   H17S10607   3.218   2.572   8.723 -1.9040 -0.0498 -3.9867
  104OSM   H17T10608   3.149   2.412   8.739 -0.3192 -0.7137  0.7500
  104OSM   C18S10609   3.278   2.425   8.569  0.0229  0.1983 -0.5858
  104OSM   H18S10610   3.187   2.462   8.517 -0.8684 -0.2498  0.5904
  104OSM   H18T10611   3.277   2.315   8.554  0.3767  0.4695 -3.0081
  104OSM   H18U10612   3.372   2.471   8.532  0.3792 -1.8901 -2.5316
  104OSM    C1F10613   3.464   3.103  10.226  0.1668 -0.0853 -0.3944
  104OSM     OF10614   3.569   3.161  10.251  0.8660  0.0979 -0.1554
  104OSM    C2F10615   3.350   3.168  10.149 -0.5563 -0.0307  0.3306
  104OSM    H2F10616   3.380   3.274  10.132  1.8393 -0.6698  0.2822
  104OSM    H2G10617   3.256   3.163  10.208 -1.2527  0.9881 -0.6384
  104OSM    C3F10618   3.326   3.095  10.013  0.5341  0.7887  0.3421
  104OSM    H3F10619   3.250   3.147   9.951 -2.4579 -2.7068  0.7351
  104OSM    H3G10620   3.288   2.993  10.035  0.9076 -0.2761 -3.2559
  104OSM    C4F10621   3.442   3.068   9.912 -0.1047  0.4963 -0.5949
  104OSM    H4F10622   3.524   3.022   9.971 -1.0381  2.5435  2.5652
  104OSM    H4G10623   3.467   3.168   9.871 -0.7965  1.0992  0.3908
  104OSM    C5F10624   3.402   2.969   9.806 -0.3862  0.3751  0.4779
  104OSM    H5F10625   3.366   2.879   9.859 -2.0935  1.2873  0.9834
  104OSM    H5G10626   3.492   2.945   9.746 -0.1742 -0.2947  1.0605
  104OSM    C6F10627   3.302   3.022   9.713 -0.0297  0.2693  0.3292
  104OSM    H6F10628   3.315   3.132   9.703 -3.6723  0.8663  0.5102
  104OSM    H6G10629   3.194   3.006   9.736 -0.0914  1.0839  0.6505
  104OSM    C7F10630   3.324   2.975   9.564 -0.5575  0.2659  0.7046
  104OSM    H7F10631   3.285   2.871   9.552 -0.9831  0.5762 -0.8334
  104OSM    H7G10632   3.434   2.972   9.549 -0.4939 -1.0483  1.2802
  104OSM    C8F10633   3.266   3.063   9.444  0.1343  0.0498 -0.4444
  104OSM    H8F10634   3.312   3.164   9.440 -2.9555  1.6524  0.6269
  104OSM    H8G10635   3.157   3.081   9.458  0.0188 -1.4356  0.7894
  104OSM    C9F10636   3.294   2.985   9.318  0.4676  0.8109 -0.5583
  104OSM    H9F10637   3.358   2.896   9.332 -0.0810  0.6528  1.0919
  104OSM   C10F10638   3.219   3.001   9.207 -0.1105 -0.3207  0.3931
  104OSM   H10F10639   3.242   2.934   9.122  3.3189  0.9569  0.1675
  104OSM   C11F10640   3.110   3.097   9.180  0.2131  0.1266 -0.8905
  104OSM   H11F10641   3.090   3.178   9.253 -0.7773 -1.3041  0.4892
  104OSM   H11G10642   3.021   3.030   9.177 -0.4575  1.0094 -1.8484
  104OSM   C12F10643   3.122   3.180   9.050  0.5016 -0.0361  0.4020
  104OSM   H12F10644   3.189   3.264   9.076 -0.5435  1.2415 -0.9275
  104OSM   H12G10645   3.024   3.219   9.016 -0.2020 -0.9898  1.2559
  104OSM   C13F10646   3.185   3.104   8.930  0.5489 -0.8776  0.3197
  104OSM   H13F10647   3.130   3.009   8.914 -0.3780 -0.5458  1.4630
  104OSM   H13G10648   3.288   3.077   8.963  0.7115  0.2517  0.7820
  104OSM   C14F10649   3.191   3.186   8.799 -0.3959  0.1056 -0.2936
  104OSM   H14F10650   3.248   3.280   8.813 -0.3512 -0.0057  0.3113
  104OSM   H14G10651   3.090   3.213   8.765 -0.6103  3.1878  2.3082
  104OSM   C15F10652   3.266   3.111   8.684  0.5557  0.2590  0.1388
  104OSM   H15F10653   3.253   3.002   8.695  2.4895 -0.4302 -3.0738
  104OSM   H15G10654   3.375   3.129   8.694  0.3915  0.2752  2.6484
  104OSM   C16F10655   3.209   3.164   8.550 -0.0539  0.3298  0.5961
  104OSM   H16F10656   3.102   3.142   8.531 -0.0665  0.8368  0.0779
  104OSM   H16G10657   3.270   3.113   8.472 -1.1443  0.0448 -0.0905
  104OSM   C17F10658   3.217   3.312   8.528 -0.7037  0.2192  0.1482
  104OSM   H17F10659   3.321   3.348   8.540 -1.2949  2.9311 -1.7850
  104OSM   H17G10660   3.138   3.358   8.592 -1.9448 -1.0229 -0.4282
  104OSM   C18F10661   3.183   3.352   8.387  0.4490  0.0078 -0.1112
  104OSM   H18F10662   3.196   3.461   8.370 -0.9957  0.2868  0.4188
  104OSM   H18G10663   3.094   3.308   8.337  1.7485 -1.6362 -1.0836
  104OSM   H18H10664   3.264   3.309   8.324 -0.4604  0.6854 -1.8110
  105OSM      N10665   3.905   2.651  10.700 -0.4605  0.0849  0.1500
  105OSM    C1510666   4.010   2.604  10.798  0.0085  0.7074 -0.5263
  105OSM   H15A10667   4.046   2.686  10.858 -0.3598  1.0232 -0.7323
  105OSM   H15B10668   4.102   2.565  10.756  0.2765  0.8654 -0.0879
  105OSM   H15C10669   3.970   2.525  10.860 -1.8686  0.1829 -2.2754
  105OSM    C1410670   3.776   2.671  10.777 -1.0857  0.3464 -0.1789
  105OSM   H14A10671   3.699   2.722  10.721 -1.3258  1.0039  0.7236
  105OSM   H14B10672   3.796   2.724  10.869  0.9742 -0.4781 -0.1126
  105OSM   H14C10673   3.745   2.571  10.804 -0.9527  0.0692 -1.0208
  105OSM    C1310674   3.939   2.791  10.657 -0.1826 -0.4553 -0.1193
  105OSM   H13A10675   3.988   2.843  10.738 -1.4755 -1.7046  1.5379
  105OSM   H13B10676   3.861   2.857  10.624 -0.2290 -1.6667 -2.6519
  105OSM   H13C10677   4.010   2.792  10.576 -1.3912 -1.7526 -1.2417
  105OSM    C1210678   3.876   2.555  10.588 -0.1547 -0.0625  0.0705
  105OSM   H12A10679   3.781   2.585  10.547 -0.7754 -1.3153  0.5458
  105OSM   H12B10680   3.858   2.459  10.634  0.0856 -0.9200 -1.5594
  105OSM    C1110681   3.981   2.533  10.479 -0.0473 -0.5842  0.0917
  105OSM   H11A10682   4.020   2.637  10.468 -3.0336  0.6813  0.4588
  105OSM   H11B10683   3.914   2.515  10.392 -0.4916 -1.4626  0.6113
  105OSM      P10684   4.015   2.284  10.520 -0.1451  0.0812 -0.3064
  105OSM    O1310685   4.127   2.198  10.566 -0.1613 -0.1995  0.2637
  105OSM    O1410686   3.892   2.283  10.600 -0.0189 -0.0396  0.0593
  105OSM    O1110687   3.995   2.259  10.364 -0.1285 -0.4456  0.3416
  105OSM    O1210688   4.072   2.435  10.509  0.4229 -0.2813  0.1945
  105OSM    C1S10689   4.106   2.272  10.278  0.1201 -0.5493  0.2880
  105OSM    H1S10690   4.185   2.193  10.277 -2.0209 -2.9155 -3.1218
  105OSM    H1T10691   4.152   2.373  10.286 -3.8792  1.5143 -0.0886
  105OSM     NF10692   4.178   2.274  10.043  0.0069  0.4431  0.1414
  105OSM    HNF10693   4.190   2.364  10.003 -0.6777  0.7680  0.6385
  105OSM    C2S10694   4.059   2.267  10.130 -0.4588 -0.0149 -0.5422
  105OSM    H2S10695   4.001   2.174  10.114  0.2547 -0.0919 -3.0705
  105OSM    C3S10696   3.958   2.380  10.094  0.2593  0.4324 -0.2204
  105OSM    H3S10697   4.009   2.475  10.116  0.8818 -0.6358  3.6762
  105OSM     O310698   3.834   2.378  10.175  0.2381 -0.1998  0.0318
  105OSM    HO310699   3.859   2.321  10.247  0.1947  0.4834  0.6015
  105OSM    C4S10700   3.929   2.384   9.948 -0.3324 -1.1138  0.3831
  105OSM    H4S10701   3.984   2.457   9.887 -0.0594 -0.4969  1.3407
  105OSM    C5S10702   3.843   2.306   9.883  0.1766  0.1118  0.5659
  105OSM    H5S10703   3.771   2.242   9.935  0.0086 -0.8431 -0.7953
  105OSM    C6S10704   3.820   2.319   9.733 -0.7567 -0.3046 -0.0698
  105OSM    H6S10705   3.815   2.428   9.710 -3.2995 -0.0210  1.3804
  105OSM    H6T10706   3.719   2.281   9.707 -0.5040  0.7787 -3.0521
  105OSM    C7S10707   3.927   2.257   9.639 -0.1437  0.0537 -0.1920
  105OSM    H7S10708   3.954   2.151   9.653  1.0382  0.2585 -0.7788
  105OSM    H7T10709   4.023   2.311   9.655  0.5314 -0.5046 -2.0762
  105OSM    C8S10710   3.892   2.263   9.488 -0.2644 -0.5812  0.2066
  105OSM    H8S10711   3.867   2.362   9.445  1.1297 -0.1715  0.3104
  105OSM    H8T10712   3.805   2.195   9.472 -0.2993 -0.8672  1.5124
  105OSM    C9S10713   3.992   2.209   9.385 -0.6709  0.2936 -0.2706
  105OSM    H9S10714   4.006   2.099   9.393 -1.1173  0.1214 -1.6500
  105OSM    H9T10715   4.091   2.257   9.404 -0.9391  0.5330  0.5734
  105OSM   C10S10716   3.950   2.237   9.238 -0.2990 -0.5524  0.2342
  105OSM   H10S10717   3.892   2.332   9.242 -2.2151 -1.4098 -3.2302
  105OSM   H10T10718   3.888   2.149   9.211 -0.5641 -0.1436 -0.5208
  105OSM   C11S10719   4.071   2.255   9.143  0.2064 -0.3233  0.2991
  105OSM   H11S10720   4.124   2.157   9.153 -2.2182 -1.6911  0.5580
  105OSM   H11T10721   4.136   2.339   9.174  0.9413 -0.1989 -1.4773
  105OSM   C12S10722   4.030   2.275   8.998 -0.3277  0.2788 -0.4289
  105OSM   H12S10723   3.986   2.183   8.956  0.9125 -1.2010  1.3642
  105OSM   H12T10724   4.117   2.304   8.934  0.2367 -0.1135  0.1428
  105OSM   C13S10725   3.916   2.380   8.978 -0.3489 -0.3564  0.4317
  105OSM   H13S10726   3.940   2.474   9.032  0.7650 -0.9384  0.9855
  105OSM   H13T10727   3.822   2.336   9.017 -1.0727 -0.0934 -0.9293
  105OSM   C14S10728   3.882   2.408   8.831  0.8448 -0.2969 -0.1308
  105OSM   H14S10729   3.881   2.316   8.768 -2.7656 -1.2229  1.0311
  105OSM   H14T10730   3.954   2.484   8.794  0.7534  0.3471  0.9527
  105OSM   C15S10731   3.752   2.473   8.809  0.4530 -0.6581 -0.2253
  105OSM   H15S10732   3.740   2.558   8.879 -0.3447 -0.5570 -0.4678
  105OSM   H15T10733   3.679   2.393   8.834 -2.8042  2.8113  2.5577
  105OSM   C16S10734   3.715   2.504   8.662  0.3158 -0.1861  0.8438
  105OSM   H16S10735   3.606   2.521   8.650  0.3985 -0.3492 -0.2522
  105OSM   H16T10736   3.752   2.420   8.599  0.0800 -0.2440  0.7803
  105OSM   C17S10737   3.776   2.630   8.597  0.2959  0.5011 -0.3728
  105OSM   H17S10738   3.886   2.625   8.611  0.0509 -2.5084  1.3474
  105OSM   H17T10739   3.740   2.719   8.653  1.5247 -0.0258  1.3373
  105OSM   C18S10740   3.743   2.653   8.446  0.8637  0.2978  0.1068
  105OSM   H18S10741   3.812   2.733   8.410  1.3416 -0.1531 -0.0084
  105OSM   H18T10742   3.639   2.679   8.416  0.7050 -0.6253 -0.1758
  105OSM   H18U10743   3.762   2.559   8.389  1.0408  1.3137 -1.5847
  105OSM    C1F10744   4.283   2.184  10.030 -0.3174  0.4014  0.3733
  105OSM     OF10745   4.289   2.091  10.108  0.2736  1.1217  0.4288
  105OSM    C2F10746   4.381   2.218   9.928 -0.4418  0.1400 -0.0422
  105OSM    H2F10747   4.483   2.184   9.953 -1.1441 -1.0528  1.3781
  105OSM    H2G10748   4.374   2.325   9.898 -1.3428 -0.1465 -0.9197
  105OSM    C3F10749   4.344   2.154   9.794  0.1061  0.5033  0.0905
  105OSM    H3F10750   4.246   2.189   9.754  0.0224  0.3882  0.1930
  105OSM    H3G10751   4.334   2.045   9.814 -0.7802  0.6102  0.2843
  105OSM    C4F10752   4.448   2.163   9.680  0.1048  0.4243 -0.1606
  105OSM    H4F10753   4.545   2.120   9.712  0.2876 -1.1480 -2.5466
  105OSM    H4G10754   4.452   2.273   9.667  0.8788  0.6380  1.5907
  105OSM    C5F10755   4.395   2.088   9.559 -0.4270  0.4029 -0.1316
  105OSM    H5F10756   4.286   2.097   9.541 -1.0376 -2.5642  1.4078
  105OSM    H5G10757   4.396   1.985   9.602 -3.0543 -0.9256 -2.8642
  105OSM    C6F10758   4.485   2.095   9.434  0.2569  0.3941 -0.2467
  105OSM    H6F10759   4.590   2.071   9.461  0.0409  0.1488  0.4010
  105OSM    H6G10760   4.476   2.203   9.408 -1.3235  0.2180 -0.5496
  105OSM    C7F10761   4.441   2.006   9.318  0.7185 -0.2446 -0.5556
  105OSM    H7F10762   4.331   2.007   9.300  0.3579 -1.3867  1.3199
  105OSM    H7G10763   4.468   1.899   9.333 -0.9477 -0.5062  0.9321
  105OSM    C8F10764   4.520   2.025   9.188  0.2216 -0.6996 -0.0559
  105OSM    H8F10765   4.491   1.947   9.114 -2.4253  0.2791 -0.1872
  105OSM    H8G10766   4.627   2.010   9.214  1.2808  1.6304 -2.5436
  105OSM    C9F10767   4.479   2.162   9.129 -0.9609 -0.3549  0.3124
  105OSM    H9F10768   4.414   2.221   9.195 -0.2079 -1.5074  2.1564
  105OSM   C10F10769   4.521   2.208   9.012  0.5118 -1.1059  0.4092
  105OSM   H10F10770   4.479   2.295   8.959  0.4924 -0.7925  0.9398
  105OSM   C11F10771   4.611   2.130   8.920  0.4425 -0.5344 -0.0384
  105OSM   H11F10772   4.632   2.025   8.948 -1.9691 -1.1394 -0.3010
  105OSM   H11G10773   4.710   2.179   8.908  0.7558 -1.3579 -0.9501
  105OSM   C12F10774   4.554   2.122   8.779  0.5648 -0.2925  0.2363
  105OSM   H12F10775   4.631   2.072   8.717  3.6514  2.1899  1.7841
  105OSM   H12G10776   4.534   2.219   8.729  3.5534  0.4916  0.3476
  105OSM   C13F10777   4.419   2.050   8.777 -0.3026 -0.1712 -0.0025
  105OSM   H13F10778   4.358   2.113   8.844  0.8845 -0.0043  0.9446
  105OSM   H13G10779   4.427   1.952   8.829  0.3387  0.2349  0.6904
  105OSM   C14F10780   4.354   2.037   8.640 -0.3608 -0.3299 -0.0924
  105OSM   H14F10781   4.331   2.134   8.592  1.8071  1.1096  1.5724
  105OSM   H14G10782   4.256   1.985   8.649 -0.9544  0.8488  0.3951
  105OSM   C15F10783   4.428   1.951   8.540  0.0555 -0.0730 -0.2338
  105OSM   H15F10784   4.449   1.856   8.594 -1.9608  1.0042  2.6946
  105OSM   H15G10785   4.515   2.010   8.504  0.2960  0.3520  0.9844
  105OSM   C16F10786   4.347   1.904   8.414 -0.1151  0.6757  0.0616
  105OSM   H16F10787   4.346   1.998   8.355 -0.6864  1.4442  1.2477
  105OSM   H16G10788   4.243   1.888   8.449  0.4518 -1.7327  0.8050
  105OSM   C17F10789   4.416   1.800   8.326 -0.2520 -0.1830 -0.2439
  105OSM   H17F10790   4.524   1.793   8.349 -0.4847  0.9121  1.3821
  105OSM   H17G10791   4.400   1.834   8.222  2.8576 -0.5832 -0.9259
  105OSM   C18F10792   4.366   1.658   8.336  0.0427  0.4818  0.0464
  105OSM   H18F10793   4.264   1.628   8.302 -0.7857  1.7444  1.2967
  105OSM   H18G10794   4.371   1.618   8.439  0.3343  0.5244  0.0504
  105OSM   H18H10795   4.439   1.593   8.283 -0.5642  0.4264 -0.7437
  106OSM      N10796   4.156   1.153  10.668 -0.3688 -0.5722 -0.8361
  106OSM    C1510797   4.245   1.179  10.793  0.1633  0.7655  0.2173
  106OSM   H15A10798   4.350   1.194  10.772  1.0363 -2.6290  1.4397
  106OSM   H15B10799   4.228   1.097  10.861 -1.4102  0.9222  0.0325
  106OSM   H15C10800   4.209   1.258  10.856  1.4120 -0.0638  2.0495
  106OSM    C1410801   4.017   1.112  10.711  0.6918 -0.7628  0.0027
  106OSM   H14A10802   4.007   1.020  10.766 -2.8019  0.1607  1.1503
  106OSM   H14B10803   3.946   1.114  10.630  1.6882 -0.2539 -0.8793
  106OSM   H14C10804   3.983   1.188  10.780 -0.6135 -1.6949  0.4337
  106OSM    C1310805   4.166   1.277  10.592  0.4828  0.6209 -0.1816
  106OSM   H13A10806   4.147   1.363  10.654  0.6574  0.9287 -0.5520
  106OSM   H13B10807   4.080   1.289  10.528  0.6671  2.1373 -0.1828
  106OSM   H13C10808   4.244   1.288  10.519  2.4137 -2.3424  1.2564
  106OSM    C1210809   4.217   1.037  10.594 -0.3594  0.6114 -0.4778
  106OSM   H12A10810   4.184   0.953  10.654 -2.0922  0.9545 -0.9065
  106OSM   H12B10811   4.325   1.043  10.595 -0.4063  1.6244 -0.0031
  106OSM    C1110812   4.174   1.008  10.453  0.3230  0.7729 -0.2678
  106OSM   H11A10813   4.064   1.015  10.440  0.3415 -1.1190 -1.7984
  106OSM   H11B10814   4.201   0.903  10.430  1.2017  0.3009  2.5366
  106OSM      P10815   4.390   1.086  10.344  0.1687  0.5480  0.1405
  106OSM    O1310816   4.421   1.226  10.353 -0.0617 -0.0080 -0.5000
  106OSM    O1410817   4.461   0.999  10.437  0.1084  0.3302  0.3839
  106OSM    O1110818   4.413   1.034  10.198 -0.0796 -0.3215 -0.2122
  106OSM    O1210819   4.236   1.089  10.362 -0.6470  0.6179 -0.1258
  106OSM    C1S10820   4.310   1.042  10.105  0.3390  0.6526 -0.2612
  106OSM    H1S10821   4.252   1.136  10.115  1.2966  1.7120 -3.3815
  106OSM    H1T10822   4.241   0.955  10.119  0.0147  0.9856  0.2152
  106OSM     NF10823   4.252   1.079   9.870 -0.3511 -0.0313 -0.0551
  106OSM    HNF10824   4.185   1.022   9.823  0.0826  0.4385 -1.2699
  106OSM    C2S10825   4.353   1.023   9.953 -0.0166 -0.2663 -0.6417
  106OSM    H2S10826   4.449   1.077   9.943 -0.7028  0.9864 -0.7029
  106OSM    C3S10827   4.391   0.870   9.929  0.3008  0.4043  0.1154
  106OSM    H3S10828   4.308   0.803   9.959 -0.7129  1.6490  0.1665
  106OSM     O310829   4.507   0.825  10.008  0.0217  1.0757 -0.1317
  106OSM    HO310830   4.501   0.882  10.085 -1.2170  0.9202 -0.0951
  106OSM    C4S10831   4.416   0.856   9.787 -0.5905  0.9360 -0.2094
  106OSM    H4S10832   4.475   0.936   9.739 -1.5854  0.1184 -2.9327
  106OSM    C5S10833   4.367   0.761   9.708  0.2947 -0.1315 -0.3662
  106OSM    H5S10834   4.298   0.691   9.757  0.4026  0.9338  1.3647
  106OSM    C6S10835   4.388   0.753   9.557  0.6261  0.0697  0.5294
  106OSM    H6S10836   4.441   0.657   9.544  0.4155  0.0147  0.0817
  106OSM    H6T10837   4.453   0.834   9.517  0.3589  0.1804  0.3140
  106OSM    C7S10838   4.263   0.744   9.467 -0.3391 -0.1562  0.5508
  106OSM    H7S10839   4.217   0.845   9.470  1.5223  0.7485  0.2444
  106OSM    H7T10840   4.195   0.665   9.505 -0.8637  0.0471  0.0511
  106OSM    C8S10841   4.294   0.697   9.329  0.2991 -0.9104  0.1027
  106OSM    H8S10842   4.305   0.587   9.337 -1.6340 -1.1113  0.6548
  106OSM    H8T10843   4.392   0.737   9.295 -0.8247  0.9324 -1.1328
  106OSM    C9S10844   4.180   0.730   9.238 -0.2479  0.1955 -0.2384
  106OSM    H9S10845   4.174   0.841   9.230 -0.4999  0.3172  1.3574
  106OSM    H9T10846   4.084   0.698   9.283 -0.1513 -0.2892 -0.3684
  106OSM   C10S10847   4.195   0.668   9.099  0.1768 -0.0507 -0.3651
  106OSM   H10S10848   4.192   0.558   9.089  1.3684 -0.1353  0.1271
  106OSM   H10T10849   4.291   0.707   9.059 -0.7556  0.0488 -2.6837
  106OSM   C11S10850   4.079   0.727   9.014 -0.5306  0.0307 -0.2626
  106OSM   H11S10851   4.105   0.830   8.982 -0.8078 -0.0006 -0.5947
  106OSM   H11T10852   3.986   0.735   9.075 -0.1389 -0.2656  0.3790
  106OSM   C12S10853   4.047   0.663   8.879 -0.1081 -0.6357 -0.4321
  106OSM   H12S10854   3.953   0.706   8.838  1.9270  3.9235 -1.0076
  106OSM   H12T10855   4.020   0.557   8.895 -1.4823 -0.0718  1.3625
  106OSM   C13S10856   4.168   0.677   8.778 -0.1767  0.7711 -0.4861
  106OSM   H13S10857   4.256   0.619   8.813  0.0620  1.5618  0.2447
  106OSM   H13T10858   4.196   0.782   8.754  1.3845  0.2429 -1.1500
  106OSM   C14S10859   4.129   0.619   8.637  0.0353  0.1706 -0.3320
  106OSM   H14S10860   4.068   0.531   8.665  0.5710  0.0521  0.5113
  106OSM   H14T10861   4.221   0.583   8.585  0.5177  0.3758  0.3630
  106OSM   C15S10862   4.054   0.714   8.540 -0.5583 -0.6279 -0.2762
  106OSM   H15S10863   4.117   0.805   8.527 -1.7336  0.1571 -0.5863
  106OSM   H15T10864   3.957   0.742   8.586 -0.5471  2.3348 -1.7640
  106OSM   C16S10865   4.027   0.653   8.402 -0.6579  0.3816 -0.4592
  106OSM   H16S10866   3.962   0.564   8.414  2.5559 -1.9340  1.2602
  106OSM   H16T10867   4.113   0.601   8.353  0.8572  2.1807  0.1376
  106OSM   C17S10868   3.991   0.754   8.295  0.4829  0.0002  0.9132
  106OSM   H17S10869   4.032   0.851   8.330  0.1927  1.4056 -2.2872
  106OSM   H17T10870   3.881   0.774   8.292  0.3643 -0.6070  1.0566
  106OSM   C18S10871   4.043   0.716   8.153 -0.5508  0.1279 -0.1017
  106OSM   H18S10872   4.011   0.614   8.120 -2.2812  0.9906 -1.2304
  106OSM   H18T10873   4.153   0.730   8.140 -0.7647  2.3431  0.1287
  106OSM   H18U10874   4.003   0.788   8.079  0.3632 -0.4808 -1.2222
  106OSM    C1F10875   4.236   1.209   9.867  0.8528  0.3060  0.3897
  106OSM     OF10876   4.297   1.286   9.940  0.4980  0.0219 -0.1150
  106OSM    C2F10877   4.139   1.258   9.767 -0.0387  0.2060 -0.6191
  106OSM    H2F10878   4.186   1.334   9.701  0.1000  1.7585  1.1771
  106OSM    H2G10879   4.048   1.300   9.815 -0.8612 -0.8081 -1.2604
  106OSM    C3F10880   4.075   1.148   9.675  0.3579 -0.1078  0.3817
  106OSM    H3F10881   3.990   1.101   9.728  0.3977 -1.1161 -0.4116
  106OSM    H3G10882   4.145   1.068   9.640  0.5304  1.1079 -2.2895
  106OSM    C4F10883   4.018   1.206   9.547 -0.9103  0.0398  0.4046
  106OSM    H4F10884   3.989   1.309   9.579 -1.9752  0.1809 -0.9154
  106OSM    H4G10885   3.931   1.141   9.520 -0.4924  0.0220 -0.9429
  106OSM    C5F10886   4.109   1.202   9.416  0.2449  0.3855  0.3718
  106OSM    H5F10887   4.139   1.095   9.409  2.4133  1.0318 -1.0810
  106OSM    H5G10888   4.202   1.263   9.419  1.0394 -0.8166  0.7617
  106OSM    C6F10889   4.025   1.235   9.294  0.5713  0.2698 -0.0467
  106OSM    H6F10890   3.972   1.327   9.326 -0.3104 -0.9606  2.3129
  106OSM    H6G10891   3.941   1.162   9.294 -0.8858  1.8835 -1.4106
  106OSM    C7F10892   4.104   1.229   9.157  0.4870  0.2834  0.7186
  106OSM    H7F10893   4.191   1.299   9.161  0.8204  0.4429 -4.1686
  106OSM    H7G10894   4.037   1.257   9.074 -1.0969 -2.8530  0.8054
  106OSM    C8F10895   4.157   1.089   9.113  0.3247 -0.7195 -0.2132
  106OSM    H8F10896   4.071   1.018   9.110  0.9078 -1.6027  2.3104
  106OSM    H8G10897   4.217   1.052   9.198 -1.4390 -1.9615  0.5616
  106OSM    C9F10898   4.221   1.091   8.976 -0.1856  0.1234  0.5757
  106OSM    H9F10899   4.150   1.111   8.894  2.1378  2.2699 -1.0363
  106OSM   C10F10900   4.344   1.066   8.954 -0.5184 -0.0694 -0.3258
  106OSM   H10F10901   4.368   1.080   8.848 -0.6251 -1.2373 -0.5263
  106OSM   C11F10902   4.447   1.053   9.059 -0.5564  0.2448  0.1992
  106OSM   H11F10903   4.538   1.011   9.012 -0.3700  0.1938  0.5967
  106OSM   H11G10904   4.414   0.973   9.128 -1.0733  0.9730  0.8303
  106OSM   C12F10905   4.484   1.183   9.133 -0.1238 -0.1931 -0.2206
  106OSM   H12F10906   4.402   1.234   9.189  1.8906  2.1240  0.8108
  106OSM   H12G10907   4.522   1.255   9.057  0.0532 -1.0167 -0.9285
  106OSM   C13F10908   4.596   1.158   9.233 -0.0678 -0.4829  0.0088
  106OSM   H13F10909   4.645   1.250   9.273 -0.1811  0.0200 -0.9697
  106OSM   H13G10910   4.678   1.127   9.165 -0.5984 -0.4793 -0.6438
  106OSM   C14F10911   4.581   1.051   9.338 -1.3070 -0.5273  0.3578
  106OSM   H14F10912   4.687   1.045   9.372 -0.4285 -0.1924 -2.1034
  106OSM   H14G10913   4.556   0.947   9.305 -0.3483 -0.2653 -1.3227
  106OSM   C15F10914   4.492   1.103   9.453  0.4283  0.0648 -0.1516
  106OSM   H15F10915   4.468   1.023   9.525 -0.2226  0.7605  0.4218
  106OSM   H15G10916   4.385   1.112   9.426  0.5856  1.0891 -0.4893
  106OSM   C16F10917   4.546   1.222   9.522 -0.6475  0.2751 -0.4298
  106OSM   H16F10918   4.450   1.258   9.567 -0.8674  0.2374 -0.8685
  106OSM   H16G10919   4.569   1.308   9.456  0.0635  0.0724 -0.4516
  106OSM   C17F10920   4.645   1.195   9.635 -0.3534  0.1245  0.0748
  106OSM   H17F10921   4.743   1.185   9.583 -0.6360  1.4237 -0.7424
  106OSM   H17G10922   4.623   1.099   9.686  0.0222 -0.2017 -0.3703
  106OSM   C18F10923   4.656   1.304   9.740  0.7061  0.0056  0.2306
  106OSM   H18F10924   4.756   1.289   9.786  1.3033 -2.1788 -1.5775
  106OSM   H18G10925   4.568   1.311   9.806  1.2119  1.6800  0.7826
  106OSM   H18H10926   4.647   1.400   9.685 -4.1529  0.6915  1.7791
  107OSM      N10927   0.953   4.982  11.040  0.0760  0.2594 -0.0144
  107OSM    C1510928   1.100   4.994  10.993  0.1614 -0.3450  0.4177
  107OSM   H15A10929   1.137   5.092  11.019  1.5953 -1.0867  1.2916
  107OSM   H15B10930   1.110   4.970  10.888 -3.4328  0.6823 -0.2991
  107OSM   H15C10931   1.157   4.923  11.051 -1.4568 -2.9786 -1.0139
  107OSM    C1410932   0.920   4.834  11.032 -0.5809 -0.0530 -0.4409
  107OSM   H14A10933   0.993   4.775  11.086 -0.2574 -0.1298 -0.9604
  107OSM   H14B10934   0.912   4.792  10.933 -0.2376 -1.3059  0.0374
  107OSM   H14C10935   0.830   4.813  11.088  0.8058 -0.4298  1.7877
  107OSM    C1310936   0.942   5.027  11.180  0.5306  1.0765 -0.4441
  107OSM   H13A10937   1.004   4.959  11.236 -0.6129 -0.2969 -0.7872
  107OSM   H13B10938   0.839   5.020  11.213  0.5164 -1.2161 -0.8112
  107OSM   H13C10939   0.970   5.131  11.186 -0.6522  1.4895 -1.4563
  107OSM    C1210940   0.863   5.078  10.956  0.2125 -0.6027 -0.3229
  107OSM   H12A10941   0.761   5.074  10.992 -0.4659  1.9668 -1.7104
  107OSM   H12B10942   0.855   5.046  10.853 -1.7368 -2.9491  0.4496
  107OSM    C1110943   0.903   5.228  10.955 -0.3809  0.1212  0.2580
  107OSM   H11A10944   0.845   5.293  10.886  0.1489  1.1788  0.7738
  107OSM   H11B10945   1.005   5.225  10.911  0.6807 -2.0874  2.6021
  107OSM      P10946   1.028   5.396  11.128 -0.1527 -0.1849  0.0012
  107OSM    O1310947   0.964   5.498  11.218  0.4456  0.3151 -0.5381
  107OSM    O1410948   1.146   5.322  11.182 -0.0957 -0.1963 -0.0490
  107OSM    O1110949   1.063   5.467  11.001 -0.4587  0.2713 -0.1051
  107OSM    O1210950   0.922   5.291  11.085 -0.1540  0.3070  0.5842
  107OSM    C1S10951   0.978   5.542  10.910 -0.2000  0.5555 -0.2894
  107OSM    H1S10952   0.945   5.635  10.961 -0.2467  0.8083 -0.7734
  107OSM    H1T10953   0.881   5.491  10.891  0.9191 -1.7372 -0.0830
  107OSM     NF10954   0.947   5.675  10.709 -0.7308 -0.0617 -0.3711
  107OSM    HNF10955   0.878   5.629  10.654  0.8569 -0.7813 -1.8839
  107OSM    C2S10956   1.038   5.586  10.775 -0.3503  0.3407  0.9405
  107OSM    H2S10957   1.139   5.627  10.800  0.4005 -0.5660 -0.4469
  107OSM    C3S10958   1.092   5.464  10.681  0.1076  0.7103 -0.5525
  107OSM    H3S10959   1.009   5.411  10.630 -0.4793 -0.5837  1.6094
  107OSM     O310960   1.156   5.347  10.747 -0.2390 -0.3739 -0.0065
  107OSM    HO310961   1.147   5.374  10.839 -0.5978  4.4456 -1.1879
  107OSM    C4S10962   1.188   5.523  10.580 -0.1751  0.5748 -0.3748
  107OSM    H4S10963   1.240   5.616  10.604  0.8818  0.5431 -2.3853
  107OSM    C5S10964   1.219   5.468  10.462  0.0452 -0.4686 -0.7969
  107OSM    H5S10965   1.168   5.376  10.430 -0.8303 -0.4978  0.5811
  107OSM    C6S10966   1.315   5.526  10.368  0.6299  0.2119  0.4871
  107OSM    H6S10967   1.391   5.462  10.317  1.1311  2.2679 -1.5546
  107OSM    H6T10968   1.368   5.615  10.409 -1.1074  1.7586 -0.4552
  107OSM    C7S10969   1.242   5.570  10.236 -1.5016 -0.3405 -0.1168
  107OSM    H7S10970   1.168   5.645  10.268 -1.0992  0.2338 -0.5109
  107OSM    H7T10971   1.183   5.492  10.184 -1.8596  0.9603 -1.7269
  107OSM    C8S10972   1.331   5.626  10.122  0.8619  0.2010 -0.3149
  107OSM    H8S10973   1.412   5.553  10.103 -1.8338 -3.0866 -0.1516
  107OSM    H8T10974   1.357   5.725  10.164  1.7631 -0.4530  0.7118
  107OSM    C9S10975   1.254   5.636   9.987  0.6007 -0.0072 -0.1101
  107OSM    H9S10976   1.166   5.702  10.005  1.2026  0.7224  0.2468
  107OSM    H9T10977   1.214   5.537   9.957  0.8917 -0.1329 -0.0844
  107OSM   C10S10978   1.324   5.698   9.865  0.0915  0.1108 -0.4184
  107OSM   H10S10979   1.242   5.723   9.795  0.2360  0.3324 -0.5087
  107OSM   H10T10980   1.391   5.621   9.821  0.0647 -0.9225  1.2428
  107OSM   C11S10981   1.396   5.832   9.898 -0.1757 -0.4900 -0.4289
  107OSM   H11S10982   1.449   5.826   9.995 -1.9836 -1.1122  0.5788
  107OSM   H11T10983   1.323   5.916   9.900  0.6128  0.2292 -1.0304
  107OSM   C12S10984   1.511   5.868   9.800 -0.0436  0.6064  0.3254
  107OSM   H12S10985   1.593   5.799   9.826  1.7131  1.7398 -1.8615
  107OSM   H12T10986   1.559   5.965   9.823 -0.4554  0.8510  0.1776
  107OSM   C13S10987   1.469   5.858   9.649 -0.2408  0.5926 -0.6128
  107OSM   H13S10988   1.401   5.776   9.616  0.1372  1.4983 -4.0492
  107OSM   H13T10989   1.563   5.860   9.590  0.8010 -0.5939  0.9372
  107OSM   C14S10990   1.373   5.973   9.616 -0.2669 -0.5352  0.3577
  107OSM   H14S10991   1.412   6.068   9.660 -5.1535  2.3845 -0.7409
  107OSM   H14T10992   1.276   5.950   9.666 -0.1510  0.4704  1.0824
  107OSM   C15S10993   1.352   5.984   9.462  0.2656  0.3703  0.2675
  107OSM   H15S10994   1.306   5.892   9.420 -0.2593 -0.2549  2.1483
  107OSM   H15T10995   1.454   5.996   9.419 -0.7500  0.2447 -2.4239
  107OSM   C16S10996   1.258   6.101   9.425 -0.2295 -0.1424 -0.0231
  107OSM   H16S10997   1.309   6.191   9.466 -0.3079 -0.7227  1.4016
  107OSM   H16T10998   1.158   6.083   9.470  0.6313  0.5107  2.2968
  107OSM   C17S10999   1.254   6.099   9.274  0.5818 -0.7629  0.3399
  107OSM   H17S11000   1.206   6.003   9.242  1.1512 -1.0794  0.4262
  107OSM   H17T11001   1.353   6.109   9.225  0.3833 -0.4358  0.0079
  107OSM   C18S11002   1.165   6.205   9.206 -0.2762  0.9225  0.2145
  107OSM   H18S11003   1.167   6.293   9.274 -0.6157  1.3079 -0.2599
  107OSM   H18T11004   1.063   6.167   9.186  1.0088 -1.4643 -2.4476
  107OSM   H18U11005   1.215   6.247   9.116 -0.3420  0.4086 -0.0615
  107OSM    C1F11006   0.931   5.800  10.743 -0.5669  0.0132 -0.2886
  107OSM     OF11007   0.993   5.844  10.838  0.1703  0.3395 -0.1402
  107OSM    C2F11008   0.824   5.881  10.681 -0.4806 -0.0965 -0.1804
  107OSM    H2F11009   0.791   5.950  10.761  1.9876 -0.3717  1.1527
  107OSM    H2G11010   0.734   5.817  10.664 -1.4742  1.6650 -1.9610
  107OSM    C3F11011   0.856   5.941  10.544 -0.3539  0.1656  0.5856
  107OSM    H3F11012   0.947   6.006  10.548  0.9617 -1.4599 -0.9488
  107OSM    H3G11013   0.766   6.000  10.517 -1.3356 -1.5054  0.1010
  107OSM    C4F11014   0.891   5.837  10.443 -0.1386  0.2703  0.4719
  107OSM    H4F11015   0.838   5.741  10.461  0.7043 -0.9452 -2.7371
  107OSM    H4G11016   1.001   5.824  10.442 -0.2588 -1.5545  2.9451
  107OSM    C5F11017   0.841   5.860  10.300  0.2185 -0.0797 -0.5540
  107OSM    H5F11018   0.903   5.939  10.251  0.7136 -0.5150 -0.6319
  107OSM    H5G11019   0.735   5.890  10.289  0.2217 -0.1918 -0.8845
  107OSM    C6F11020   0.880   5.732  10.227  0.6878 -0.6725  0.1818
  107OSM    H6F11021   0.846   5.644  10.286 -0.3408  0.4839  1.3786
  107OSM    H6G11022   0.990   5.729  10.210  0.9998  0.5255  1.7489
  107OSM    C7F11023   0.819   5.731  10.086 -0.5284  0.3634 -0.2228
  107OSM    H7F11024   0.863   5.817  10.030 -0.1870 -0.6590 -1.6024
  107OSM    H7G11025   0.710   5.751  10.098 -1.0381 -0.7816 -2.4158
  107OSM    C8F11026   0.835   5.599  10.012 -0.5603 -0.5500  0.0839
  107OSM    H8F11027   0.778   5.525  10.072 -0.4956 -1.2908 -0.7491
  107OSM    H8G11028   0.943   5.574  10.013 -0.1974  0.9343  1.6211
  107OSM    C9F11029   0.764   5.609   9.876  0.2373 -0.0890  0.2171
  107OSM    H9F11030   0.654   5.608   9.862  0.2885 -0.1743 -0.2014
  107OSM   C10F11031   0.831   5.629   9.765  0.0439 -0.4627  0.4488
  107OSM   H10F11032   0.778   5.628   9.668  0.7554 -0.2326  0.0521
  107OSM   C11F11033   0.982   5.652   9.753  0.5032 -0.3822 -0.5032
  107OSM   H11F11034   1.036   5.573   9.810 -0.1198 -0.8403 -0.5426
  107OSM   H11G11035   1.002   5.749   9.804  1.3306 -0.2027 -1.1464
  107OSM   C12F11036   1.023   5.668   9.609  0.1150 -0.4286 -0.1284
  107OSM   H12F11037   0.983   5.587   9.545 -2.0099  0.6282 -0.2168
  107OSM   H12G11038   1.134   5.670   9.607  0.2188 -1.1823  2.1617
  107OSM   C13F11039   0.969   5.796   9.542  0.1913 -0.0104 -0.7059
  107OSM   H13F11040   1.030   5.887   9.559 -1.1446  0.7687  0.0158
  107OSM   H13G11041   0.870   5.820   9.585  0.0855  0.1270 -1.0206
  107OSM   C14F11042   0.941   5.776   9.397  0.7439 -0.1145  0.2190
  107OSM   H14F11043   1.023   5.730   9.339  0.8318  1.2950 -0.8222
  107OSM   H14G11044   0.932   5.876   9.351  2.3884 -0.0674 -0.0666
  107OSM   C15F11045   0.806   5.701   9.363  0.0403 -0.4616  0.3264
  107OSM   H15F11046   0.717   5.752   9.405  1.3770  1.7883  0.5923
  107OSM   H15G11047   0.806   5.597   9.401 -1.0230 -0.7078 -0.3179
  107OSM   C16F11048   0.775   5.704   9.214 -0.1891  0.3625  0.3591
  107OSM   H16F11049   0.805   5.803   9.172 -2.3501  1.3321  0.9468
  107OSM   H16G11050   0.666   5.695   9.195  0.5479 -2.6398 -3.9535
  107OSM   C17F11051   0.838   5.591   9.141  0.3029  0.4757 -0.3442
  107OSM   H17F11052   0.820   5.496   9.196  1.2796  1.1525  1.2092
  107OSM   H17G11053   0.948   5.596   9.160  0.1780  2.2278  0.0252
  107OSM   C18F11054   0.792   5.565   8.995 -0.2713 -0.4116  0.2459
  107OSM   H18F11055   0.682   5.551   8.991 -0.3733  0.5723 -1.6200
  107OSM   H18G11056   0.842   5.473   8.957  1.4627  1.1472 -1.4490
  107OSM   H18H11057   0.818   5.658   8.940 -0.1089 -1.0663 -0.8245
  108OSM      N11058   6.445   3.197  10.837 -0.2269 -0.3101 -0.7931
  108OSM    C1511059   6.364   3.284  10.933 -0.1645  0.7822  0.3893
  108OSM   H15A11060   6.435   3.324  11.004  1.7079 -1.0393 -0.3296
  108OSM   H15B11061   6.297   3.218  10.985 -0.5517 -1.6265 -2.8651
  108OSM   H15C11062   6.306   3.357  10.878  1.2779  2.4230  0.9363
  108OSM    C1411063   6.557   3.271  10.762  0.1021  0.5274 -0.0262
  108OSM   H14A11064   6.624   3.199  10.719  0.0194  0.8087 -0.6439
  108OSM   H14B11065   6.623   3.318  10.833  0.5923 -2.0387  1.2991
  108OSM   H14C11066   6.529   3.329  10.675  0.5009 -0.2703 -0.6941
  108OSM    C1311067   6.497   3.076  10.904  0.1686  0.1929  0.0029
  108OSM   H13A11068   6.430   3.028  10.973  1.3286 -4.1265 -1.5461
  108OSM   H13B11069   6.594   3.075  10.951 -0.3348  0.3068  1.0786
  108OSM   H13C11070   6.517   2.999  10.831  0.2072 -0.5239  0.7692
  108OSM    C1211071   6.343   3.150  10.731 -0.2618  0.5023 -0.6170
  108OSM   H12A11072   6.302   3.237  10.683 -0.1977 -0.4884 -2.5351
  108OSM   H12B11073   6.257   3.110  10.782 -0.1330  1.4936  0.4287
  108OSM    C1111074   6.387   3.037  10.640  0.0060 -0.5412 -0.5893
  108OSM   H11A11075   6.496   3.031  10.619 -0.2735 -3.1041 -1.5453
  108OSM   H11B11076   6.332   3.060  10.546 -0.9158  0.9114  0.2579
  108OSM      P11077   6.200   2.857  10.698  0.4442  0.1380  0.1777
  108OSM    O1311078   6.176   2.736  10.778  0.2196  0.8540 -0.1674
  108OSM    O1411079   6.102   2.964  10.726 -0.2462  0.2756  0.0504
  108OSM    O1111080   6.184   2.811  10.543 -0.0382 -0.7471 -0.1487
  108OSM    O1211081   6.345   2.917  10.697 -0.0327  0.7309  0.2420
  108OSM    C1S11082   6.289   2.731  10.485 -0.1627 -0.0423 -0.8445
  108OSM    H1S11083   6.276   2.626  10.518  0.9378  0.0289 -0.1462
  108OSM    H1T11084   6.387   2.767  10.522 -0.5293 -1.9763  2.4325
  108OSM     NF11085   6.413   2.651  10.294  0.2741 -0.0356 -0.2173
  108OSM    HNF11086   6.494   2.697  10.258  1.1876 -2.2041 -1.1234
  108OSM    C2S11087   6.307   2.742  10.332  0.2380  0.3280  0.6037
  108OSM    H2S11088   6.214   2.708  10.280  0.9674  2.5513 -2.4591
  108OSM    C3S11089   6.341   2.888  10.290  0.0566 -0.2744 -0.2186
  108OSM    H3S11090   6.427   2.917  10.354 -0.0495  1.0769 -0.6623
  108OSM     O311091   6.249   2.988  10.330  0.2208 -0.0470 -0.1165
  108OSM    HO311092   6.197   2.936  10.392 -1.0699  0.7943 -0.4416
  108OSM    C4S11093   6.385   2.901  10.148 -0.0626 -0.6353  0.0033
  108OSM    H4S11094   6.494   2.887  10.146  0.1050  0.3809  0.8377
  108OSM    C5S11095   6.308   2.927  10.039  0.0256  0.6153 -0.4890
  108OSM    H5S11096   6.201   2.946  10.056  0.0617 -0.3599  1.0701
  108OSM    C6S11097   6.350   2.925   9.889  0.4286  0.5697 -0.0569
  108OSM    H6S11098   6.267   2.872   9.837 -0.5480  1.4105  0.5793
  108OSM    H6T11099   6.437   2.862   9.860  0.2083  1.0735 -1.9327
  108OSM    C7S11100   6.373   3.062   9.838 -0.2138 -0.6708  0.0600
  108OSM    H7S11101   6.457   3.114   9.889  0.0232 -0.2876 -0.7055
  108OSM    H7T11102   6.281   3.119   9.860 -1.3726 -1.7703 -1.6675
  108OSM    C8S11103   6.396   3.073   9.688 -0.0780 -0.8673  0.3975
  108OSM    H8S11104   6.297   3.065   9.637 -0.9859  1.3623  1.6762
  108OSM    H8T11105   6.466   2.990   9.663  0.1749 -0.5416  0.0053
  108OSM    C9S11106   6.446   3.203   9.631 -0.9625 -0.3490  0.1235
  108OSM    H9S11107   6.550   3.213   9.667 -1.6035  1.4600  1.6204
  108OSM    H9T11108   6.376   3.286   9.656 -0.9250 -0.3118  0.1060
  108OSM   C10S11109   6.457   3.198   9.473  0.0899 -0.0905 -0.2905
  108OSM   H10S11110   6.355   3.180   9.432 -0.5928 -0.9314  1.6128
  108OSM   H10T11111   6.536   3.122   9.455  2.1739  2.2096 -1.3381
  108OSM   C11S11112   6.523   3.325   9.418  0.1351  0.3279  0.1209
  108OSM   H11S11113   6.607   3.355   9.484  1.5944  0.5767 -1.7304
  108OSM   H11T11114   6.448   3.405   9.437 -0.6595 -0.1911 -0.7167
  108OSM   C12S11115   6.582   3.300   9.272  0.0345  0.8802  0.0815
  108OSM   H12S11116   6.666   3.230   9.289 -0.6065 -0.0925 -0.5950
  108OSM   H12T11117   6.627   3.398   9.246 -0.8340  1.6814  1.4496
  108OSM   C13S11118   6.477   3.266   9.162 -0.1697  0.6321 -0.3345
  108OSM   H13S11119   6.417   3.352   9.125  0.1588  0.4604 -1.3228
  108OSM   H13T11120   6.404   3.197   9.209 -1.4275  0.3992 -2.4946
  108OSM   C14S11121   6.528   3.184   9.039  0.2172  0.6546  0.2832
  108OSM   H14S11122   6.583   3.098   9.083 -1.7760 -1.5960 -1.3252
  108OSM   H14T11123   6.583   3.238   8.958 -0.9350  2.4358  0.6508
  108OSM   C15S11124   6.414   3.111   8.969 -0.5726  0.0076  0.4891
  108OSM   H15S11125   6.326   3.176   8.952 -1.8969 -1.8905 -0.2319
  108OSM   H15T11126   6.365   3.030   9.027  0.3682 -0.1470  1.0995
  108OSM   C16S11127   6.455   3.060   8.823  0.2900  0.9650  1.1019
  108OSM   H16S11128   6.492   3.140   8.756  0.5885 -1.5774 -2.0615
  108OSM   H16T11129   6.371   2.999   8.784  0.0221  0.5615  2.2721
  108OSM   C17S11130   6.580   2.965   8.816 -0.7567 -0.0616 -0.2157
  108OSM   H17S11131   6.569   2.875   8.881  0.4926  0.2467  0.4372
  108OSM   H17T11132   6.668   3.015   8.861 -2.5807  1.6724  1.7048
  108OSM   C18S11133   6.621   2.934   8.671  0.2392  0.4311  0.1491
  108OSM   H18S11134   6.541   2.870   8.629 -1.3604  2.1020  0.4957
  108OSM   H18T11135   6.710   2.868   8.670  0.2997  0.5127 -0.3791
  108OSM   H18U11136   6.632   3.030   8.616 -0.6781  0.4335 -0.0356
  108OSM    C1F11137   6.412   2.514  10.308  0.5718  1.0996 -0.1300
  108OSM     OF11138   6.313   2.456  10.352  0.3928  0.0284 -0.4046
  108OSM    C2F11139   6.545   2.446  10.269  0.0195  0.0569  0.4177
  108OSM    H2F11140   6.563   2.383  10.359 -0.9843  1.1094  1.3860
  108OSM    H2G11141   6.620   2.527  10.259 -1.4042  1.2542 -0.9770
  108OSM    C3F11142   6.537   2.356  10.141 -0.8015  0.2418  0.2425
  108OSM    H3F11143   6.457   2.279  10.149 -1.3695  0.4837 -2.3285
  108OSM    H3G11144   6.632   2.299  10.133 -1.5001 -0.8146 -0.8499
  108OSM    C4F11145   6.510   2.440  10.020 -0.4387  0.3541 -0.1613
  108OSM    H4F11146   6.586   2.521  10.015 -0.0070 -0.0392 -4.5160
  108OSM    H4G11147   6.422   2.507  10.017  0.7983  2.0288 -0.1836
  108OSM    C5F11148   6.533   2.356   9.890  0.2985  0.3903  0.0627
  108OSM    H5F11149   6.463   2.270   9.896 -0.1062  0.6646 -0.6586
  108OSM    H5G11150   6.639   2.323   9.892  0.0215 -0.5363  1.2175
  108OSM    C6F11151   6.494   2.449   9.772  0.4002 -0.4149 -0.1520
  108OSM    H6F11152   6.577   2.523   9.765 -0.9568  1.3545  1.3071
  108OSM    H6G11153   6.402   2.506   9.800  0.9254 -0.0410  0.8631
  108OSM    C7F11154   6.462   2.379   9.641  0.0261 -0.8449  0.8214
  108OSM    H7F11155   6.385   2.301   9.654 -0.0551 -1.2848 -1.7769
  108OSM    H7G11156   6.551   2.316   9.620  0.4891 -0.5957  1.9173
  108OSM    C8F11157   6.423   2.467   9.516  0.5898  0.8187 -0.0505
  108OSM    H8F11158   6.513   2.515   9.474  0.7900 -0.1025 -0.7194
  108OSM    H8G11159   6.355   2.545   9.556 -1.9685 -0.6812 -1.1822
  108OSM    C9F11160   6.353   2.384   9.411 -0.6105  0.3317 -0.0681
  108OSM    H9F11161   6.244   2.375   9.422 -0.6602  2.0434  1.3561
  108OSM   C10F11162   6.413   2.319   9.310  0.2900 -0.4898  0.3713
  108OSM   H10F11163   6.342   2.270   9.242  0.4693  0.2987 -0.3903
  108OSM   C11F11164   6.555   2.320   9.265  0.0139  0.3622  0.7123
  108OSM   H11F11165   6.579   2.230   9.204 -0.5102  0.4331  0.4039
  108OSM   H11G11166   6.615   2.332   9.357  0.6307 -2.6462  0.8306
  108OSM   C12F11167   6.586   2.430   9.162 -0.2333 -0.2158 -0.1109
  108OSM   H12F11168   6.572   2.529   9.213  0.8522  0.8587 -1.8097
  108OSM   H12G11169   6.505   2.441   9.087 -1.2856  1.7242  1.1947
  108OSM   C13F11170   6.728   2.419   9.111  0.2968 -0.7119  0.2642
  108OSM   H13F11171   6.726   2.325   9.051 -2.5718  0.9572 -2.5757
  108OSM   H13G11172   6.804   2.396   9.189 -0.0353 -0.5360  0.6389
  108OSM   C14F11173   6.767   2.533   9.012  0.0131 -0.0938 -0.8012
  108OSM   H14F11174   6.674   2.564   8.960  0.3157  0.7746 -0.8524
  108OSM   H14G11175   6.837   2.507   8.931 -0.3135 -1.0074 -0.8010
  108OSM   C15F11176   6.835   2.648   9.087  0.4048  0.0994 -0.7978
  108OSM   H15F11177   6.844   2.733   9.016 -0.5246  2.1131  1.3674
  108OSM   H15G11178   6.937   2.609   9.107  0.9286  1.7436 -0.0799
  108OSM   C16F11179   6.766   2.692   9.218  0.1581 -0.2338  0.2596
  108OSM   H16F11180   6.837   2.762   9.267  0.6318 -0.2744 -0.3581
  108OSM   H16G11181   6.731   2.615   9.290 -1.9608  1.9176  1.7128
  108OSM   C17F11182   6.646   2.775   9.187  0.3155 -0.7221  0.2484
  108OSM   H17F11183   6.589   2.739   9.099  1.0454  2.8344 -1.8995
  108OSM   H17G11184   6.682   2.870   9.141  4.2532 -1.5860  1.1850
  108OSM   C18F11185   6.546   2.798   9.295  0.2937 -0.5447 -0.0355
  108OSM   H18F11186   6.547   2.719   9.373  1.3440 -1.7037 -1.1900
  108OSM   H18G11187   6.443   2.798   9.254 -0.0596 -1.2346  0.8206
  108OSM   H18H11188   6.567   2.889   9.356  1.2904 -1.3084  0.8016
  109OSM      N11189   3.174   2.601  10.657 -0.2015  0.2278  0.1124
  109OSM    C1511190   3.150   2.452  10.685 -0.2355 -0.0009 -0.0590
  109OSM   H15A11191   3.046   2.436  10.659  0.1022 -0.6390 -1.0629
  109OSM   H15B11192   3.178   2.444  10.789 -2.6879 -1.1505  0.5945
  109OSM   H15C11193   3.213   2.386  10.628  0.5726 -2.1776  3.0544
  109OSM    C1411194   3.091   2.691  10.747 -0.4609 -0.1449  0.0480
  109OSM   H14A11195   3.089   2.643  10.844 -0.0744 -1.4582 -0.5623
  109OSM   H14B11196   2.991   2.670  10.712 -0.8560 -0.4051  1.2740
  109OSM   H14C11197   3.114   2.796  10.751 -1.4004  0.1038 -0.6865
  109OSM    C1311198   3.315   2.617  10.676 -0.1065 -0.6545 -0.4406
  109OSM   H13A11199   3.351   2.585  10.773  0.4977  1.2101 -0.0126
  109OSM   H13B11200   3.350   2.719  10.675 -1.6151 -0.0937  0.0699
  109OSM   H13C11201   3.365   2.550  10.608 -2.2308 -1.6617 -1.0868
  109OSM    C1211202   3.138   2.629  10.507  0.2732 -0.4042 -0.0627
  109OSM   H12A11203   3.213   2.585  10.443  0.4871 -0.3390  0.1411
  109OSM   H12B11204   3.148   2.736  10.497  0.5613 -0.3151  1.0383
  109OSM    C1111205   2.999   2.590  10.451  0.4105 -0.3427  0.7327
  109OSM   H11A11206   2.991   2.480  10.466  4.2978 -0.7652  0.7002
  109OSM   H11B11207   3.002   2.589  10.340 -3.2981 -0.7462  0.5113
  109OSM      P11208   2.849   2.807  10.456  0.1896  0.1113  0.0409
  109OSM    O1311209   2.730   2.850  10.527  0.7296  0.0865 -0.1462
  109OSM    O1411210   2.970   2.897  10.462  0.4249 -0.0059 -0.2260
  109OSM    O1111211   2.810   2.773  10.306  0.1259 -0.0492 -0.4235
  109OSM    O1211212   2.893   2.667  10.510  0.2205 -0.8336  0.5389
  109OSM    C1S11213   2.783   2.877  10.206 -0.9380  0.4044  0.3216
  109OSM    H1S11214   2.795   2.982  10.240  0.4502  1.8482 -3.9672
  109OSM    H1T11215   2.680   2.857  10.169  0.2308 -3.3716 -1.4111
  109OSM     NF11216   2.858   2.988  10.003  0.2434  0.3410 -0.1989
  109OSM    HNF11217   2.782   2.983   9.938 -0.0175 -2.8357  0.1865
  109OSM    C2S11218   2.878   2.868  10.075 -0.5978 -0.6939 -0.6454
  109OSM    H2S11219   2.982   2.861  10.114 -0.5913  2.9245  0.3703
  109OSM    C3S11220   2.842   2.742   9.996  0.6384 -0.3246 -0.1656
  109OSM    H3S11221   2.732   2.727   9.987  0.6749 -0.5858 -0.1772
  109OSM     O311222   2.870   2.620  10.074  0.2944  0.0091  0.2320
  109OSM    HO311223   2.855   2.634  10.168  0.4299 -2.3534  0.6516
  109OSM    C4S11224   2.897   2.743   9.858  0.7952 -0.0411  0.1643
  109OSM    H4S11225   2.818   2.745   9.782  1.1156 -1.2020 -0.2196
  109OSM    C5S11226   3.024   2.727   9.817  0.5024  0.4241  0.3529
  109OSM    H5S11227   3.104   2.702   9.888  1.6586  3.4248  0.2580
  109OSM    C6S11228   3.067   2.705   9.681 -0.4481 -0.6884  0.7024
  109OSM    H6S11229   3.128   2.612   9.669 -1.4507 -1.2519 -0.1475
  109OSM    H6T11230   3.141   2.785   9.661 -0.3625 -1.3246 -1.9153
  109OSM    C7S11231   2.964   2.724   9.569  0.0632 -1.1013 -0.0501
  109OSM    H7S11232   2.915   2.823   9.579 -1.2810 -1.6118 -1.2993
  109OSM    H7T11233   2.889   2.644   9.585 -0.8464  0.2164  3.1084
  109OSM    C8S11234   3.038   2.720   9.428  0.0756  0.3040 -0.4241
  109OSM    H8S11235   3.088   2.621   9.433 -0.4978  0.0360  0.0695
  109OSM    H8T11236   3.111   2.804   9.422 -0.2456  0.5655 -0.7180
  109OSM    C9S11237   2.939   2.723   9.315  0.1684 -0.0801 -0.4529
  109OSM    H9S11238   2.876   2.814   9.324  1.2646  0.7333 -0.8335
  109OSM    H9T11239   2.869   2.638   9.328 -0.3623 -0.2229 -3.5037
  109OSM   C10S11240   3.000   2.709   9.175 -0.3889 -0.6102  0.5784
  109OSM   H10S11241   3.010   2.599   9.159  2.0112 -0.6026  1.5530
  109OSM   H10T11242   3.104   2.749   9.177 -1.0533  1.2893 -0.6054
  109OSM   C11S11243   2.918   2.778   9.066 -0.5334  0.0725 -0.3111
  109OSM   H11S11244   2.930   2.887   9.053  0.4419 -0.0563 -0.5902
  109OSM   H11T11245   2.810   2.755   9.077 -0.7468  1.9349  2.6121
  109OSM   C12S11246   2.967   2.721   8.928  0.0686 -0.0781 -0.7039
  109OSM   H12S11247   2.941   2.613   8.925  0.1736 -0.1447  0.3873
  109OSM   H12T11248   3.078   2.730   8.934 -0.0130 -0.1240  2.3029
  109OSM   C13S11249   2.904   2.791   8.810 -0.4765 -0.0529  0.2968
  109OSM   H13S11250   2.908   2.901   8.826 -0.3626 -0.1479  0.9514
  109OSM   H13T11251   2.794   2.776   8.801 -0.3937 -0.6935  0.3149
  109OSM   C14S11252   2.971   2.759   8.677  0.2352 -0.0590  0.1165
  109OSM   H14S11253   2.937   2.660   8.639  1.3733 -0.8763  1.1497
  109OSM   H14T11254   3.082   2.763   8.685  0.1301  0.6858  1.4941
  109OSM   C15S11255   2.938   2.868   8.576  0.4391  0.5978  0.7841
  109OSM   H15S11256   2.972   2.971   8.602 -0.8796  1.7183 -1.6262
  109OSM   H15T11257   2.830   2.855   8.559  0.9900 -0.6336 -2.4335
  109OSM   C16S11258   3.009   2.846   8.440  0.1820  0.1205 -0.0300
  109OSM   H16S11259   2.983   2.742   8.409 -0.3442 -0.6476  2.7493
  109OSM   H16T11260   3.120   2.841   8.442  0.1390 -1.5036  1.8561
  109OSM   C17S11261   2.970   2.948   8.335 -0.0569 -0.0865 -0.1785
  109OSM   H17S11262   3.036   3.034   8.360  0.1581  0.6592 -2.9136
  109OSM   H17T11263   2.867   2.985   8.351  0.3612  0.7694  0.6097
  109OSM   C18S11264   2.986   2.891   8.199 -0.3762 -0.4385 -0.7436
  109OSM   H18S11265   2.924   2.803   8.174 -2.4850  0.0898  2.0596
  109OSM   H18T11266   3.088   2.852   8.180 -0.5434 -0.8627 -0.7621
  109OSM   H18U11267   2.958   2.975   8.132 -0.6134  0.7264  0.7582
  109OSM    C1F11268   2.919   3.101  10.036  0.4015 -0.0965  0.1854
  109OSM     OF11269   3.000   3.105  10.131 -0.0066  0.0853  0.2617
  109OSM    C2F11270   2.900   3.220   9.950 -0.3426  0.0931 -0.3756
  109OSM    H2F11271   2.941   3.307  10.006 -0.4055 -0.3525  0.3701
  109OSM    H2G11272   2.792   3.247   9.939 -0.7635  1.0008  4.1884
  109OSM    C3F11273   2.964   3.208   9.803  0.4432 -0.0023  0.4447
  109OSM    H3F11274   2.911   3.132   9.743  0.5924 -1.6573  2.3177
  109OSM    H3G11275   3.066   3.171   9.828  2.2093  2.7987 -1.9495
  109OSM    C4F11276   2.981   3.333   9.723 -0.0289  0.2037 -0.2548
  109OSM    H4F11277   3.028   3.408   9.790  1.9394  0.0618 -1.4090
  109OSM    H4G11278   2.877   3.362   9.695 -0.5510 -0.5704  0.8132
  109OSM    C5F11279   3.065   3.322   9.592 -0.2403 -0.0830 -0.7412
  109OSM    H5F11280   3.028   3.234   9.535  0.2119 -0.3651 -0.5987
  109OSM    H5G11281   3.172   3.309   9.617  0.8437  1.6064 -3.8864
  109OSM    C6F11282   3.057   3.441   9.495 -0.6184  0.5517 -0.3369
  109OSM    H6F11283   3.088   3.529   9.555  2.2655  1.3333 -2.6884
  109OSM    H6G11284   2.952   3.458   9.462 -0.4660 -0.0973 -1.1938
  109OSM    C7F11285   3.154   3.430   9.379  0.3259  0.5729  0.1505
  109OSM    H7F11286   3.108   3.361   9.305  1.5167  0.0791 -0.1675
  109OSM    H7G11287   3.253   3.388   9.410  0.8487  0.5443 -1.4546
  109OSM    C8F11288   3.171   3.566   9.315 -0.3676 -0.5696  0.4523
  109OSM    H8F11289   3.223   3.642   9.377  0.7134 -1.8172  1.1301
  109OSM    H8G11290   3.067   3.604   9.306 -0.9138 -1.6462  1.8663
  109OSM    C9F11291   3.252   3.563   9.182 -0.6571  1.1217 -0.3573
  109OSM    H9F11292   3.361   3.560   9.197 -0.7814 -0.7756  0.4607
  109OSM   C10F11293   3.195   3.568   9.062  0.3764  0.2091 -0.2087
  109OSM   H10F11294   3.255   3.562   8.971 -0.4503  0.8236 -0.8121
  109OSM   C11F11295   3.051   3.560   9.027 -0.4372 -0.0027 -0.1182
  109OSM   H11F11296   2.994   3.645   9.069 -1.2675 -0.1751 -0.8602
  109OSM   H11G11297   3.005   3.464   9.062 -0.2069 -0.1982 -0.3452
  109OSM   C12F11298   3.023   3.563   8.872 -0.2564 -0.2304 -0.4501
  109OSM   H12F11299   3.046   3.460   8.840 -0.1966 -1.3636  2.8283
  109OSM   H12G11300   3.092   3.637   8.826  3.8753 -3.1261  0.4625
  109OSM   C13F11301   2.883   3.600   8.820  0.8378  0.2896  0.6004
  109OSM   H13F11302   2.863   3.710   8.824 -1.6357 -0.0404 -0.4154
  109OSM   H13G11303   2.807   3.561   8.891  1.1471  0.0429  0.7917
  109OSM   C14F11304   2.849   3.555   8.675 -0.4868 -0.5596 -0.4278
  109OSM   H14F11305   2.744   3.583   8.650  0.3222  1.4771 -1.7810
  109OSM   H14G11306   2.859   3.444   8.672  1.9662 -0.4286  0.8928
  109OSM   C15F11307   2.929   3.626   8.569  0.1558 -0.0830 -0.2968
  109OSM   H15F11308   2.909   3.601   8.463 -1.4297  0.0361 -0.0511
  109OSM   H15G11309   3.036   3.597   8.582 -0.2977 -1.0271  1.7414
  109OSM   C16F11310   2.922   3.777   8.583 -0.2413  0.0744  0.2467
  109OSM   H16F11311   2.970   3.818   8.674  1.2792  1.2424 -1.0470
  109OSM   H16G11312   2.818   3.816   8.578  0.1859  1.2032 -0.0596
  109OSM   C17F11313   3.017   3.829   8.472 -0.2678 -0.1006 -0.0217
  109OSM   H17F11314   2.987   3.794   8.371 -0.2853  0.9829 -0.4062
  109OSM   H17G11315   3.119   3.786   8.481 -0.3395 -0.0333  1.3201
  109OSM   C18F11316   3.047   3.982   8.473  0.2066 -0.7732  0.0364
  109OSM   H18F11317   2.967   4.055   8.450  0.7868 -0.3197 -0.5597
  109OSM   H18G11318   3.133   4.003   8.407  1.8233 -1.7705  1.7289
  109OSM   H18H11319   3.069   4.019   8.576  1.1936 -0.7804 -0.1606
  110OSM      N11320   4.597   2.247  10.549 -0.3518 -0.0373 -0.0556
  110OSM    C1511321   4.601   2.141  10.649 -1.3981 -0.1881 -0.3524
  110OSM   H15A11322   4.551   2.172  10.740  2.6973  3.1712  1.0452
  110OSM   H15B11323   4.703   2.120  10.676 -0.9939  1.0673 -0.8162
  110OSM   H15C11324   4.549   2.054  10.611 -1.1786 -0.2627 -0.4825
  110OSM    C1411325   4.684   2.357  10.604  0.0065  0.0860 -0.0230
  110OSM   H14A11326   4.783   2.315  10.615  0.5522  1.0925 -0.8488
  110OSM   H14B11327   4.651   2.413  10.690  1.2362  1.2990 -0.2989
  110OSM   H14C11328   4.696   2.434  10.529  0.0596  1.4846  1.3622
  110OSM    C1311329   4.675   2.202  10.421  0.0055  0.6981  0.1534
  110OSM   H13A11330   4.771   2.176  10.464 -1.2302  0.1110  2.7464
  110OSM   H13B11331   4.676   2.282  10.349 -1.0568  0.1849 -0.4520
  110OSM   H13C11332   4.632   2.112  10.380 -1.6368  1.5428 -0.0399
  110OSM    C1211333   4.459   2.303  10.512  0.1423  0.2923 -0.3161
  110OSM   H12A11334   4.418   2.341  10.605 -0.4943  0.8006 -0.7902
  110OSM   H12B11335   4.390   2.225  10.482 -0.7810  1.3832 -1.1497
  110OSM    C1111336   4.456   2.405  10.394  0.4198 -0.4868  0.3010
  110OSM   H11A11337   4.351   2.439  10.380  0.7746 -0.1022 -1.8094
  110OSM   H11B11338   4.475   2.357  10.296  0.6902  1.4144 -0.6286
  110OSM      P11339   4.486   2.661  10.445 -0.1346 -0.3450  0.0787
  110OSM    O1311340   4.441   2.654  10.587 -0.7453  0.1885  0.8872
  110OSM    O1411341   4.575   2.774  10.411  0.3274  0.4280  0.6635
  110OSM    O1111342   4.360   2.671  10.346 -0.0944 -0.2037 -0.3579
  110OSM    O1211343   4.546   2.520  10.405  0.2647 -0.1786 -0.6163
  110OSM    C1S11344   4.358   2.665  10.199 -0.2867  0.7888  0.3807
  110OSM    H1S11345   4.366   2.558  10.168 -1.6235  0.3064  1.5746
  110OSM    H1T11346   4.437   2.723  10.148  0.7699 -0.3283  0.6869
  110OSM     NF11347   4.248   2.740   9.995 -0.9457 -0.6013 -0.8127
  110OSM    HNF11348   4.271   2.834   9.971  0.3070 -0.3609  1.1586
  110OSM    C2S11349   4.222   2.721  10.135 -0.2043 -0.7912 -0.0610
  110OSM    H2S11350   4.151   2.636  10.143 -0.3766 -0.5397  1.3544
  110OSM    C3S11351   4.165   2.841  10.211  0.1750  0.4030 -0.0263
  110OSM    H3S11352   4.235   2.928  10.206 -0.1551  0.7276  0.6936
  110OSM     O311353   4.144   2.815  10.349 -0.7987 -1.1384  0.2861
  110OSM    HO311354   4.207   2.744  10.359 -0.1392 -0.4957  0.7309
  110OSM    C4S11355   4.031   2.877  10.150  0.1620  0.3703  0.4405
  110OSM    H4S11356   3.969   2.796  10.111  0.7103  0.5453 -0.8608
  110OSM    C5S11357   3.994   3.001  10.106 -0.4922 -0.5032 -1.0135
  110OSM    H5S11358   4.063   3.085  10.093  1.2304 -2.1233 -3.2546
  110OSM    C6S11359   3.860   3.022  10.041 -1.1574  0.2727 -0.0749
  110OSM    H6S11360   3.868   3.109   9.973  0.8531 -1.4256 -2.1973
  110OSM    H6T11361   3.783   3.051  10.116 -2.6379  0.4962 -1.6112
  110OSM    C7S11362   3.811   2.904   9.950 -0.3477  0.1121  0.0580
  110OSM    H7S11363   3.720   2.946   9.903  0.0285 -0.4381 -1.2158
  110OSM    H7T11364   3.787   2.810  10.003 -0.2299 -1.1697 -2.0417
  110OSM    C8S11365   3.901   2.872   9.830 -0.5866 -0.1840 -0.5284
  110OSM    H8S11366   3.994   2.818   9.858  0.2403  1.0554 -0.7911
  110OSM    H8T11367   3.927   2.971   9.787  2.7461 -1.2173 -1.1535
  110OSM    C9S11368   3.837   2.800   9.710 -0.7206  0.6204  0.2530
  110OSM    H9S11369   3.738   2.836   9.676 -0.3413  1.0833 -0.3871
  110OSM    H9T11370   3.815   2.695   9.740  2.7819 -0.0039  1.1143
  110OSM   C10S11371   3.920   2.799   9.579  0.2779 -0.0961  0.3754
  110OSM   H10S11372   4.007   2.732   9.591 -0.9874 -1.8479  0.1340
  110OSM   H10T11373   3.952   2.903   9.557 -0.6939  0.1023 -0.1967
  110OSM   C11S11374   3.850   2.737   9.458  0.0756 -0.2252  0.6042
  110OSM   H11S11375   3.760   2.789   9.419  2.0533  0.7661 -3.0768
  110OSM   H11T11376   3.814   2.634   9.481  2.1006 -1.1249 -0.0061
  110OSM   C12S11377   3.948   2.729   9.336 -0.1733  0.1654  0.0943
  110OSM   H12S11378   3.912   2.659   9.258  2.1268  1.3732 -2.2215
  110OSM   H12T11379   4.043   2.682   9.372  0.2665  0.2065 -0.9888
  110OSM   C13S11380   4.000   2.856   9.264 -0.1700 -0.5064  0.5513
  110OSM   H13S11381   4.103   2.844   9.224 -0.1032  0.1175  0.5182
  110OSM   H13T11382   4.005   2.933   9.345  1.3238  0.3327 -0.2996
  110OSM   C14S11383   3.920   2.912   9.145 -0.3026  0.1544  0.4854
  110OSM   H14S11384   3.960   3.006   9.100  1.0458 -0.6372 -0.0274
  110OSM   H14T11385   3.823   2.944   9.187  0.2365  2.0262  0.4321
  110OSM   C15S11386   3.908   2.821   9.028 -0.0614  0.4808 -0.9568
  110OSM   H15S11387   3.874   2.720   9.057  0.6822  0.2199 -0.9752
  110OSM   H15T11388   4.009   2.807   8.983  0.5757 -0.0882  0.5916
  110OSM   C16S11389   3.829   2.870   8.907 -0.6312 -0.5824  0.2254
  110OSM   H16S11390   3.843   2.791   8.829 -0.6173  0.8945 -1.3126
  110OSM   H16T11391   3.871   2.964   8.866  1.0278 -0.9815  0.9008
  110OSM   C17S11392   3.674   2.877   8.922  0.5701  0.2921 -0.1110
  110OSM   H17S11393   3.652   2.882   9.030 -2.0447  1.4899 -0.6284
  110OSM   H17T11394   3.636   2.778   8.888  0.6406 -0.5757  2.1772
  110OSM   C18S11395   3.601   2.990   8.839 -0.9800 -0.0095 -0.4390
  110OSM   H18S11396   3.655   3.085   8.861  0.4351 -0.8603 -0.0995
  110OSM   H18T11397   3.492   2.995   8.858 -0.6988 -0.3073  1.4272
  110OSM   H18U11398   3.606   2.962   8.731 -0.9445  0.3271 -0.5273
  110OSM    C1F11399   4.260   2.644   9.909  0.0641  0.3498 -0.1673
  110OSM     OF11400   4.245   2.531   9.949 -0.0443 -0.1154  0.0428
  110OSM    C2F11401   4.294   2.680   9.769 -0.4296 -0.6356 -0.5203
  110OSM    H2F11402   4.397   2.720   9.767 -0.1778 -1.2683 -0.4043
  110OSM    H2G11403   4.229   2.764   9.736  2.3399  2.0199  0.2694
  110OSM    C3F11404   4.280   2.556   9.681  0.2216  0.1998  0.2026
  110OSM    H3F11405   4.172   2.530   9.677 -0.1485  1.7605 -2.9088
  110OSM    H3G11406   4.338   2.467   9.715 -1.3841 -1.7272 -1.8250
  110OSM    C4F11407   4.319   2.590   9.535  0.4261 -0.3083 -0.2184
  110OSM    H4F11408   4.428   2.602   9.520  0.5082 -2.9361 -2.5142
  110OSM    H4G11409   4.264   2.682   9.506  2.8464  1.2099 -0.2024
  110OSM    C5F11410   4.291   2.472   9.451  1.2158 -0.1166  0.1685
  110OSM    H5F11411   4.180   2.472   9.444  1.2411 -1.7551 -0.8563
  110OSM    H5G11412   4.315   2.379   9.508 -0.8863 -1.5913 -1.1896
  110OSM    C6F11413   4.344   2.455   9.303  0.0099  0.0342 -0.3376
  110OSM    H6F11414   4.307   2.357   9.265  1.1432 -0.2958 -0.6482
  110OSM    H6G11415   4.455   2.453   9.310  0.0009 -0.8617 -0.2787
  110OSM    C7F11416   4.313   2.566   9.198  0.0519  0.4519  0.1246
  110OSM    H7F11417   4.355   2.664   9.229 -0.9960  0.4961  1.5383
  110OSM    H7G11418   4.203   2.580   9.196  0.0288  0.4500  0.8282
  110OSM    C8F11419   4.360   2.534   9.053  0.5862 -0.3153  0.0086
  110OSM    H8F11420   4.293   2.452   9.019 -0.3285  0.3690  0.1307
  110OSM    H8G11421   4.468   2.507   9.042  1.2107  2.2257 -0.7904
  110OSM    C9F11422   4.334   2.655   8.966  1.0871 -0.5688  0.0280
  110OSM    H9F11423   4.296   2.745   9.016  0.9700 -0.4893 -0.2003
  110OSM   C10F11424   4.345   2.652   8.832 -0.1358 -0.1070  0.1035
  110OSM   H10F11425   4.321   2.743   8.775 -1.9501 -0.2569  0.5600
  110OSM   C11F11426   4.399   2.533   8.749  0.4888 -0.0542 -0.0727
  110OSM   H11F11427   4.484   2.491   8.807  1.2136  1.7982  0.2672
  110OSM   H11G11428   4.443   2.563   8.652  0.7737  0.9569  0.3571
  110OSM   C12F11429   4.294   2.429   8.708  0.0471 -0.3070  0.0937
  110OSM   H12F11430   4.232   2.415   8.799  3.0405 -0.5314  2.2558
  110OSM   H12G11431   4.340   2.330   8.685  1.5246  0.4231 -0.2082
  110OSM   C13F11432   4.205   2.466   8.583 -0.3849 -0.0575  0.0476
  110OSM   H13F11433   4.276   2.489   8.501 -0.6271 -2.8146 -1.0374
  110OSM   H13G11434   4.142   2.557   8.590  1.2418  1.1024  0.2751
  110OSM   C14F11435   4.124   2.342   8.543  0.1993 -0.5764  0.4085
  110OSM   H14F11436   4.066   2.305   8.631  0.7216  1.7384  1.7878
  110OSM   H14G11437   4.202   2.271   8.508  0.7724 -0.2980  1.0952
  110OSM   C15F11438   4.029   2.351   8.421  0.0226  0.1131 -0.2592
  110OSM   H15F11439   4.090   2.384   8.334  0.6501  0.6141  0.3684
  110OSM   H15G11440   3.948   2.422   8.446 -1.0280 -0.7637 -1.0470
  110OSM   C16F11441   3.963   2.215   8.379  0.2833 -0.3321 -0.5553
  110OSM   H16F11442   3.902   2.185   8.467  0.3129 -0.7869 -0.6859
  110OSM   H16G11443   4.044   2.140   8.367  1.7351  0.9156  0.9697
  110OSM   C17F11444   3.870   2.235   8.257  0.0350 -0.1682 -0.4015
  110OSM   H17F11445   3.945   2.265   8.181  0.2166 -0.5701 -0.3837
  110OSM   H17G11446   3.791   2.310   8.277  0.2436 -0.6237  2.6530
  110OSM   C18F11447   3.814   2.102   8.201 -0.1743 -0.0214  0.7270
  110OSM   H18F11448   3.889   2.022   8.221  0.4977  0.6079  0.7889
  110OSM   H18G11449   3.803   2.104   8.090  0.7481 -0.4513  0.6168
  110OSM   H18H11450   3.722   2.084   8.260 -0.1941  2.1572  1.4481
  111OSM      N11451   5.256   0.749  10.626  0.2525  0.0750 -0.0927
  111OSM    C1511452   5.302   0.600  10.622 -0.1585 -0.6255  0.0522
  111OSM   H15A11453   5.250   0.541  10.696 -0.0471  0.5389  1.0903
  111OSM   H15B11454   5.408   0.602  10.642 -0.0938  3.4902  0.0878
  111OSM   H15C11455   5.290   0.556  10.524  0.3724 -1.3251  0.2875
  111OSM    C1411456   5.303   0.823  10.746  0.0378 -0.1384  0.9714
  111OSM   H14A11457   5.410   0.825  10.751  0.4072 -1.3697 -3.1021
  111OSM   H14B11458   5.270   0.775  10.837 -1.0032 -1.3935 -0.0305
  111OSM   H14C11459   5.258   0.921  10.750  1.7200  0.6259  1.9741
  111OSM    C1311460   5.322   0.828  10.512 -0.0647 -0.3873  0.5204
  111OSM   H13A11461   5.429   0.835  10.528  0.0429  0.7230 -0.5248
  111OSM   H13B11462   5.289   0.930  10.493  0.2415 -0.5483 -1.0582
  111OSM   H13C11463   5.301   0.773  10.422  0.5157 -0.1690  0.2415
  111OSM    C1211464   5.103   0.774  10.619 -0.5770  0.3259  0.6308
  111OSM   H12A11465   5.096   0.876  10.655  1.4901  1.2205 -1.2502
  111OSM   H12B11466   5.071   0.704  10.695 -0.7035 -0.1415  0.1535
  111OSM    C1111467   5.044   0.746  10.480 -0.7048  0.1691 -0.0153
  111OSM   H11A11468   5.083   0.817  10.405  1.0484  0.6019  1.2242
  111OSM   H11B11469   4.938   0.778  10.477  0.1187  3.1456 -2.8382
  111OSM      P11470   4.988   0.481  10.494 -0.4244  0.3775  0.0884
  111OSM    O1311471   5.053   0.359  10.437 -0.4876 -0.2485 -0.0684
  111OSM    O1411472   4.978   0.489  10.638  1.0258 -0.0713 -0.2399
  111OSM    O1111473   4.851   0.492  10.428 -0.5549 -0.3061 -0.0180
  111OSM    O1211474   5.064   0.610  10.442  0.2435 -0.3115 -0.0723
  111OSM    C1S11475   4.829   0.523  10.287 -0.6880 -0.1197 -0.2904
  111OSM    H1S11476   4.879   0.444  10.227  0.6070  0.4229  0.0443
  111OSM    H1T11477   4.867   0.624  10.262 -0.5949  0.3023  1.4239
  111OSM     NF11478   4.645   0.519  10.109  0.0367  0.0027  0.1242
  111OSM    HNF11479   4.592   0.593  10.067 -3.3521 -3.0601 -1.4978
  111OSM    C2S11480   4.677   0.518  10.256 -0.8425  0.3615  0.0379
  111OSM    H2S11481   4.651   0.423  10.307  1.8027  0.1976  1.1937
  111OSM    C3S11482   4.610   0.624  10.349 -0.0517  0.1951 -0.7040
  111OSM    H3S11483   4.671   0.715  10.360  0.1250  0.0278 -0.2589
  111OSM     O311484   4.597   0.586  10.490 -0.5747  0.0476  0.2044
  111OSM    HO311485   4.683   0.543  10.496 -0.8276 -0.8458 -1.7956
  111OSM    C4S11486   4.473   0.657  10.298 -0.4430 -0.8773 -0.4934
  111OSM    H4S11487   4.479   0.757  10.251 -1.3564  0.5195  2.1596
  111OSM    C5S11488   4.360   0.593  10.323  0.0311  0.4391  0.1228
  111OSM    H5S11489   4.361   0.503  10.387  0.9643 -1.9339 -2.9878
  111OSM    C6S11490   4.221   0.622  10.272 -0.0951 -0.0121  0.0575
  111OSM    H6S11491   4.215   0.715  10.211  0.4178  0.2598  0.4155
  111OSM    H6T11492   4.160   0.642  10.363 -1.1156 -0.2996 -0.5545
  111OSM    C7S11493   4.155   0.505  10.197 -0.2623 -0.2761  0.1899
  111OSM    H7S11494   4.044   0.517  10.206 -0.4094 -1.1527 -0.3204
  111OSM    H7T11495   4.182   0.415  10.255 -0.4398 -1.2497 -1.1828
  111OSM    C8S11496   4.197   0.497  10.050 -0.0061 -0.1696  0.1100
  111OSM    H8S11497   4.305   0.476  10.039  0.5167  2.7367 -1.4039
  111OSM    H8T11498   4.178   0.595  10.001 -0.1975  0.3092  1.1295
  111OSM    C9S11499   4.106   0.402   9.981 -0.0880  0.6610  0.4041
  111OSM    H9S11500   4.003   0.427  10.013  0.4079  1.7991  1.1871
  111OSM    H9T11501   4.127   0.301  10.024  0.7393 -0.1322 -1.7096
  111OSM   C10S11502   4.130   0.409   9.831 -0.0089 -0.3277  0.0528
  111OSM   H10S11503   4.240   0.420   9.822 -0.0175  1.2573  1.3212
  111OSM   H10T11504   4.076   0.488   9.774 -0.3210 -1.2858 -1.0188
  111OSM   C11S11505   4.101   0.264   9.773  0.0149 -0.5438  0.6688
  111OSM   H11S11506   3.992   0.240   9.773  0.0169 -0.8204 -1.5822
  111OSM   H11T11507   4.155   0.200   9.845  0.4153 -2.0900 -0.9197
  111OSM   C12S11508   4.163   0.235   9.639 -0.1655  0.0548  0.2076
  111OSM   H12S11509   4.193   0.128   9.628 -2.3827 -0.5733 -0.1451
  111OSM   H12T11510   4.255   0.294   9.619 -0.0636 -0.6342 -1.5207
  111OSM   C13S11511   4.062   0.262   9.527  0.2663 -0.0973 -0.1608
  111OSM   H13S11512   4.045   0.372   9.533  2.6857  0.2713  1.8374
  111OSM   H13T11513   3.970   0.211   9.562  0.5515  0.0132  0.7715
  111OSM   C14S11514   4.104   0.216   9.395  0.4523  0.5142 -0.1455
  111OSM   H14S11515   4.082   0.108   9.402 -3.9321  1.2107 -0.2038
  111OSM   H14T11516   4.207   0.247   9.367  0.8220 -1.8074 -1.6456
  111OSM   C15S11517   4.029   0.283   9.283 -0.4943 -0.2453  0.0675
  111OSM   H15S11518   4.046   0.392   9.294  0.3285 -0.5368  2.2172
  111OSM   H15T11519   3.922   0.264   9.308 -0.5441 -0.4179 -0.2744
  111OSM   C16S11520   4.064   0.210   9.152 -0.4828 -0.6299  0.0485
  111OSM   H16S11521   4.066   0.099   9.156  2.9705 -0.6597  1.6948
  111OSM   H16T11522   4.166   0.245   9.124 -1.2523 -0.0886 -2.3068
  111OSM   C17S11523   3.962   0.247   9.045 -0.3152  0.6163 -0.6927
  111OSM   H17S11524   3.943   0.356   9.034 -0.1050  0.8124  0.7965
  111OSM   H17T11525   3.868   0.195   9.074  1.2795 -1.4191  1.1562
  111OSM   C18S11526   4.009   0.203   8.912  0.0053 -0.6181  0.3008
  111OSM   H18S11527   4.105   0.254   8.891  0.0887 -1.9135 -3.1326
  111OSM   H18T11528   3.937   0.242   8.836 -0.8590 -1.7047  0.5349
  111OSM   H18U11529   4.040   0.097   8.902 -0.0631 -0.6921  0.8313
  111OSM    C1F11530   4.675   0.411  10.036  0.6878 -0.3629  0.3841
  111OSM     OF11531   4.700   0.305  10.086  0.1367 -0.3524 -0.0699
  111OSM    C2F11532   4.672   0.415   9.887  0.3855  0.8324 -0.2199
  111OSM    H2F11533   4.713   0.319   9.848 -2.1687 -1.5886  2.5287
  111OSM    H2G11534   4.724   0.499   9.837  0.3144  1.8079  1.2848
  111OSM    C3F11535   4.531   0.416   9.842  0.6487  0.3762  0.4099
  111OSM    H3F11536   4.484   0.509   9.881  2.2008  0.9325  1.0121
  111OSM    H3G11537   4.480   0.324   9.877  1.4434 -0.2471 -0.0319
  111OSM    C4F11538   4.511   0.414   9.686  0.4163  0.5660  0.3133
  111OSM    H4F11539   4.562   0.508   9.655  0.6765  0.9858  1.9385
  111OSM    H4G11540   4.402   0.421   9.667 -0.2327 -3.2050  1.7653
  111OSM    C5F11541   4.560   0.291   9.616 -0.4248 -0.5786  1.3682
  111OSM    H5F11542   4.509   0.205   9.665 -0.7368 -0.0660  1.9687
  111OSM    H5G11543   4.668   0.267   9.626  0.4174  2.1770 -0.2368
  111OSM    C6F11544   4.522   0.295   9.462 -0.3607 -0.4635 -1.3653
  111OSM    H6F11545   4.547   0.397   9.426  0.7054 -1.3651 -3.2969
  111OSM    H6G11546   4.414   0.286   9.435 -0.8438  0.1332  0.2292
  111OSM    C7F11547   4.626   0.210   9.380  0.2266  0.3929  0.2632
  111OSM    H7F11548   4.597   0.104   9.398  1.3199 -0.3806 -2.1040
  111OSM    H7G11549   4.723   0.215   9.434  0.3039  1.8761  0.0195
  111OSM    C8F11550   4.629   0.247   9.226 -0.0430 -0.0960  0.0784
  111OSM    H8F11551   4.688   0.165   9.179  1.3649  0.3844  0.9518
  111OSM    H8G11552   4.680   0.344   9.213  2.3948 -1.1547  1.1799
  111OSM    C9F11553   4.487   0.240   9.178  0.9350  0.6781  0.4523
  111OSM    H9F11554   4.423   0.183   9.247  1.4319  1.3050  1.4576
  111OSM   C10F11555   4.435   0.297   9.063  0.2514 -0.2029  0.6140
  111OSM   H10F11556   4.331   0.272   9.038 -0.1183 -0.8152  2.5437
  111OSM   C11F11557   4.512   0.377   8.958  0.6248  0.3825 -0.4885
  111OSM   H11F11558   4.617   0.343   8.942  0.3362 -0.3173 -0.9840
  111OSM   H11G11559   4.534   0.480   8.992  1.6600 -0.3477  1.1738
  111OSM   C12F11560   4.438   0.382   8.822  0.1169  0.3024  0.0784
  111OSM   H12F11561   4.476   0.469   8.766  0.2564  0.1746 -0.0258
  111OSM   H12G11562   4.328   0.395   8.831 -0.1446 -0.8200 -1.1132
  111OSM   C13F11563   4.454   0.257   8.738  0.3579 -0.2902  0.4209
  111OSM   H13F11564   4.431   0.173   8.806 -1.5764 -1.2990 -1.3598
  111OSM   H13G11565   4.555   0.233   8.699  0.0944 -1.5443  0.4754
  111OSM   C14F11566   4.366   0.241   8.612 -0.0748 -0.0218  0.5290
  111OSM   H14F11567   4.260   0.271   8.630 -0.7575 -0.2363 -2.5868
  111OSM   H14G11568   4.351   0.138   8.572 -1.1925 -0.3820  1.7749
  111OSM   C15F11569   4.407   0.335   8.493 -0.1630 -0.1123  0.1796
  111OSM   H15F11570   4.514   0.324   8.466  0.1129  0.7445  0.8684
  111OSM   H15G11571   4.405   0.438   8.534  0.0898 -0.5609  1.3646
  111OSM   C16F11572   4.314   0.315   8.371  0.3994 -0.1728 -0.4303
  111OSM   H16F11573   4.219   0.349   8.418  1.4333  1.7953  0.3609
  111OSM   H16G11574   4.315   0.212   8.329  0.6227 -0.6876  0.7972
  111OSM   C17F11575   4.326   0.403   8.253 -0.3383 -0.4888 -0.1471
  111OSM   H17F11576   4.417   0.369   8.199 -2.0202 -3.9165 -1.1393
  111OSM   H17G11577   4.328   0.511   8.277  2.1233 -0.2697 -1.0267
  111OSM   C18F11578   4.208   0.377   8.160  0.1609 -0.5618 -0.7935
  111OSM   H18F11579   4.176   0.272   8.148  2.7506 -1.4263 -0.7444
  111OSM   H18G11580   4.224   0.438   8.068  0.7826  0.7814  0.1589
  111OSM   H18H11581   4.120   0.410   8.219 -0.0968 -2.4980 -0.0306
  112OSM      N11582   5.568   4.392  10.728 -0.5612  0.5114 -0.2066
  112OSM    C1511583   5.682   4.330  10.650  0.1732  0.1512 -0.3157
  112OSM   H15A11584   5.704   4.238  10.701 -0.8722  0.1435  0.1467
  112OSM   H15B11585   5.763   4.401  10.659 -0.0302  0.3597 -0.1068
  112OSM   H15C11586   5.673   4.321  10.543  0.3306 -0.9191 -0.2443
  112OSM    C1411587   5.605   4.394  10.871 -0.5272  0.5890 -0.3067
  112OSM   H14A11588   5.621   4.297  10.914 -0.7970  1.3031  1.4984
  112OSM   H14B11589   5.539   4.452  10.934 -0.1847  1.3129 -0.5990
  112OSM   H14C11590   5.701   4.444  10.882 -0.7165  1.5796 -2.5602
  112OSM    C1311591   5.545   4.528  10.684  0.2690  1.6029  0.0494
  112OSM   H13A11592   5.462   4.576  10.734 -1.0636 -0.9237  0.4233
  112OSM   H13B11593   5.505   4.531  10.583 -1.6473 -0.7901  0.6505
  112OSM   H13C11594   5.629   4.595  10.689 -0.1107  1.9800  2.7155
  112OSM    C1211595   5.437   4.317  10.719 -0.3625  0.0132 -0.2444
  112OSM   H12A11596   5.368   4.371  10.783 -0.3921 -1.5291  1.0745
  112OSM   H12B11597   5.443   4.217  10.758 -1.8338  0.5629  1.5615
  112OSM    C1111598   5.375   4.313  10.576  0.1168  0.2817 -0.9009
  112OSM   H11A11599   5.286   4.246  10.578  0.4773 -0.2080  1.3820
  112OSM   H11B11600   5.445   4.263  10.505 -0.4373 -2.6133  0.4550
  112OSM      P11601   5.208   4.512  10.578  0.2250 -0.0191 -0.3033
  112OSM    O1311602   5.168   4.469  10.711  0.4648  0.2703 -0.5425
  112OSM    O1411603   5.218   4.655  10.557 -0.1735  0.2501  0.0276
  112OSM    O1111604   5.096   4.459  10.477 -0.5533  0.0266 -0.1897
  112OSM    O1211605   5.338   4.445  10.528 -0.7227 -0.6385 -0.0040
  112OSM    C1S11606   5.087   4.501  10.342  0.5946 -0.4444 -0.0514
  112OSM    H1S11607   5.148   4.591  10.318 -0.6748  0.5271  0.2574
  112OSM    H1T11608   4.982   4.532  10.323  0.6640  0.1016  0.4317
  112OSM     NF11609   5.127   4.440  10.110 -0.0873 -0.1480 -0.6572
  112OSM    HNF11610   5.054   4.428  10.042 -0.4271 -2.0880 -0.0209
  112OSM    C2S11611   5.107   4.390  10.242 -0.0155 -0.4355  0.5178
  112OSM    H2S11612   5.197   4.336  10.280 -0.6304 -0.6688  1.6624
  112OSM    C3S11613   4.995   4.286  10.260  0.5103 -0.7215 -0.2565
  112OSM    H3S11614   4.895   4.320  10.226  1.1046  0.8544 -0.5365
  112OSM     O311615   4.971   4.236  10.393  0.8626  0.1873  0.0507
  112OSM    HO311616   5.015   4.309  10.439  1.2733  1.0497 -1.6179
  112OSM    C4S11617   5.017   4.171  10.165  0.5361 -0.2187 -0.2238
  112OSM    H4S11618   4.938   4.178  10.088  0.3146 -0.0763  0.0140
  112OSM    C5S11619   5.109   4.071  10.168  0.3883 -0.3042  0.1849
  112OSM    H5S11620   5.191   4.071  10.242  0.2231  0.6026  0.3797
  112OSM    C6S11621   5.119   3.952  10.073 -0.5703 -0.7002  0.6708
  112OSM    H6S11622   5.074   3.865  10.126 -1.6136  0.2492  1.3802
  112OSM    H6T11623   5.224   3.920  10.057 -0.9497 -1.2362 -0.9369
  112OSM    C7S11624   5.040   3.972   9.946  0.0269  0.5294  0.2683
  112OSM    H7S11625   5.062   4.077   9.914 -0.9032  1.1482  1.5681
  112OSM    H7T11626   4.933   3.969   9.975  0.3737 -0.1710  1.5478
  112OSM    C8S11627   5.073   3.866   9.840 -0.8253 -0.1333 -0.1348
  112OSM    H8S11628   5.016   3.776   9.871  0.6726 -0.5254  1.6876
  112OSM    H8T11629   5.182   3.843   9.843 -0.7725  0.2287  1.6126
  112OSM    C9S11630   5.032   3.905   9.692  0.8480  0.9066 -0.2735
  112OSM    H9S11631   5.110   3.972   9.651  1.3965  1.1536  1.1278
  112OSM    H9T11632   4.931   3.950   9.708  0.6240  0.6076 -0.7860
  112OSM   C10S11633   5.011   3.787   9.601 -0.2344  0.2895 -0.0976
  112OSM   H10S11634   4.937   3.717   9.644  0.3632  1.1084  2.4398
  112OSM   H10T11635   5.110   3.737   9.606 -0.6788 -0.4886  1.9659
  112OSM   C11S11636   4.977   3.829   9.466 -0.4679 -0.1188  0.4282
  112OSM   H11S11637   4.895   3.904   9.465 -1.1476 -0.7955 -1.7866
  112OSM   H11T11638   4.945   3.737   9.411 -0.6526 -0.5324  1.2168
  112OSM   C12S11639   5.100   3.886   9.383  0.3686  0.0398 -0.2404
  112OSM   H12S11640   5.174   3.805   9.366 -1.2760 -1.3905 -0.7713
  112OSM   H12T11641   5.144   3.969   9.443  0.1333  0.7762 -1.0499
  112OSM   C13S11642   5.055   3.948   9.246 -0.8750 -0.9591  0.1304
  112OSM   H13S11643   4.998   4.042   9.262  1.6128  0.4806  1.1150
  112OSM   H13T11644   4.990   3.872   9.198 -2.4309 -0.1468  0.8710
  112OSM   C14S11645   5.168   3.977   9.150 -0.4056 -0.1154 -0.0497
  112OSM   H14S11646   5.218   3.892   9.099  0.1437  0.0496  0.1995
  112OSM   H14T11647   5.249   4.019   9.214  1.0813 -0.5825 -1.5661
  112OSM   C15S11648   5.120   4.073   9.041 -0.2302 -0.4023  0.1836
  112OSM   H15S11649   5.199   4.127   8.984  2.0135  0.5975  3.9006
  112OSM   H15T11650   5.074   4.157   9.097 -0.1736  1.1107 -1.9181
  112OSM   C16S11651   5.029   4.014   8.937 -0.0627 -0.3680  0.3380
  112OSM   H16S11652   4.950   3.951   8.981 -1.4443  0.4835 -0.8221
  112OSM   H16T11653   5.088   3.947   8.870  0.1543 -1.0160  1.1686
  112OSM   C17S11654   4.965   4.111   8.842 -0.1599 -0.4051  0.1381
  112OSM   H17S11655   5.040   4.172   8.788  0.1236 -0.5070  0.4185
  112OSM   H17T11656   4.917   4.190   8.904 -0.9179 -1.8063  1.4208
  112OSM   C18S11657   4.860   4.053   8.751  0.8033  0.1779  0.0815
  112OSM   H18S11658   4.817   3.957   8.788  0.4468 -0.6108 -2.1871
  112OSM   H18T11659   4.919   4.023   8.662  2.4978  2.9464  0.1853
  112OSM   H18U11660   4.781   4.125   8.721 -3.0333 -3.2748  0.9098
  112OSM    C1F11661   5.228   4.519  10.074  0.3262  0.7055  0.0439
  112OSM     OF11662   5.329   4.531  10.143 -0.1468 -0.0508  0.0613
  112OSM    C2F11663   5.204   4.590   9.942  0.4438 -0.3830 -0.1087
  112OSM    H2F11664   5.155   4.686   9.970 -0.3296 -1.0297  0.8296
  112OSM    H2G11665   5.136   4.526   9.881 -0.1004 -1.7380  1.8252
  112OSM    C3F11666   5.333   4.627   9.856  1.0164  0.0528 -0.2894
  112OSM    H3F11667   5.400   4.539   9.856  2.1689  0.9017  0.5151
  112OSM    H3G11668   5.400   4.703   9.902  0.1968  0.7126 -0.1476
  112OSM    C4F11669   5.293   4.661   9.712 -1.0984  0.1522  0.4552
  112OSM    H4F11670   5.237   4.757   9.709 -0.2113  0.6895  0.6742
  112OSM    H4G11671   5.223   4.585   9.672 -0.9730  0.3284 -0.1148
  112OSM    C5F11672   5.415   4.682   9.623  0.3407  0.2216  0.4912
  112OSM    H5F11673   5.466   4.584   9.613  0.7554  0.5802 -1.2180
  112OSM    H5G11674   5.481   4.763   9.660 -0.8832  2.1994 -1.3971
  112OSM    C6F11675   5.383   4.721   9.477  0.3785 -0.1171  0.3237
  112OSM    H6F11676   5.468   4.751   9.411 -0.6148  1.2757 -0.3900
  112OSM    H6G11677   5.314   4.808   9.474 -1.0710 -1.2090 -2.7839
  112OSM    C7F11678   5.306   4.611   9.407 -0.1314  0.2715  0.0169
  112OSM    H7F11679   5.216   4.584   9.465  2.2392 -4.3351  2.0652
  112OSM    H7G11680   5.362   4.515   9.410  0.5535  0.6937  1.1602
  112OSM    C8F11681   5.278   4.647   9.255  0.3709 -0.1490 -0.1120
  112OSM    H8F11682   5.252   4.553   9.203 -1.1656  0.4352 -0.4567
  112OSM    H8G11683   5.359   4.694   9.196  0.0408 -0.0562 -0.4927
  112OSM    C9F11684   5.164   4.745   9.252  0.5431  0.2614  0.2654
  112OSM    H9F11685   5.105   4.761   9.343 -0.1222 -0.1869 -0.0707
  112OSM   C10F11686   5.126   4.818   9.148  0.2734  0.1866 -0.2195
  112OSM   H10F11687   5.046   4.894   9.154  1.0618  1.2446 -2.0789
  112OSM   C11F11688   5.190   4.804   9.012 -0.3866 -0.3383 -0.1947
  112OSM   H11F11689   5.239   4.705   8.999  0.2294  0.0751 -1.1637
  112OSM   H11G11690   5.264   4.883   8.986  0.8210 -1.0319  0.9718
  112OSM   C12F11691   5.092   4.818   8.897  0.0096  0.0062 -0.1279
  112OSM   H12F11692   5.154   4.836   8.807  4.1246  0.0212  2.4334
  112OSM   H12G11693   5.042   4.917   8.908  0.7672  0.4503 -0.6581
  112OSM   C13F11694   4.985   4.709   8.884 -0.4898 -0.6685  0.1704
  112OSM   H13F11695   4.901   4.752   8.825 -1.8025 -1.8385  1.1297
  112OSM   H13G11696   4.946   4.688   8.985 -1.7095  1.8290  0.3010
  112OSM   C14F11697   5.046   4.601   8.798  0.2307  0.3651  0.5926
  112OSM   H14F11698   5.140   4.560   8.840 -0.7131 -1.6210  0.8918
  112OSM   H14G11699   5.067   4.642   8.697  0.1929  0.5355  0.6526
  112OSM   C15F11700   4.938   4.490   8.780 -0.1645 -0.4065 -1.0430
  112OSM   H15F11701   4.896   4.451   8.875  0.9529 -0.1546 -0.4322
  112OSM   H15G11702   4.987   4.397   8.744  0.0221 -1.1881  1.1144
  112OSM   C16F11703   4.829   4.534   8.687  0.0622  0.2505  0.2230
  112OSM   H16F11704   4.867   4.562   8.586  1.3645 -1.1308  0.3018
  112OSM   H16G11705   4.777   4.626   8.724  0.0163  0.6785 -0.8506
  112OSM   C17F11706   4.719   4.427   8.657 -0.1958 -0.3261  0.3156
  112OSM   H17F11707   4.671   4.398   8.753  0.6497  1.0124  1.1659
  112OSM   H17G11708   4.753   4.328   8.620 -0.1626  0.1444 -0.9618
  112OSM   C18F11709   4.610   4.472   8.563  0.4561  0.3007 -0.0869
  112OSM   H18F11710   4.651   4.492   8.461 -0.6589  0.1976 -0.5736
  112OSM   H18G11711   4.563   4.564   8.604 -0.4563 -0.0370 -0.3427
  112OSM   H18H11712   4.540   4.386   8.550  2.5054 -1.7204  1.5176
  113OSM      N11713   6.703   1.663  10.610 -0.4261  0.0113  0.0830
  113OSM    C1511714   6.558   1.705  10.590  0.1453 -0.1344 -0.2117
  113OSM   H15A11715   6.505   1.643  10.520 -1.0341 -0.4479  0.9122
  113OSM   H15B11716   6.557   1.802  10.543 -1.2280 -1.5398 -3.3209
  113OSM   H15C11717   6.504   1.716  10.683 -1.0892 -1.1059 -0.7990
  113OSM    C1411718   6.705   1.526  10.653  0.5792  0.3449  0.0551
  113OSM   H14A11719   6.683   1.452  10.577  0.3339 -0.3854  0.8242
  113OSM   H14B11720   6.634   1.520  10.734 -2.1744  0.2481 -2.1968
  113OSM   H14C11721   6.803   1.489  10.679  0.4297 -3.3763 -3.6175
  113OSM    C1311722   6.787   1.682  10.490 -0.3786 -0.3959  0.3511
  113OSM   H13A11723   6.891   1.658  10.509  0.4594  2.2033 -0.4219
  113OSM   H13B11724   6.798   1.788  10.472  0.6298 -0.3931  0.8593
  113OSM   H13C11725   6.760   1.624  10.403  1.5019 -2.5937  1.1291
  113OSM    C1211726   6.757   1.752  10.719  0.3745 -0.6219  0.4163
  113OSM   H12A11727   6.682   1.759  10.797  0.6513 -2.8623  0.9557
  113OSM   H12B11728   6.766   1.848  10.671 -1.0183 -1.2068 -1.0903
  113OSM    C1111729   6.889   1.712  10.780  0.3578  0.0082 -0.3439
  113OSM   H11A11730   6.870   1.620  10.838  1.0758  0.6356  0.9185
  113OSM   H11B11731   6.910   1.789  10.857 -0.9286  0.9920 -0.9349
  113OSM      P11732   7.097   1.590  10.692 -0.5544 -0.4577  0.1867
  113OSM    O1311733   7.221   1.632  10.761  0.5066 -0.3506 -0.3859
  113OSM    O1411734   7.039   1.467  10.748  0.2735  0.5138  0.3231
  113OSM    O1111735   7.127   1.568  10.537 -0.7180  0.0599 -0.3922
  113OSM    O1211736   6.997   1.717  10.685  0.1222  0.1606 -0.0110
  113OSM    C1S11737   7.220   1.666  10.480  0.5091 -0.2166 -0.5540
  113OSM    H1S11738   7.322   1.662  10.524  0.1097  0.7690  0.4921
  113OSM    H1T11739   7.181   1.770  10.481 -0.1076 -0.4419  0.4787
  113OSM     NF11740   7.338   1.711  10.273  0.2196  0.3590  0.3273
  113OSM    HNF11741   7.306   1.782  10.212 -1.8812 -0.7565  0.0288
  113OSM    C2S11742   7.238   1.629  10.332  1.0174  0.2950  0.3300
  113OSM    H2S11743   7.283   1.528  10.333  1.1859  0.3428 -1.0682
  113OSM    C3S11744   7.107   1.628  10.254  0.9923 -0.1832 -0.0334
  113OSM    H3S11745   7.067   1.730  10.270  0.7560 -0.0928 -1.1021
  113OSM     O311746   7.002   1.541  10.303 -0.1117 -0.1412  0.2714
  113OSM    HO311747   7.025   1.529  10.396  0.4543  0.6407  0.2477
  113OSM    C4S11748   7.125   1.608  10.106 -0.1225 -0.1634  0.6646
  113OSM    H4S11749   7.163   1.507  10.087 -0.5685 -0.4610  1.3224
  113OSM    C5S11750   7.053   1.672  10.010 -0.0152 -0.2738 -0.5980
  113OSM    H5S11751   6.983   1.750  10.043  1.1143  0.9677 -1.0837
  113OSM    C6S11752   7.042   1.635   9.870  0.2010 -0.4213 -1.0280
  113OSM    H6S11753   6.945   1.583   9.852 -1.1763  0.8226  2.0738
  113OSM    H6T11754   7.133   1.580   9.838  1.8616  0.8776  1.2221
  113OSM    C7S11755   7.031   1.767   9.789  0.0815  0.0195 -0.6598
  113OSM    H7S11756   7.109   1.843   9.811  0.2738  0.0304 -1.3598
  113OSM    H7T11757   6.934   1.814   9.815 -0.6781 -0.6110 -2.2133
  113OSM    C8S11758   7.040   1.734   9.642  0.1756 -0.1438  0.0691
  113OSM    H8S11759   6.991   1.812   9.580  0.9950  0.3762  0.0689
  113OSM    H8T11760   6.972   1.649   9.620 -0.8102 -0.0457  2.4225
  113OSM    C9S11761   7.182   1.713   9.583 -0.1596 -0.0654 -0.6582
  113OSM    H9S11762   7.240   1.642   9.646 -1.0886  2.3202  3.2591
  113OSM    H9T11763   7.239   1.806   9.601 -0.5603 -0.0212  0.4398
  113OSM   C10S11764   7.172   1.674   9.434 -0.0121 -0.6413  0.7734
  113OSM   H10S11765   7.089   1.600   9.425 -1.3219  0.9040 -0.5948
  113OSM   H10T11766   7.260   1.615   9.400  0.9672  0.5190  1.2223
  113OSM   C11S11767   7.144   1.800   9.342  0.6656  0.7328  0.0353
  113OSM   H11S11768   7.211   1.886   9.359 -2.5249  3.2437  1.0339
  113OSM   H11T11769   7.046   1.840   9.377  1.6284  2.1168  1.2571
  113OSM   C12S11770   7.123   1.761   9.198 -0.5342 -0.1519 -0.2814
  113OSM   H12S11771   7.224   1.724   9.168  1.1037  1.2017  3.1314
  113OSM   H12T11772   7.102   1.850   9.136 -0.0523  1.7845  2.1890
  113OSM   C13S11773   7.030   1.643   9.168  0.5210  0.3941  0.5141
  113OSM   H13S11774   6.928   1.644   9.213  0.3788 -0.8154  0.2760
  113OSM   H13T11775   7.077   1.554   9.214 -1.7764 -2.1222 -1.5855
  113OSM   C14S11776   7.014   1.609   9.018 -0.6233 -0.6965 -0.6089
  113OSM   H14S11777   6.968   1.700   8.974  0.1828 -0.8664 -1.8683
  113OSM   H14T11778   6.952   1.517   9.006  0.3323 -1.4465  0.0332
  113OSM   C15S11779   7.147   1.586   8.943 -0.7833 -0.7741  0.0729
  113OSM   H15S11780   7.215   1.516   8.995  0.1564  0.0270 -0.0405
  113OSM   H15T11781   7.194   1.687   8.935 -1.2185 -0.6027 -0.3610
  113OSM   C16S11782   7.138   1.538   8.796 -0.8817  0.0570 -0.4399
  113OSM   H16S11783   7.068   1.608   8.745  2.2902  3.2881 -0.7779
  113OSM   H16T11784   7.100   1.434   8.798 -1.6797  0.3514  0.1585
  113OSM   C17S11785   7.276   1.551   8.718  0.4269  0.5620 -0.4959
  113OSM   H17S11786   7.333   1.469   8.767 -0.6089 -0.0205 -0.2504
  113OSM   H17T11787   7.325   1.649   8.736  0.1470  0.8738 -1.3600
  113OSM   C18S11788   7.270   1.521   8.565 -0.4833  0.7458 -0.2767
  113OSM   H18S11789   7.227   1.601   8.500 -1.2013  0.5662 -0.0401
  113OSM   H18T11790   7.219   1.423   8.551  2.2109 -0.9299  0.8947
  113OSM   H18U11791   7.373   1.498   8.533  0.0727  1.4247  0.9397
  113OSM    C1F11792   7.468   1.689  10.292  0.3429 -0.7576  0.7419
  113OSM     OF11793   7.509   1.611  10.373  0.4490 -0.4941  0.2265
  113OSM    C2F11794   7.553   1.775  10.202  0.2442 -0.0943 -0.4885
  113OSM    H2F11795   7.556   1.880  10.236  0.6089  0.4456 -2.0718
  113OSM    H2G11796   7.506   1.777  10.101  1.4393 -1.1483 -1.1038
  113OSM    C3F11797   7.699   1.731  10.183  0.0671  0.7086 -0.7095
  113OSM    H3F11798   7.705   1.628  10.141  4.1129 -0.4924  2.1613
  113OSM    H3G11799   7.749   1.722  10.282 -0.0874  0.7040 -0.6308
  113OSM    C4F11800   7.793   1.826  10.108 -0.0108  0.7602  0.3615
  113OSM    H4F11801   7.789   1.922  10.164  0.1404 -0.2544  2.2184
  113OSM    H4G11802   7.753   1.845  10.007  0.0955  1.9969  0.5366
  113OSM    C5F11803   7.931   1.774  10.099 -0.8353  0.1897 -0.2365
  113OSM    H5F11804   7.926   1.672  10.055 -1.3709  0.5297 -0.9681
  113OSM    H5G11805   7.983   1.765  10.197 -0.7940 -1.8187 -0.3927
  113OSM    C6F11806   8.014   1.862  10.003 -0.3411  0.4726  0.6830
  113OSM    H6F11807   8.036   1.963  10.044  0.5738  0.7766 -0.5050
  113OSM    H6G11808   7.956   1.871   9.909  3.0334 -2.0623 -1.9162
  113OSM    C7F11809   8.140   1.784   9.958 -0.8995 -0.1063 -0.2202
  113OSM    H7F11810   8.100   1.692   9.910  0.7950 -0.5029 -0.9502
  113OSM    H7G11811   8.211   1.760  10.039  0.6238  0.5420 -1.3134
  113OSM    C8F11812   8.219   1.862   9.852 -0.4288 -0.3419 -0.2966
  113OSM    H8F11813   8.201   1.970   9.873 -3.3218 -0.9575  0.8809
  113OSM    H8G11814   8.180   1.839   9.750  1.7124 -0.5767 -1.1064
  113OSM    C9F11815   8.367   1.841   9.847 -0.3476  0.2445 -0.1185
  113OSM    H9F11816   8.411   1.888   9.937  0.4783 -0.7574  0.0219
  113OSM   C10F11817   8.451   1.789   9.752  0.3559 -0.3857 -1.1575
  113OSM   H10F11818   8.560   1.792   9.765  0.1199 -0.5158  1.5174
  113OSM   C11F11819   8.409   1.721   9.630  0.6346  0.0041 -0.4750
  113OSM   H11F11820   8.298   1.710   9.637  0.2352  2.9881 -0.7808
  113OSM   H11G11821   8.457   1.622   9.618 -1.2774 -0.9717 -0.4870
  113OSM   C12F11822   8.444   1.785   9.499  0.4341 -0.1351  0.5467
  113OSM   H12F11823   8.415   1.892   9.501  1.4439  0.2207 -1.5817
  113OSM   H12G11824   8.375   1.739   9.425 -0.6008  2.1856 -0.0327
  113OSM   C13F11825   8.589   1.771   9.448  0.1208  0.1023 -0.8834
  113OSM   H13F11826   8.610   1.663   9.464 -0.4795  0.1518  0.4068
  113OSM   H13G11827   8.667   1.837   9.492  0.3203  1.0807 -2.6346
  113OSM   C14F11828   8.591   1.771   9.295  0.4570 -0.1133 -0.2281
  113OSM   H14F11829   8.538   1.679   9.261  0.5135  0.7761 -2.9863
  113OSM   H14G11830   8.700   1.769   9.274  1.0253  1.0753  2.2473
  113OSM   C15F11831   8.536   1.900   9.235 -0.1338  0.1813 -0.0988
  113OSM   H15F11832   8.596   1.982   9.280  0.2614 -0.1827  0.0452
  113OSM   H15G11833   8.438   1.915   9.286  0.9562 -3.3546  3.5586
  113OSM   C16F11834   8.522   1.915   9.083  0.3186  0.4614  0.0727
  113OSM   H16F11835   8.428   1.867   9.047  1.4007 -2.9181  1.4489
  113OSM   H16G11836   8.606   1.872   9.024 -1.5300  0.2058 -2.6021
  113OSM   C17F11837   8.507   2.062   9.043  0.1117 -0.0465  0.5041
  113OSM   H17F11838   8.604   2.115   9.055 -0.5949  1.5658 -0.5280
  113OSM   H17G11839   8.439   2.115   9.113  2.6659  1.0326  2.3351
  113OSM   C18F11840   8.455   2.080   8.893 -0.6306 -0.1555 -0.2289
  113OSM   H18F11841   8.349   2.048   8.883 -1.2811  1.5657  0.7721
  113OSM   H18G11842   8.523   2.028   8.822  0.7811  1.6510 -0.2879
  113OSM   H18H11843   8.451   2.187   8.864 -1.4317 -0.6899 -2.3102
  114OSM      N11844   5.660   6.429  11.247 -0.1474 -0.2603  0.0858
  114OSM    C1511845   5.720   6.397  11.382 -0.1647  0.1481 -0.4416
  114OSM   H15A11846   5.789   6.472  11.419 -0.2462 -1.1214  2.6621
  114OSM   H15B11847   5.774   6.303  11.374 -0.2412 -0.1117  1.5206
  114OSM   H15C11848   5.649   6.387  11.463  1.4952  1.6891  1.3071
  114OSM    C1411849   5.547   6.331  11.234  0.0786 -0.1660 -0.1119
  114OSM   H14A11850   5.479   6.370  11.161  1.5017  0.1268 -1.3296
  114OSM   H14B11851   5.502   6.307  11.330 -1.8014 -3.0035 -1.5780
  114OSM   H14C11852   5.583   6.237  11.194 -0.9510  0.3752 -2.4544
  114OSM    C1311853   5.594   6.563  11.248 -0.3194  0.0085  0.1169
  114OSM   H13A11854   5.537   6.572  11.156  1.4989  1.6308 -0.9207
  114OSM   H13B11855   5.669   6.640  11.245 -1.6530  1.3403  0.0822
  114OSM   H13C11856   5.524   6.575  11.330  0.2440 -0.6275  0.7010
  114OSM    C1211857   5.762   6.416  11.133  0.1010 -0.0659 -0.8236
  114OSM   H12A11858   5.846   6.478  11.160 -0.5803  0.0832  1.1565
  114OSM   H12B11859   5.732   6.466  11.042  0.8538  0.6053 -0.7138
  114OSM    C1111860   5.794   6.274  11.086 -0.1170 -0.0676 -0.1424
  114OSM   H11A11861   5.875   6.293  11.012  1.4900 -1.9977  0.9987
  114OSM   H11B11862   5.707   6.230  11.033  0.5401 -1.5024 -0.0807
  114OSM      P11863   5.899   6.044  11.123  0.2175  0.2251 -0.6072
  114OSM    O1311864   5.968   5.954  11.221 -0.3166 -1.0741  0.0815
  114OSM    O1411865   5.784   5.984  11.050 -0.1841 -1.2047  0.3747
  114OSM    O1111866   6.004   6.098  11.015 -0.4112  0.3494 -0.1413
  114OSM    O1211867   5.853   6.182  11.183  0.9041  0.1856 -0.1392
  114OSM    C1S11868   6.081   6.010  10.930  0.1781  0.3408 -0.6110
  114OSM    H1S11869   6.047   5.904  10.930 -0.4776  0.4811  1.8830
  114OSM    H1T11870   6.183   5.986  10.966  0.0153 -0.9476 -0.9515
  114OSM     NF11871   6.122   5.956  10.702  0.2961  0.5560 -0.4275
  114OSM    HNF11872   6.216   5.968  10.670  0.4542  0.4562 -0.0101
  114OSM    C2S11873   6.079   6.058  10.786  0.5674 -1.2646 -0.1230
  114OSM    H2S11874   5.972   6.067  10.757  0.7485 -0.2895 -0.4977
  114OSM    C3S11875   6.140   6.193  10.773 -0.0838  0.1211  0.2119
  114OSM    H3S11876   6.246   6.188  10.809  0.6905  2.4566 -1.4798
  114OSM     O311877   6.081   6.292  10.862 -0.0068  0.5775  0.6760
  114OSM    HO311878   6.029   6.235  10.920 -0.0954 -1.9320 -1.6477
  114OSM    C4S11879   6.132   6.248  10.634  0.4547 -0.5505 -0.3448
  114OSM    H4S11880   6.030   6.249  10.594  0.2766  3.6168 -0.2474
  114OSM    C5S11881   6.238   6.298  10.566  0.3959 -0.0595 -0.1110
  114OSM    H5S11882   6.336   6.299  10.617  0.7153 -0.5594 -0.7022
  114OSM    C6S11883   6.221   6.353  10.426 -0.4825 -0.6721 -0.2689
  114OSM    H6S11884   6.267   6.453  10.411 -1.6153 -0.1382 -0.3159
  114OSM    H6T11885   6.113   6.363  10.401 -0.2543 -0.0752 -1.0746
  114OSM    C7S11886   6.280   6.282  10.299 -0.1170 -0.2212 -0.0083
  114OSM    H7S11887   6.220   6.191  10.274  1.0138 -0.1969 -3.3752
  114OSM    H7T11888   6.388   6.260  10.306 -0.1852 -0.1874  1.2710
  114OSM    C8S11889   6.259   6.366  10.170  0.1167  0.0208  0.1316
  114OSM    H8S11890   6.301   6.468  10.166 -1.0515  0.6710  2.7047
  114OSM    H8T11891   6.150   6.389  10.167  0.2398  0.6336 -2.5885
  114OSM    C9S11892   6.293   6.287  10.041  0.4423 -0.0307  0.1356
  114OSM    H9S11893   6.226   6.199  10.027 -0.4306  0.5668  0.4768
  114OSM    H9T11894   6.397   6.252  10.056 -0.0111 -1.2479  0.6654
  114OSM   C10S11895   6.296   6.370   9.911  0.2062 -0.5059 -0.2571
  114OSM   H10S11896   6.374   6.448   9.912 -0.6754  0.3892  0.3305
  114OSM   H10T11897   6.193   6.411   9.901 -0.9241 -2.6410  1.5584
  114OSM   C11S11898   6.318   6.289   9.782  0.2418  0.0520  0.2911
  114OSM   H11S11899   6.276   6.186   9.783  1.5369 -0.4986  0.9046
  114OSM   H11T11900   6.429   6.289   9.769  0.2269  0.9553  0.1491
  114OSM   C12S11901   6.252   6.365   9.669 -0.1321 -0.4911  0.3802
  114OSM   H12S11902   6.285   6.470   9.661  0.9226 -0.6916  1.6464
  114OSM   H12T11903   6.142   6.378   9.684 -0.2107  0.6916 -1.0708
  114OSM   C13S11904   6.277   6.294   9.538 -0.0632  0.8390 -0.1864
  114OSM   H13S11905   6.218   6.202   9.517  0.6792  0.3252 -0.0636
  114OSM   H13T11906   6.386   6.277   9.527 -0.3789 -1.8421  0.1147
  114OSM   C14S11907   6.234   6.376   9.419  0.3256  0.0414  0.2803
  114OSM   H14S11908   6.288   6.472   9.421  0.4189  0.0917 -2.0830
  114OSM   H14T11909   6.126   6.398   9.436  0.0674 -0.3935 -0.7276
  114OSM   C15S11910   6.254   6.299   9.287  0.1428 -0.2996 -0.0334
  114OSM   H15S11911   6.215   6.195   9.296  0.8449 -0.4718  1.3097
  114OSM   H15T11912   6.362   6.290   9.263  0.4599  0.6216  1.0032
  114OSM   C16S11913   6.190   6.379   9.166 -0.0999 -0.2083  0.3726
  114OSM   H16S11914   6.237   6.479   9.151  2.1594 -1.4765 -1.6264
  114OSM   H16T11915   6.082   6.400   9.182  0.2946  2.4365  0.1040
  114OSM   C17S11916   6.208   6.295   9.047  0.0935  0.3183  0.3908
  114OSM   H17S11917   6.188   6.188   9.071  0.6507  0.4371  1.4299
  114OSM   H17T11918   6.317   6.295   9.025  0.2033  0.0605  0.9228
  114OSM   C18S11919   6.126   6.328   8.918  0.8059 -0.9353 -0.9886
  114OSM   H18S11920   6.122   6.435   8.888  1.1687  0.2986  2.8672
  114OSM   H18T11921   6.021   6.296   8.933  0.2236  1.0667 -0.4566
  114OSM   H18U11922   6.168   6.270   8.833 -0.7222 -0.9762 -1.7396
  114OSM    C1F11923   6.077   5.831  10.675  0.3116  0.8894  0.3963
  114OSM     OF11924   5.961   5.806  10.714  0.1643 -0.5799  0.3843
  114OSM    C2F11925   6.156   5.731  10.588 -0.6387  0.0141 -0.4034
  114OSM    H2F11926   6.259   5.724  10.628 -0.5527  0.4650 -0.5463
  114OSM    H2G11927   6.166   5.769  10.484  0.8423 -0.7737 -0.5751
  114OSM    C3F11928   6.100   5.588  10.592 -0.2374  0.0885  0.2828
  114OSM    H3F11929   6.001   5.595  10.543 -0.7938  0.5883  1.4390
  114OSM    H3G11930   6.087   5.560  10.699  0.9931 -1.8150 -0.0189
  114OSM    C4F11931   6.189   5.505  10.505  0.0861  0.4651  0.0947
  114OSM    H4F11932   6.281   5.494  10.566 -0.1411  1.5769  0.6773
  114OSM    H4G11933   6.207   5.548  10.404  0.7805 -0.8065 -0.3405
  114OSM    C5F11934   6.136   5.361  10.481  0.5299  0.3054 -0.4912
  114OSM    H5F11935   6.031   5.361  10.446 -0.1668 -2.7873  1.2398
  114OSM    H5G11936   6.136   5.309  10.579  0.6702  0.2789 -0.5038
  114OSM    C6F11937   6.227   5.280  10.389 -0.7481 -0.4017 -0.2740
  114OSM    H6F11938   6.330   5.304  10.424 -0.2870 -1.4627 -0.8633
  114OSM    H6G11939   6.217   5.321  10.286  1.5505  0.4578 -0.2087
  114OSM    C7F11940   6.200   5.130  10.393  0.1445 -0.1454 -1.5921
  114OSM    H7F11941   6.097   5.097  10.365 -0.3967 -0.8890  1.0169
  114OSM    H7G11942   6.222   5.084  10.491  0.3679 -0.2353 -1.6829
  114OSM    C8F11943   6.275   5.051  10.286  1.4014 -0.0246  0.1261
  114OSM    H8F11944   6.224   5.094  10.197  0.0799  0.4359  1.0641
  114OSM    H8G11945   6.240   4.945  10.284 -1.6345  0.8802  0.5697
  114OSM    C9F11946   6.416   5.064  10.290  0.1630  0.0052  0.4892
  114OSM    H9F11947   6.459   5.003  10.371 -2.4768 -3.4827 -0.5091
  114OSM   C10F11948   6.507   5.119  10.199  0.0175 -0.3966  0.1900
  114OSM   H10F11949   6.616   5.115  10.208  0.0162 -0.4220  0.1931
  114OSM   C11F11950   6.461   5.208  10.090  0.1465 -0.1965 -0.1728
  114OSM   H11F11951   6.368   5.261  10.120  0.8053  0.5777  0.5785
  114OSM   H11G11952   6.425   5.141  10.009 -0.0662 -3.4294  2.4188
  114OSM   C12F11953   6.565   5.315  10.045  0.3903 -0.5156 -0.1426
  114OSM   H12F11954   6.662   5.276  10.007  1.1006 -0.0665  1.1618
  114OSM   H12G11955   6.580   5.378  10.135 -1.0140  1.7466 -1.3763
  114OSM   C13F11956   6.509   5.403   9.929  0.0888  0.1848 -0.1132
  114OSM   H13F11957   6.562   5.500   9.920 -0.3752  0.4450 -0.1090
  114OSM   H13G11958   6.404   5.425   9.960 -0.3776 -0.9598 -0.8338
  114OSM   C14F11959   6.513   5.332   9.793 -0.3944 -0.2303  0.4280
  114OSM   H14F11960   6.442   5.247   9.790 -2.3663  1.3359  0.2751
  114OSM   H14G11961   6.617   5.293   9.785 -0.2240  0.1041  0.9436
  114OSM   C15F11962   6.485   5.422   9.671 -0.6760 -0.0984  0.2759
  114OSM   H15F11963   6.567   5.496   9.659 -0.8397 -0.2050 -1.8586
  114OSM   H15G11964   6.388   5.472   9.691 -1.3034 -1.2060  0.0071
  114OSM   C16F11965   6.467   5.351   9.548  0.3875  0.5686  0.2375
  114OSM   H16F11966   6.377   5.286   9.554  0.1211  0.7256 -1.3737
  114OSM   H16G11967   6.551   5.284   9.522 -0.1975  0.2319 -0.8395
  114OSM   C17F11968   6.438   5.432   9.416 -0.3238 -0.2746 -0.1475
  114OSM   H17F11969   6.361   5.500   9.458 -0.2320 -0.4007  0.2384
  114OSM   H17G11970   6.407   5.353   9.344  0.1087 -0.7744  0.2053
  114OSM   C18F11971   6.569   5.511   9.366 -0.1340  0.3106 -0.2344
  114OSM   H18F11972   6.550   5.545   9.262  1.6135  0.5802 -0.4889
  114OSM   H18G11973   6.661   5.449   9.378  0.1237  1.1427  3.2627
  114OSM   H18H11974   6.586   5.600   9.431  0.2014 -1.1110  1.7379
  115OSM      N11975   6.444   2.357  10.782 -0.2772  0.5988 -0.6512
  115OSM    C1511976   6.409   2.208  10.784  1.1882  0.2223  0.6198
  115OSM   H15A11977   6.480   2.134  10.749  0.1433 -0.8788  0.7582
  115OSM   H15B11978   6.314   2.207  10.735  1.3062 -3.5839  0.1512
  115OSM   H15C11979   6.381   2.169  10.881 -0.1723 -0.1600  0.0913
  115OSM    C1411980   6.315   2.429  10.823  0.5455 -0.6405  0.6413
  115OSM   H14A11981   6.323   2.536  10.814 -0.0518 -0.7834 -2.9766
  115OSM   H14B11982   6.284   2.397  10.921 -1.2557  0.2348  0.4056
  115OSM   H14C11983   6.235   2.416  10.751  1.1717  0.2439 -0.2406
  115OSM    C1311984   6.546   2.376  10.890 -0.1037 -0.3038  0.8730
  115OSM   H13A11985   6.586   2.475  10.871 -0.4365 -0.6215 -1.9671
  115OSM   H13B11986   6.631   2.317  10.857  1.3405  1.6697  0.8712
  115OSM   H13C11987   6.507   2.355  10.988 -1.8476 -3.2417 -0.3203
  115OSM    C1211988   6.505   2.402  10.654  0.4843 -0.3248 -0.5870
  115OSM   H12A11989   6.440   2.388  10.570  0.1271  1.6345 -0.6834
  115OSM   H12B11990   6.595   2.352  10.622 -0.3221 -1.5228 -1.0316
  115OSM    C1111991   6.549   2.555  10.649  0.1946  1.0439  0.1635
  115OSM   H11A11992   6.466   2.624  10.675  1.4130  2.3198  0.8518
  115OSM   H11B11993   6.574   2.575  10.543 -0.8457 -2.1335 -0.7882
  115OSM      P11994   6.703   2.711  10.785 -0.4066  0.0884 -0.6983
  115OSM    O1311995   6.587   2.753  10.878  0.3328 -0.0253  0.0387
  115OSM    O1411996   6.838   2.694  10.848 -0.5546  0.0310 -0.0086
  115OSM    O1111997   6.706   2.809  10.666  0.3036 -0.8369 -0.5770
  115OSM    O1211998   6.665   2.572  10.720  0.0250 -0.0785  0.0925
  115OSM    C1S11999   6.790   2.810  10.547 -0.9960  0.3764  0.3985
  115OSM    H1S12000   6.755   2.719  10.494 -0.5175 -0.2040  1.0678
  115OSM    H1T12001   6.895   2.789  10.575 -0.8277 -0.4926 -0.8108
  115OSM     NF12002   6.832   2.917  10.325  0.0204  0.2384 -0.1674
  115OSM    HNF12003   6.918   2.965  10.310  1.1012 -2.0064 -1.6040
  115OSM    C2S12004   6.775   2.940  10.456 -0.7970 -0.1880 -0.3063
  115OSM    H2S12005   6.666   2.959  10.443 -0.6439 -0.3448 -2.1132
  115OSM    C3S12006   6.818   3.064  10.539 -0.8430 -0.5015 -0.0282
  115OSM    H3S12007   6.923   3.049  10.570 -0.6170  0.0176 -0.5255
  115OSM     O312008   6.747   3.066  10.662 -0.1412  0.2189 -0.0314
  115OSM    HO312009   6.728   2.974  10.682 -1.0325  0.8442  2.4973
  115OSM    C4S12010   6.800   3.194  10.470  0.3429  0.1326  0.6988
  115OSM    H4S12011   6.893   3.246  10.441 -0.7335  2.5952  1.4106
  115OSM    C5S12012   6.683   3.267  10.444 -0.2458  0.7036 -0.4128
  115OSM    H5S12013   6.588   3.217  10.468  0.4700 -0.2068  0.6639
  115OSM    C6S12014   6.676   3.396  10.376  0.8748 -0.5300 -0.0613
  115OSM    H6S12015   6.707   3.474  10.449 -0.7670 -0.2912  0.4196
  115OSM    H6T12016   6.575   3.424  10.339  0.9220 -0.2326  0.0289
  115OSM    C7S12017   6.766   3.414  10.255 -0.2535 -0.1566  0.4633
  115OSM    H7S12018   6.869   3.422  10.295  0.2698 -1.2607 -0.5979
  115OSM    H7T12019   6.739   3.508  10.204 -0.5800 -0.8371 -0.6545
  115OSM    C8S12020   6.757   3.298  10.148 -0.1432 -0.2373 -0.0481
  115OSM    H8S12021   6.653   3.285  10.111 -0.2463 -0.0871  0.1872
  115OSM    H8T12022   6.760   3.198  10.195 -2.6801  0.3469  1.5152
  115OSM    C9S12023   6.840   3.310  10.028  0.8207  0.1842  0.5540
  115OSM    H9S12024   6.946   3.314  10.060  0.1913 -0.2718  2.8611
  115OSM    H9T12025   6.807   3.406   9.982  2.0186  0.4283  0.1789
  115OSM   C10S12026   6.817   3.205   9.912 -0.7333  0.2481  0.0676
  115OSM   H10S12027   6.707   3.205   9.897 -0.7029  2.2542 -0.5008
  115OSM   H10T12028   6.843   3.103   9.946  0.9848  0.7084  0.2238
  115OSM   C11S12029   6.883   3.237   9.770  0.8954 -0.4059  0.2708
  115OSM   H11S12030   6.980   3.291   9.782  0.0513  0.7241  2.5329
  115OSM   H11T12031   6.818   3.317   9.728  0.6923 -0.8062 -0.1756
  115OSM   C12S12032   6.886   3.115   9.679  0.2683 -0.5692  0.8795
  115OSM   H12S12033   6.786   3.069   9.693  0.6690 -1.2731  1.4381
  115OSM   H12T12034   6.961   3.039   9.710 -0.3103 -0.2970  3.0747
  115OSM   C13S12035   6.918   3.174   9.537 -0.2373 -0.5216  0.2637
  115OSM   H13S12036   7.002   3.244   9.557 -1.3236  0.5543  1.2131
  115OSM   H13T12037   6.843   3.252   9.511  1.7024  0.9813 -1.1416
  115OSM   C14S12038   6.946   3.062   9.435 -0.0110 -0.2800  0.2398
  115OSM   H14S12039   6.854   3.001   9.420 -0.4292  0.3445  0.2067
  115OSM   H14T12040   7.029   2.998   9.470 -1.0357 -1.2651  0.8991
  115OSM   C15S12041   6.994   3.127   9.297  0.1794 -0.2850  0.9062
  115OSM   H15S12042   7.068   3.209   9.311 -0.4053  0.7650 -1.5836
  115OSM   H15T12043   6.903   3.173   9.252  0.8528  1.4187  1.1961
  115OSM   C16S12044   7.024   3.021   9.194 -0.4779  0.1838 -0.3844
  115OSM   H16S12045   6.934   2.958   9.181  0.0460 -0.7698  0.4929
  115OSM   H16T12046   7.110   2.960   9.228 -0.6580 -0.0355 -0.3178
  115OSM   C17S12047   7.050   3.066   9.052 -0.3132  0.2895 -0.1479
  115OSM   H17S12048   7.159   3.088   9.044  0.4405 -2.6434  0.5427
  115OSM   H17T12049   6.985   3.152   9.026 -1.5239 -0.6483 -0.3170
  115OSM   C18S12050   7.021   2.955   8.945 -0.2503  0.9461 -0.3803
  115OSM   H18S12051   7.089   2.869   8.964  1.5241  2.6168  1.2192
  115OSM   H18T12052   7.058   2.996   8.849  3.2529 -0.3557  0.2680
  115OSM   H18U12053   6.912   2.934   8.959 -0.6201  3.1016  0.4326
  115OSM    C1F12054   6.792   2.826  10.245  0.3240  0.0332  0.2472
  115OSM     OF12055   6.675   2.786  10.250 -0.3252  0.0132 -0.6199
  115OSM    C2F12056   6.890   2.768  10.146  0.0253  0.5268  0.3088
  115OSM    H2F12057   6.983   2.734  10.198  0.5494  0.9802 -0.3136
  115OSM    H2G12058   6.927   2.844  10.074 -0.2439  0.2189 -0.1601
  115OSM    C3F12059   6.826   2.648  10.078  0.3494  0.5266  0.7337
  115OSM    H3F12060   6.718   2.665  10.056  0.1958  0.8102  1.6295
  115OSM    H3G12061   6.815   2.564  10.150 -0.2707  1.5557  1.8803
  115OSM    C4F12062   6.888   2.585   9.955  0.4027 -0.2284  0.0593
  115OSM    H4F12063   6.820   2.509   9.910  0.7558  0.2436 -1.3138
  115OSM    H4G12064   6.981   2.533   9.985  1.9657  1.9396 -0.7563
  115OSM    C5F12065   6.944   2.687   9.855 -0.1348  0.3654  0.4014
  115OSM    H5F12066   7.028   2.738   9.907  0.7767  0.2924 -0.9633
  115OSM    H5G12067   6.857   2.754   9.841 -1.1341 -0.5387  1.9299
  115OSM    C6F12068   7.009   2.629   9.729  0.0169  0.1261  0.1489
  115OSM    H6F12069   6.937   2.562   9.677  1.6489 -0.6701 -1.2003
  115OSM    H6G12070   7.092   2.558   9.749  0.4137  0.3759 -0.5713
  115OSM    C7F12071   7.052   2.721   9.618 -0.4833 -0.0758 -0.6352
  115OSM    H7F12072   7.154   2.757   9.646 -1.6436  2.6258  0.3860
  115OSM    H7G12073   6.991   2.814   9.619 -0.8048 -0.2512  1.4093
  115OSM    C8F12074   7.044   2.669   9.476 -0.5815  0.0567 -0.1869
  115OSM    H8F12075   7.083   2.745   9.404 -0.8114  1.1467  0.8237
  115OSM    H8G12076   6.938   2.653   9.450 -0.1978 -0.8764 -1.2841
  115OSM    C9F12077   7.130   2.545   9.450  0.4903  0.5108 -0.1066
  115OSM    H9F12078   7.110   2.462   9.519  0.0445 -1.3410 -2.3390
  115OSM   C10F12079   7.212   2.523   9.345 -0.1929  0.8716 -0.7927
  115OSM   H10F12080   7.254   2.423   9.331 -1.0100  0.1117  1.6776
  115OSM   C11F12081   7.272   2.623   9.249 -0.0235  1.0215 -0.0479
  115OSM   H11F12082   7.365   2.667   9.290  0.9748 -1.5674  0.6131
  115OSM   H11G12083   7.198   2.705   9.235 -0.1490  0.9639  0.2730
  115OSM   C12F12084   7.319   2.562   9.114  0.1236  0.0021  0.6060
  115OSM   H12F12085   7.375   2.467   9.124  0.3793  0.0712 -0.0697
  115OSM   H12G12086   7.394   2.630   9.068  0.7976 -1.2635 -0.2035
  115OSM   C13F12087   7.205   2.529   9.015  0.3262  0.3156 -0.1697
  115OSM   H13F12088   7.146   2.618   8.984  1.5761  1.7014  1.3163
  115OSM   H13G12089   7.131   2.477   9.080  0.4331 -0.5175 -0.7033
  115OSM   C14F12090   7.255   2.445   8.892 -0.0329 -0.5806 -0.3831
  115OSM   H14F12091   7.301   2.359   8.945  0.0378  1.3268  2.9369
  115OSM   H14G12092   7.331   2.504   8.837  1.4030 -2.5917 -0.6427
  115OSM   C15F12093   7.143   2.409   8.799  0.6952 -0.2618  0.5834
  115OSM   H15F12094   7.110   2.504   8.752 -0.3062 -0.5814  0.6327
  115OSM   H15G12095   7.059   2.365   8.857 -0.2246  1.7344  0.8549
  115OSM   C16F12096   7.181   2.316   8.684  0.3427  0.8089  0.0999
  115OSM   H16F12097   7.196   2.213   8.725  1.1579  1.8224  2.5433
  115OSM   H16G12098   7.279   2.349   8.643 -0.7385  1.0039 -2.4648
  115OSM   C17F12099   7.080   2.316   8.561  0.0764 -0.1196  0.0090
  115OSM   H17F12100   6.986   2.293   8.615  0.1354 -0.8797 -0.1956
  115OSM   H17G12101   7.117   2.234   8.495  1.4673 -1.2847  2.1439
  115OSM   C18F12102   7.070   2.442   8.475  0.9137 -0.5582 -0.2324
  115OSM   H18F12103   6.981   2.433   8.410  1.2920 -0.0830 -0.8218
  115OSM   H18G12104   7.166   2.473   8.428  0.8496  0.3704  0.2290
  115OSM   H18H12105   7.045   2.520   8.551 -3.2072 -0.8982 -1.0265
  116OSM      N12106   4.757   0.209  11.184  0.2271 -0.5206  0.5810
  116OSM    C1512107   4.772   0.062  11.155 -0.0784  1.0024 -0.6671
  116OSM   H15A12108   4.879   0.046  11.145  0.0085  1.4624 -0.5082
  116OSM   H15B12109   4.717   0.041  11.064 -0.5649  2.0700 -0.6452
  116OSM   H15C12110   4.730   0.019  11.244  1.3398  0.3868 -0.2625
  116OSM    C1412111   4.615   0.232  11.232  0.1660  0.1825  0.9277
  116OSM   H14A12112   4.550   0.235  11.146  0.2167  1.7336  0.9179
  116OSM   H14B12113   4.608   0.332  11.272 -0.1127  0.1304  1.0042
  116OSM   H14C12114   4.594   0.148  11.297 -0.1992 -0.2691  0.2348
  116OSM    C1312115   4.839   0.255  11.298  0.3819  0.0121  0.0217
  116OSM   H13A12116   4.846   0.184  11.379 -1.0824  0.1304  0.2781
  116OSM   H13B12117   4.796   0.349  11.330 -0.6876 -0.3689 -0.2559
  116OSM   H13C12118   4.935   0.280  11.254  0.2224 -1.3576 -1.1748
  116OSM    C1212119   4.800   0.304  11.068  0.2005  0.1837 -0.0300
  116OSM   H12A12120   4.907   0.293  11.058  0.1524  0.2045 -0.6137
  116OSM   H12B12121   4.777   0.406  11.098 -0.5218  0.0867 -0.2373
  116OSM    C1112122   4.735   0.286  10.928  0.3191 -0.4047  0.7847
  116OSM   H11A12123   4.790   0.350  10.855 -1.1024 -1.0364 -0.9347
  116OSM   H11B12124   4.632   0.328  10.929  0.2523 -0.5752  1.5099
  116OSM      P12125   4.630   0.088  10.788 -0.1332 -0.0500  0.2946
  116OSM    O1312126   4.673  -0.035  10.719  0.3845  0.4596 -0.5563
  116OSM    O1412127   4.505   0.074  10.865  0.2245  0.0944 -0.5682
  116OSM    O1112128   4.614   0.206  10.679 -0.3720 -0.5483  0.5060
  116OSM    O1212129   4.744   0.152  10.876  0.4611 -0.1427 -0.2605
  116OSM    C1S12130   4.699   0.205  10.560  0.3602 -0.3825  0.1667
  116OSM    H1S12131   4.806   0.185  10.580  0.7616 -1.5172 -2.6473
  116OSM    H1T12132   4.693   0.303  10.508 -0.0423 -0.1678  0.6107
  116OSM     NF12133   4.755   0.106  10.339  0.0273  0.0235  0.8242
  116OSM    HNF12134   4.750   0.166  10.259 -0.9176 -0.6774  0.3382
  116OSM    C2S12135   4.650   0.112  10.442 -0.0158  0.0349  0.1648
  116OSM    H2S12136   4.644   0.010  10.484  1.8850 -0.4105 -0.5511
  116OSM    C3S12137   4.519   0.160  10.391 -0.4364  0.6338  0.7094
  116OSM    H3S12138   4.521   0.270  10.373  0.1419  0.5403  0.1512
  116OSM     O312139   4.412   0.145  10.480  0.7171 -0.3398 -0.1988
  116OSM    HO312140   4.452   0.126  10.566 -0.2797 -0.6048  0.2134
  116OSM    C4S12141   4.482   0.084  10.265  0.5308 -0.4194  0.0287
  116OSM    H4S12142   4.470  -0.023  10.287  2.1516 -0.5927  0.1880
  116OSM    C5S12143   4.440   0.138  10.147  0.1075  0.4079 -0.4464
  116OSM    H5S12144   4.436   0.248  10.138 -0.2097  0.5631  1.3098
  116OSM    C6S12145   4.394   0.063  10.025  0.2635  0.5821  0.7586
  116OSM    H6S12146   4.450   0.106   9.939 -0.6051 -0.9567 -0.6272
  116OSM    H6T12147   4.285   0.070  10.003  0.3171 -2.6042 -1.1015
  116OSM    C7S12148   4.428  -0.086  10.025 -0.2421  0.8921 -0.0037
  116OSM    H7S12149   4.382  -0.142  10.109 -0.4932  0.8531 -0.1669
  116OSM    H7T12150   4.539  -0.095  10.034 -0.1896 -0.3960 -1.5252
  116OSM    C8S12151   4.371  -0.167   9.898  0.4928 -0.7511  0.2813
  116OSM    H8S12152   4.270  -0.207   9.920  0.7657 -1.6618 -0.0794
  116OSM    H8T12153   4.440  -0.254   9.888 -0.5122 -1.6289  0.7969
  116OSM    C9S12154   4.386  -0.103   9.762 -0.0381  0.4780  0.7163
  116OSM    H9S12155   4.486  -0.120   9.717 -0.8535 -1.8311 -0.3629
  116OSM    H9T12156   4.370   0.007   9.758 -1.5271  0.2448 -1.2185
  116OSM   C10S12157   4.278  -0.162   9.663 -0.2179  0.1183  0.5663
  116OSM   H10S12158   4.182  -0.117   9.695  0.5589  0.7027  2.2117
  116OSM   H10T12159   4.270  -0.273   9.667 -0.7325  0.0540 -1.4947
  116OSM   C11S12160   4.313  -0.128   9.520  0.1327 -0.5224 -0.3434
  116OSM   H11S12161   4.416  -0.157   9.489  0.0605 -2.1909  0.8630
  116OSM   H11T12162   4.301  -0.017   9.517 -1.8530 -0.6675  0.4905
  116OSM   C12S12163   4.201  -0.189   9.432  0.5017  0.0479  0.1218
  116OSM   H12S12164   4.104  -0.171   9.483  1.3817  1.8904  1.2888
  116OSM   H12T12165   4.216  -0.298   9.442 -0.1119 -0.0544 -0.0575
  116OSM   C13S12166   4.201  -0.157   9.282  0.1383  0.3471  0.2429
  116OSM   H13S12167   4.214  -0.048   9.269  1.9986 -0.0150 -1.5821
  116OSM   H13T12168   4.099  -0.179   9.246 -1.8857  0.2218  5.1829
  116OSM   C14S12169   4.310  -0.232   9.201 -0.5952 -0.1102 -0.4709
  116OSM   H14S12170   4.300  -0.341   9.219  4.4708 -0.5119  1.5646
  116OSM   H14T12171   4.412  -0.202   9.236 -0.6120  1.7187 -1.8622
  116OSM   C15S12172   4.304  -0.214   9.048  0.5100 -0.3058 -0.6105
  116OSM   H15S12173   4.388  -0.280   9.017  1.4780 -0.2023  1.5461
  116OSM   H15T12174   4.314  -0.105   9.029 -0.3775 -0.0673  0.2049
  116OSM   C16S12175   4.178  -0.250   8.970  0.0732  0.2591  0.4044
  116OSM   H16S12176   4.089  -0.192   9.001 -0.1420 -0.0842  0.4354
  116OSM   H16T12177   4.168  -0.358   8.994  2.2864 -0.5993 -2.0318
  116OSM   C17S12178   4.202  -0.260   8.820 -0.1594 -0.0250  0.1972
  116OSM   H17S12179   4.104  -0.296   8.782  0.1633 -0.3711 -0.3273
  116OSM   H17T12180   4.277  -0.338   8.796 -0.4329 -0.0967 -0.4338
  116OSM   C18S12181   4.234  -0.116   8.770 -0.0178 -0.0817  0.0155
  116OSM   H18S12182   4.226  -0.116   8.660  0.3655 -1.9934 -0.0475
  116OSM   H18T12183   4.336  -0.098   8.810  0.3944 -0.4313 -0.8635
  116OSM   H18U12184   4.151  -0.050   8.806 -0.5366 -0.0775 -1.1501
  116OSM    C1F12185   4.874   0.045  10.354 -0.2619 -0.9425  0.2879
  116OSM     OF12186   4.890  -0.034  10.444  0.2715  0.4804  0.2455
  116OSM    C2F12187   4.971   0.082  10.241  0.0416  0.1706 -0.3510
  116OSM    H2F12188   5.067   0.107  10.290  0.1850 -1.1842  0.0964
  116OSM    H2G12189   4.943   0.179  10.195  1.2550  0.5436 -0.3438
  116OSM    C3F12190   4.984  -0.015  10.115  0.2693 -0.4423 -0.8698
  116OSM    H3F12191   5.014  -0.115  10.153  2.2876 -0.0392 -1.2790
  116OSM    H3G12192   5.073   0.010  10.052  0.1309 -1.4195 -1.4721
  116OSM    C4F12193   4.864  -0.013  10.033  0.8445 -0.2585  0.5160
  116OSM    H4F12194   4.854   0.079   9.971  0.0179  0.6837  2.0002
  116OSM    H4G12195   4.772  -0.017  10.094 -0.1272  0.8579 -0.8115
  116OSM    C5F12196   4.845  -0.134   9.941 -0.7496  0.1902 -0.7469
  116OSM    H5F12197   4.758  -0.113   9.875 -0.2978  2.5537 -0.6625
  116OSM    H5G12198   4.835  -0.222  10.009 -1.2851  1.3553  0.7194
  116OSM    C6F12199   4.973  -0.154   9.858  0.5926 -0.6856  0.0732
  116OSM    H6F12200   5.040  -0.197   9.936 -0.2925 -0.1489  1.1518
  116OSM    H6G12201   5.008  -0.054   9.826  1.4598 -0.7318  0.8501
  116OSM    C7F12202   4.961  -0.246   9.738 -1.0913  0.0423  0.6972
  116OSM    H7F12203   4.921  -0.345   9.768 -0.0726 -0.5156  0.2457
  116OSM    H7G12204   5.061  -0.259   9.692 -2.1180 -0.4343 -1.5417
  116OSM    C8F12205   4.877  -0.186   9.624  0.1800 -0.4619  0.4931
  116OSM    H8F12206   4.929  -0.089   9.609  1.0879 -0.8360  1.1641
  116OSM    H8G12207   4.776  -0.169   9.666  0.2775  1.4855  0.0311
  116OSM    C9F12208   4.875  -0.272   9.500  0.3644 -0.3565 -0.1035
  116OSM    H9F12209   4.956  -0.346   9.505  0.5116 -0.5378 -3.2614
  116OSM   C10F12210   4.799  -0.277   9.388 -0.3098  0.3787 -0.5482
  116OSM   H10F12211   4.812  -0.356   9.313  0.6239 -0.6449  0.6546
  116OSM   C11F12212   4.682  -0.191   9.368 -0.3053  0.3762  0.2369
  116OSM   H11F12213   4.674  -0.106   9.439  0.6324  1.5843 -1.0756
  116OSM   H11G12214   4.592  -0.257   9.360  0.9969 -1.2606 -2.2232
  116OSM   C12F12215   4.691  -0.112   9.240 -0.1708 -0.8241 -0.6315
  116OSM   H12F12216   4.766  -0.030   9.243 -0.9316 -0.0731 -1.4233
  116OSM   H12G12217   4.601  -0.050   9.220 -0.6241 -1.0340  0.6534
  116OSM   C13F12218   4.723  -0.205   9.117  0.8292 -0.0422 -0.1908
  116OSM   H13F12219   4.678  -0.307   9.116  0.2520  0.2074 -1.0360
  116OSM   H13G12220   4.831  -0.231   9.119  1.0868  1.0433  0.2035
  116OSM   C14F12221   4.686  -0.115   8.995 -0.2600  0.2790 -0.3002
  116OSM   H14F12222   4.734  -0.015   9.003 -1.9105  0.9970  1.1572
  116OSM   H14G12223   4.575  -0.108   8.996 -0.4624 -1.8134 -1.0602
  116OSM   C15F12224   4.709  -0.178   8.853  0.3521 -0.0855  0.6633
  116OSM   H15F12225   4.815  -0.166   8.822  0.6379  2.5488  2.2917
  116OSM   H15G12226   4.643  -0.115   8.789  2.1727  2.0705  0.7487
  116OSM   C16F12227   4.662  -0.327   8.836 -0.1077 -0.5335  0.5904
  116OSM   H16F12228   4.630  -0.334   8.730  1.3002  1.3860 -0.0236
  116OSM   H16G12229   4.574  -0.348   8.901 -1.9088  1.1798 -1.1429
  116OSM   C17F12230   4.776  -0.421   8.854 -0.2762 -0.4838  0.0541
  116OSM   H17F12231   4.843  -0.403   8.941  0.2205  2.2167 -0.7896
  116OSM   H17G12232   4.842  -0.398   8.767 -2.7960  2.7963 -1.1832
  116OSM   C18F12233   4.730  -0.557   8.841  0.4834 -0.3376 -0.5330
  116OSM   H18F12234   4.657  -0.566   8.757 -1.9956 -0.6679  1.5417
  116OSM   H18G12235   4.668  -0.583   8.929  1.4860 -0.4847  0.1340
  116OSM   H18H12236   4.818  -0.620   8.816  2.0956  1.7677 -0.4939
  117OSM      N12237   1.388   0.698  10.744 -0.4683 -0.8680  0.7320
  117OSM    C1512238   1.527   0.732  10.794 -0.0660 -0.3499  0.9675
  117OSM   H15A12239   1.584   0.642  10.776 -0.8037 -0.9078  1.3496
  117OSM   H15B12240   1.527   0.728  10.902  2.0488 -0.9574  0.9955
  117OSM   H15C12241   1.585   0.813  10.752  0.5335 -0.9226  0.6861
  117OSM    C1412242   1.394   0.678  10.598  1.0645  0.6604 -0.1925
  117OSM   H14A12243   1.409   0.771  10.546  0.8574  1.1871  0.6770
  117OSM   H14B12244   1.308   0.631  10.553  0.8460 -1.7896  2.4663
  117OSM   H14C12245   1.485   0.621  10.583  0.7197  0.4287 -1.5169
  117OSM    C1312246   1.340   0.565  10.812 -1.2159  0.2937 -0.0121
  117OSM   H13A12247   1.281   0.498  10.752  1.0977 -1.3782 -0.5122
  117OSM   H13B12248   1.295   0.583  10.909  0.1054  0.6674  0.5487
  117OSM   H13C12249   1.419   0.495  10.831  0.1213  1.0610 -2.2829
  117OSM    C1212250   1.291   0.813  10.774 -0.2359 -0.0200  0.6750
  117OSM   H12A12251   1.302   0.822  10.881 -0.1590 -1.8340  0.8638
  117OSM   H12B12252   1.190   0.783  10.750 -0.0026 -0.3653  0.0946
  117OSM    C1112253   1.316   0.946  10.694 -0.4961  0.3458  0.5252
  117OSM   H11A12254   1.229   1.008  10.724 -0.0751  1.6561 -0.8009
  117OSM   H11B12255   1.307   0.931  10.584 -1.1095 -0.0765  0.6262
  117OSM      P12256   1.473   1.077  10.854 -0.1281 -0.1233 -0.4164
  117OSM    O1312257   1.370   1.028  10.948  0.3647  0.0081  0.1939
  117OSM    O1412258   1.616   1.058  10.884  0.2977  0.9029 -0.1413
  117OSM    O1112259   1.442   1.228  10.806  0.4523 -0.1180  0.1849
  117OSM    O1212260   1.446   0.999  10.726  0.4122 -0.0820  0.1712
  117OSM    C1S12261   1.502   1.302  10.697  0.2027  0.6286 -0.1070
  117OSM    H1S12262   1.593   1.245  10.666  1.4627  1.4680  1.8435
  117OSM    H1T12263   1.519   1.402  10.743 -1.4898  0.3904  1.1121
  117OSM     NF12264   1.476   1.401  10.472 -0.3539 -0.1123 -0.6668
  117OSM    HNF12265   1.433   1.490  10.468 -2.4391 -1.0348 -0.0072
  117OSM    C2S12266   1.410   1.312  10.572 -0.1058 -0.1528 -0.3936
  117OSM    H2S12267   1.390   1.209  10.535 -1.4778  0.8207 -2.5978
  117OSM    C3S12268   1.274   1.377  10.600  0.4825 -1.0754 -0.0871
  117OSM    H3S12269   1.296   1.479  10.637  1.2389 -1.1569 -0.2862
  117OSM     O312270   1.194   1.306  10.704  0.3114  0.2248 -0.0144
  117OSM    HO312271   1.248   1.232  10.731  2.8626  0.6456 -3.3331
  117OSM    C4S12272   1.191   1.403  10.468  0.4146  0.6624 -0.1065
  117OSM    H4S12273   1.205   1.497  10.412  0.8513  0.0558 -1.0571
  117OSM    C5S12274   1.101   1.312  10.416  0.9777 -0.2945 -0.5885
  117OSM    H5S12275   1.085   1.219  10.473  2.2258  0.3479  0.8555
  117OSM    C6S12276   1.023   1.313  10.290 -0.0506 -0.5098 -0.2928
  117OSM    H6S12277   1.031   1.409  10.235  0.9063 -0.2624  0.2544
  117OSM    H6T12278   0.913   1.304  10.302 -0.0643 -0.1885 -0.1586
  117OSM    C7S12279   1.061   1.208  10.187 -0.7296  0.5971  0.0787
  117OSM    H7S12280   1.044   1.111  10.238  2.0704  0.4395  0.8592
  117OSM    H7T12281   1.168   1.211  10.156 -1.1751  0.7580 -1.5818
  117OSM    C8S12282   0.980   1.216  10.057 -0.3615  0.6450  0.2565
  117OSM    H8S12283   1.012   1.309  10.005 -0.9035 -0.1431 -1.5814
  117OSM    H8T12284   0.870   1.218  10.074 -0.9805 -2.1308 -2.5135
  117OSM    C9S12285   1.010   1.097   9.961 -0.3287 -0.0827  0.4679
  117OSM    H9S12286   0.971   1.003  10.007 -2.0782  0.5931  0.4483
  117OSM    H9T12287   1.120   1.097   9.947 -0.0726  0.3263  2.1557
  117OSM   C10S12288   0.934   1.090   9.831 -0.0359  0.6598  0.1611
  117OSM   H10S12289   0.927   1.196   9.796 -0.4470  0.8468  0.7956
  117OSM   H10T12290   0.829   1.058   9.846 -0.6606  1.1616 -2.6070
  117OSM   C11S12291   1.003   0.992   9.734 -0.1606 -0.1165  0.4657
  117OSM   H11S12292   1.006   0.891   9.779 -5.4240 -0.4682  0.6282
  117OSM   H11T12293   1.108   1.029   9.726 -0.9468  1.9027 -2.2662
  117OSM   C12S12294   0.932   0.992   9.601  0.4140 -0.2103 -0.0702
  117OSM   H12S12295   0.930   1.095   9.559  0.8119  0.3541  1.2370
  117OSM   H12T12296   0.831   0.948   9.618  0.8379 -0.7437  1.1798
  117OSM   C13S12297   0.996   0.904   9.501  0.7109 -0.4211 -0.2273
  117OSM   H13S12298   0.979   0.795   9.512 -1.0170 -0.4942 -2.8184
  117OSM   H13T12299   1.104   0.928   9.490  0.3251  1.9671  0.5421
  117OSM   C14S12300   0.945   0.946   9.364  0.5548  0.5376 -0.2864
  117OSM   H14S12301   0.985   1.041   9.323 -0.4727  0.5916 -1.2498
  117OSM   H14T12302   0.837   0.971   9.373  0.5487  0.8531 -1.0917
  117OSM   C15S12303   0.965   0.840   9.253  0.7799  0.1354  0.0622
  117OSM   H15S12304   0.904   0.751   9.281 -0.6447  1.6609  2.1972
  117OSM   H15T12305   1.069   0.803   9.265  0.8453  0.7323  1.6472
  117OSM   C16S12306   0.925   0.892   9.122 -0.4440  0.3087  0.7057
  117OSM   H16S12307   0.902   1.000   9.119  0.7776  0.5580 -0.1671
  117OSM   H16T12308   0.828   0.848   9.091 -1.1945  2.3331  0.0515
  117OSM   C17S12309   1.028   0.854   9.013 -0.3315 -0.0099 -0.3181
  117OSM   H17S12310   1.123   0.904   9.043  0.4200 -1.3234 -0.4240
  117OSM   H17T12311   1.000   0.897   8.914 -2.0766 -0.3910 -0.0072
  117OSM   C18S12312   1.051   0.702   9.002  0.7331  0.4737 -0.6281
  117OSM   H18S12313   1.089   0.677   8.900 -0.1789 -0.1350 -0.8314
  117OSM   H18T12314   0.947   0.662   9.007  0.2053  1.9897  1.9453
  117OSM   H18U12315   1.105   0.647   9.082 -2.7073 -1.7742  0.3693
  117OSM    C1F12316   1.596   1.381  10.408  0.7397 -0.2815  0.0895
  117OSM     OF12317   1.645   1.274  10.400  0.2375  0.0707  0.5136
  117OSM    C2F12318   1.654   1.506  10.341  0.7167 -0.1076 -0.0370
  117OSM    H2F12319   1.751   1.535  10.385  0.1006  0.7333  0.7934
  117OSM    H2G12320   1.587   1.586  10.379  0.2198 -0.6044  0.1641
  117OSM    C3F12321   1.632   1.494  10.185 -0.2904  0.0100  0.2004
  117OSM    H3F12322   1.698   1.414  10.147 -0.9219  0.3012 -1.5868
  117OSM    H3G12323   1.682   1.576  10.129  1.7612 -1.1717  0.1811
  117OSM    C4F12324   1.494   1.467  10.135 -0.2396  0.4475 -0.2144
  117OSM    H4F12325   1.423   1.552  10.146  0.5703  0.9976  0.9305
  117OSM    H4G12326   1.443   1.389  10.196  2.1054 -2.0465 -1.2453
  117OSM    C5F12327   1.492   1.430   9.987 -0.9288  0.1221  0.2190
  117OSM    H5F12328   1.557   1.343   9.961 -0.6544  0.4125 -0.0581
  117OSM    H5G12329   1.508   1.518   9.922 -2.5429 -0.3634 -0.9200
  117OSM    C6F12330   1.354   1.389   9.938  0.3479 -0.3661  0.1784
  117OSM    H6F12331   1.283   1.465   9.977  0.6896  0.5528 -0.9151
  117OSM    H6G12332   1.328   1.286   9.971 -1.8437  0.1092  0.0766
  117OSM    C7F12333   1.336   1.396   9.782  0.4774 -0.4966  0.1716
  117OSM    H7F12334   1.409   1.340   9.719 -0.6795  0.0142 -1.7148
  117OSM    H7G12335   1.353   1.499   9.745 -1.8866 -0.5184 -1.1484
  117OSM    C8F12336   1.195   1.369   9.727 -0.0103 -0.1128 -0.2032
  117OSM    H8F12337   1.114   1.394   9.799 -2.5262 -2.5552 -1.9856
  117OSM    H8G12338   1.180   1.262   9.705 -0.3226 -0.3903  1.2240
  117OSM    C9F12339   1.155   1.436   9.606 -0.2320  0.0806  0.9266
  117OSM    H9F12340   1.149   1.371   9.518  0.4456 -0.1476  1.0453
  117OSM   C10F12341   1.122   1.567   9.600  0.4175 -0.1568 -0.6268
  117OSM   H10F12342   1.110   1.615   9.501 -1.7972 -1.1021 -0.8648
  117OSM   C11F12343   1.128   1.664   9.713  0.1707 -0.1466 -0.1633
  117OSM   H11F12344   1.185   1.756   9.686 -0.1776 -0.5427 -2.4818
  117OSM   H11G12345   1.182   1.630   9.804  3.1711  2.4184 -0.7847
  117OSM   C12F12346   0.987   1.704   9.752 -0.2178  1.0224 -0.2398
  117OSM   H12F12347   0.930   1.737   9.663 -0.4354  1.9618  0.2325
  117OSM   H12G12348   0.978   1.793   9.817 -1.3885 -0.0299  1.1076
  117OSM   C13F12349   0.906   1.595   9.825  0.7528  0.4316  0.0327
  117OSM   H13F12350   0.944   1.574   9.928  2.0890 -3.1869 -1.0458
  117OSM   H13G12351   0.911   1.503   9.762 -2.9126  1.3163 -1.8266
  117OSM   C14F12352   0.745   1.615   9.825 -0.2624 -0.3006 -0.5060
  117OSM   H14F12353   0.713   1.649   9.724 -3.8849  0.7040  0.8123
  117OSM   H14G12354   0.698   1.688   9.895 -1.3481 -0.6534 -0.8374
  117OSM   C15F12355   0.657   1.483   9.847 -0.1846  0.4501 -0.0549
  117OSM   H15F12356   0.706   1.407   9.784 -1.8643  0.6886 -1.7552
  117OSM   H15G12357   0.551   1.476   9.816 -0.3404 -2.1274  0.8506
  117OSM   C16F12358   0.673   1.432   9.987  0.5872  0.3002 -0.2739
  117OSM   H16F12359   0.632   1.492  10.071 -1.4327 -0.4475 -0.6712
  117OSM   H16G12360   0.778   1.411  10.016  1.2600  2.2538 -1.1049
  117OSM   C17F12361   0.584   1.303  10.001  0.0503 -0.6593 -0.2023
  117OSM   H17F12362   0.640   1.228   9.940  0.6267 -0.5015  0.1214
  117OSM   H17G12363   0.477   1.314   9.974 -0.0262 -0.8929  0.0024
  117OSM   C18F12364   0.572   1.250  10.147  0.7878  1.0379  0.0918
  117OSM   H18F12365   0.505   1.162  10.139  1.3675  0.6982 -1.1302
  117OSM   H18G12366   0.516   1.322  10.211  0.3195  1.5447 -0.8614
  117OSM   H18H12367   0.672   1.221  10.184  0.5759  0.2841  0.0906
  118OSM      N12368   0.809   2.097  10.656  0.1539 -0.5974 -0.2804
  118OSM    C1512369   0.945   2.112  10.725  0.0407 -0.2830  0.2500
  118OSM   H15A12370   0.948   2.031  10.798 -1.6162 -1.0270 -0.4668
  118OSM   H15B12371   0.963   2.209  10.769 -0.1808  0.1731 -0.6458
  118OSM   H15C12372   1.027   2.099  10.655  0.5200 -1.1309  0.9409
  118OSM    C1412373   0.791   1.953  10.602  0.6287  0.3371 -0.2888
  118OSM   H14A12374   0.790   1.886  10.687  0.9701  2.5586  1.5715
  118OSM   H14B12375   0.875   1.932  10.537  0.5112 -1.1629  0.0078
  118OSM   H14C12376   0.703   1.948  10.541  1.3787  1.1110 -1.4744
  118OSM    C1312377   0.706   2.136  10.749  0.1534 -0.4813 -0.0599
  118OSM   H13A12378   0.715   2.235  10.791  2.0622 -1.8431  3.0913
  118OSM   H13B12379   0.692   2.064  10.829 -0.9402 -1.3050 -0.9535
  118OSM   H13C12380   0.614   2.131  10.693  0.4790 -0.1904 -0.6262
  118OSM    C1212381   0.801   2.195  10.546  0.5021 -0.4533 -0.1583
  118OSM   H12A12382   0.818   2.291  10.592  2.5226 -0.0584 -1.6015
  118OSM   H12B12383   0.697   2.205  10.518  1.0776  1.4310 -1.8594
  118OSM    C1112384   0.886   2.188  10.413 -0.2685 -0.8517  0.3091
  118OSM   H11A12385   0.852   2.274  10.352  1.2149 -0.7811 -0.4733
  118OSM   H11B12386   0.855   2.099  10.353 -1.5775 -0.7806  0.8430
  118OSM      P12387   1.113   2.320  10.426 -0.1052 -0.5383 -0.2067
  118OSM    O1312388   1.078   2.407  10.538 -0.3972 -0.7081 -0.5820
  118OSM    O1412389   1.254   2.283  10.408 -0.0166 -0.4180 -0.7302
  118OSM    O1112390   1.058   2.393  10.290  0.1237 -0.1747 -0.3360
  118OSM    O1212391   1.028   2.190  10.442  0.4074  0.2699  0.6153
  118OSM    C1S12392   1.097   2.323  10.178 -0.0801 -0.8039  0.9201
  118OSM    H1S12393   1.049   2.223  10.166 -2.0443 -0.0137  1.7037
  118OSM    H1T12394   1.203   2.290  10.176 -0.2084 -1.1832 -0.2679
  118OSM     NF12395   1.071   2.324   9.931 -0.4462  0.5681  0.8464
  118OSM    HNF12396   1.118   2.352   9.847 -1.2751  1.1201  0.5598
  118OSM    C2S12397   1.077   2.406  10.049 -0.3628 -0.0966  0.6905
  118OSM    H2S12398   0.974   2.446  10.054 -0.0897  1.1620 -1.9908
  118OSM    C3S12399   1.173   2.519  10.046  0.0321 -0.8659  0.0489
  118OSM    H3S12400   1.261   2.471   9.999 -0.8628 -0.7313 -1.9010
  118OSM     O312401   1.218   2.580  10.174  0.4133  0.4363  0.5995
  118OSM    HO312402   1.173   2.528  10.241  1.0115 -0.6933  0.1474
  118OSM    C4S12403   1.127   2.628   9.947  0.2129  0.7659  0.3978
  118OSM    H4S12404   1.183   2.623   9.853  0.8622 -1.1909  0.8536
  118OSM    C5S12405   1.050   2.731   9.979 -0.4085  0.5211  0.5891
  118OSM    H5S12406   1.018   2.760  10.080  2.2876  0.4238  1.5665
  118OSM    C6S12407   1.011   2.823   9.867  0.4126  0.9545  0.4418
  118OSM    H6S12408   0.905   2.855   9.875 -1.5409 -4.1558 -0.9199
  118OSM    H6T12409   1.016   2.769   9.770  0.1614 -2.5245  2.2126
  118OSM    C7S12410   1.100   2.954   9.864  0.1725 -0.7012  0.5358
  118OSM    H7S12411   1.203   2.915   9.868 -0.1734 -1.6272  0.7043
  118OSM    H7T12412   1.097   3.013   9.958  0.6442 -2.3590  1.6363
  118OSM    C8S12413   1.076   3.041   9.739  0.6930 -0.0256 -0.6420
  118OSM    H8S12414   0.992   3.111   9.758  0.4073 -0.6738  0.6101
  118OSM    H8T12415   1.048   2.972   9.657 -0.9713  0.8996 -0.9060
  118OSM    C9S12416   1.196   3.133   9.706  0.2181  0.0992  0.0522
  118OSM    H9S12417   1.286   3.070   9.687  1.0398  0.0247  3.4802
  118OSM    H9T12418   1.216   3.196   9.796  2.7040 -1.0098  0.3654
  118OSM   C10S12419   1.155   3.214   9.586  0.5757  0.1485  0.7005
  118OSM   H10S12420   1.224   3.301   9.590  1.9825 -0.9408  1.0828
  118OSM   H10T12421   1.057   3.264   9.598  1.3947  1.7344  1.1145
  118OSM   C11S12422   1.173   3.152   9.448 -0.8209  0.0206 -0.3012
  118OSM   H11S12423   1.106   3.064   9.433 -1.2180  0.1129  0.8707
  118OSM   H11T12424   1.275   3.113   9.467 -1.1016  0.1714  1.7987
  118OSM   C12S12425   1.175   3.249   9.326 -0.5790  0.1387  0.1210
  118OSM   H12S12426   1.236   3.339   9.350  0.6566 -0.7891  0.5800
  118OSM   H12T12427   1.072   3.291   9.319  0.3418  2.3430 -2.0125
  118OSM   C13S12428   1.223   3.174   9.199  0.1417  0.1362  0.5387
  118OSM   H13S12429   1.241   3.069   9.228 -0.3242  0.1118  0.7433
  118OSM   H13T12430   1.324   3.215   9.177 -0.1799  1.9526  2.0705
  118OSM   C14S12431   1.138   3.165   9.076  0.5081 -0.6254 -0.5644
  118OSM   H14S12432   1.130   3.273   9.052  1.3096 -0.2160  0.8853
  118OSM   H14T12433   1.042   3.113   9.094  0.3980 -0.1500  0.2578
  118OSM   C15S12434   1.211   3.113   8.956 -0.0766  0.4244  0.6570
  118OSM   H15S12435   1.227   3.006   8.978  1.9340  0.7243  0.8095
  118OSM   H15T12436   1.316   3.149   8.953  1.1167 -2.7876  0.8704
  118OSM   C16S12437   1.139   3.130   8.817  0.5040 -0.5135 -0.6805
  118OSM   H16S12438   1.132   3.239   8.796 -2.1729  0.4921  4.0182
  118OSM   H16T12439   1.038   3.084   8.821  0.1021  0.2839 -1.3697
  118OSM   C17S12440   1.219   3.052   8.710  0.0177 -0.2069 -0.0013
  118OSM   H17S12441   1.158   3.062   8.618  1.8706 -1.3719 -1.4082
  118OSM   H17T12442   1.218   2.945   8.741 -0.1785 -0.1349  0.2503
  118OSM   C18S12443   1.354   3.120   8.694  0.6195  0.4226 -0.1112
  118OSM   H18S12444   1.397   3.107   8.592  0.4891  1.3271 -0.2950
  118OSM   H18T12445   1.422   3.073   8.768  0.6545 -0.4888 -0.7079
  118OSM   H18U12446   1.338   3.225   8.726  2.1914  0.2050  1.5864
  118OSM    C1F12447   0.976   2.228   9.927 -0.3855  0.1091  0.2279
  118OSM     OF12448   0.884   2.223  10.008 -1.3110  0.2030 -0.2469
  118OSM    C2F12449   0.990   2.141   9.808 -0.2684 -0.3181  0.2232
  118OSM    H2F12450   1.077   2.073   9.823 -0.5464 -0.4292  1.5211
  118OSM    H2G12451   1.008   2.208   9.722  0.0743 -0.1102  0.4510
  118OSM    C3F12452   0.872   2.055   9.772  0.1710  0.3489 -0.0065
  118OSM    H3F12453   0.860   1.976   9.849 -1.1828  2.9328  2.6564
  118OSM    H3G12454   0.897   2.012   9.673 -3.4507 -1.5036 -0.2542
  118OSM    C4F12455   0.736   2.126   9.745 -0.0054  0.0475  0.2327
  118OSM    H4F12456   0.716   2.189   9.834 -2.1363 -2.4743  1.6632
  118OSM    H4G12457   0.661   2.045   9.733  1.0307 -0.7710 -1.0745
  118OSM    C5F12458   0.733   2.201   9.612  0.3143  0.1091  0.1451
  118OSM    H5F12459   0.835   2.240   9.595  1.1636 -1.7266  0.7737
  118OSM    H5G12460   0.662   2.286   9.626  0.3263  0.0372  0.6771
  118OSM    C6F12461   0.694   2.106   9.493 -0.4121  0.3413 -0.0112
  118OSM    H6F12462   0.589   2.070   9.505  0.5046 -2.7577 -0.4242
  118OSM    H6G12463   0.746   2.008   9.499  0.1225  0.6364  0.1653
  118OSM    C7F12464   0.701   2.172   9.358  0.1257  0.3423  0.7200
  118OSM    H7F12465   0.671   2.279   9.364  1.0888  0.7094 -0.4210
  118OSM    H7G12466   0.624   2.133   9.288  2.2342  1.5723 -2.5453
  118OSM    C8F12467   0.841   2.151   9.284  0.2028  0.2897 -0.4759
  118OSM    H8F12468   0.850   2.041   9.286  0.0617  0.0902 -4.2305
  118OSM    H8G12469   0.926   2.207   9.330  1.2749 -1.4119 -0.3123
  118OSM    C9F12470   0.831   2.193   9.142  0.5008 -0.8975 -0.2860
  118OSM    H9F12471   0.895   2.281   9.123 -1.1348  0.5613  0.6626
  118OSM   C10F12472   0.772   2.131   9.037  0.3962  0.5331  0.5139
  118OSM   H10F12473   0.780   2.170   8.935  1.3496 -1.7059 -0.3276
  118OSM   C11F12474   0.687   2.005   9.037 -0.0831  0.2559 -0.2944
  118OSM   H11F12475   0.585   2.021   8.996 -0.4920  1.4854  1.1099
  118OSM   H11G12476   0.661   1.979   9.142 -0.3297  0.7671 -0.2219
  118OSM   C12F12477   0.755   1.882   8.988  0.2790  0.1709  0.1183
  118OSM   H12F12478   0.683   1.798   8.998 -1.7980  1.7305 -0.9787
  118OSM   H12G12479   0.836   1.866   9.062 -1.7812  0.7297  2.6256
  118OSM   C13F12480   0.812   1.892   8.848 -0.4012 -0.0721  0.1395
  118OSM   H13F12481   0.858   1.795   8.820 -2.8321 -1.4052  0.5009
  118OSM   H13G12482   0.886   1.974   8.834 -0.6677  0.0270 -0.8001
  118OSM   C14F12483   0.707   1.908   8.734 -0.5147 -0.5304 -0.9582
  118OSM   H14F12484   0.671   2.011   8.715 -0.5587 -0.6307 -1.4433
  118OSM   H14G12485   0.613   1.861   8.771 -0.5849  1.6789  2.0090
  118OSM   C15F12486   0.751   1.860   8.595 -0.0041 -0.4695 -0.6178
  118OSM   H15F12487   0.783   1.754   8.605  1.5236  0.0705  0.5250
  118OSM   H15G12488   0.833   1.926   8.560 -0.5924  0.2867 -0.5988
  118OSM   C16F12489   0.638   1.861   8.492  0.8055  0.3139  0.2449
  118OSM   H16F12490   0.564   1.792   8.536  2.2228 -0.7787  0.9939
  118OSM   H16G12491   0.666   1.802   8.402  0.5552 -0.4905  0.6868
  118OSM   C17F12492   0.585   2.002   8.457 -0.2379 -0.5310  0.2692
  118OSM   H17F12493   0.577   2.062   8.551  1.0800 -1.2959  0.9055
  118OSM   H17G12494   0.488   1.999   8.405 -0.4058  1.4294  0.3717
  118OSM   C18F12495   0.690   2.071   8.365  0.0291  0.3136  0.4047
  118OSM   H18F12496   0.672   2.038   8.260  0.9473  2.2460 -0.4137
  118OSM   H18G12497   0.793   2.040   8.391 -0.2910 -1.6302 -0.4246
  118OSM   H18H12498   0.679   2.181   8.362  1.2189  0.4911  1.8629
  119OSM      N12499   2.715   2.165  10.622  0.1358 -0.4253  0.5075
  119OSM    C1512500   2.827   2.261  10.645 -0.2847 -0.2133 -0.1005
  119OSM   H15A12501   2.917   2.228  10.595  0.7756  0.5374  1.2268
  119OSM   H15B12502   2.855   2.244  10.748  2.7971 -1.5750 -1.0422
  119OSM   H15C12503   2.796   2.363  10.628  1.8055  0.9568  2.3539
  119OSM    C1412504   2.739   2.039  10.680  0.0190  0.0342 -0.4040
  119OSM   H14A12505   2.649   1.981  10.665  0.8004 -0.9879 -1.2477
  119OSM   H14B12506   2.762   2.042  10.786 -3.7124  1.9493  0.5334
  119OSM   H14C12507   2.822   1.990  10.632 -0.1465 -0.9834  0.3152
  119OSM    C1312508   2.606   2.231  10.692  0.1772  0.2888 -0.4500
  119OSM   H13A12509   2.641   2.268  10.787  0.0007  0.9917 -0.6543
  119OSM   H13B12510   2.515   2.173  10.696 -0.0910  0.3798 -3.1176
  119OSM   H13C12511   2.573   2.312  10.628 -2.2296 -0.4093 -0.1939
  119OSM    C1212512   2.692   2.154  10.469  0.3130  0.3772 -0.3952
  119OSM   H12A12513   2.788   2.121  10.430 -0.7311 -1.2225 -1.8059
  119OSM   H12B12514   2.677   2.252  10.427 -1.1466  1.3011  2.0902
  119OSM    C1112515   2.572   2.064  10.422  1.0167 -0.3596  0.0472
  119OSM   H11A12516   2.596   1.961  10.456  1.9619 -0.0644  0.3254
  119OSM   H11B12517   2.565   2.057  10.311  2.5884 -0.2336 -0.0892
  119OSM      P12518   2.340   2.200  10.424 -0.3146  0.0936 -0.1135
  119OSM    O1312519   2.204   2.178  10.482  0.0403  0.4315  0.2103
  119OSM    O1412520   2.369   2.339  10.433 -0.2876  0.1243 -0.4748
  119OSM    O1112521   2.337   2.163  10.270 -0.4092  0.0727 -0.0937
  119OSM    O1212522   2.453   2.112  10.486  0.0707  0.7871 -0.0465
  119OSM    C1S12523   2.390   2.252  10.184  0.1700 -0.4330  0.2674
  119OSM    H1S12524   2.496   2.278  10.206  0.8657 -1.2110 -1.8903
  119OSM    H1T12525   2.333   2.347  10.186 -0.1165 -0.4677 -2.2708
  119OSM     NF12526   2.414   2.330   9.954 -0.2582  0.3590 -0.2593
  119OSM    HNF12527   2.343   2.377   9.902 -0.8364  0.7083  0.8349
  119OSM    C2S12528   2.375   2.212  10.032 -0.6318 -0.5939 -0.1360
  119OSM    H2S12529   2.452   2.137  10.005  0.4420  0.9491 -1.6118
  119OSM    C3S12530   2.231   2.161  10.000 -0.1945  0.3353 -0.2217
  119OSM    H3S12531   2.163   2.248  10.014  0.4664  1.3411 -2.6817
  119OSM     O312532   2.180   2.069  10.084  0.3104 -0.1991 -0.0184
  119OSM    HO312533   2.243   2.078  10.156  2.3683  1.5703 -1.8766
  119OSM    C4S12534   2.208   2.123   9.852  0.1794  0.6634  0.3929
  119OSM    H4S12535   2.206   2.205   9.779  1.5983 -0.8683 -1.4473
  119OSM    C5S12536   2.209   2.000   9.800 -0.7047 -0.3656 -0.1810
  119OSM    H5S12537   2.223   1.907   9.857 -1.8867  0.3290  1.3176
  119OSM    C6S12538   2.194   1.971   9.657  1.2539 -0.2710  0.5522
  119OSM    H6S12539   2.104   1.907   9.665 -0.0986  1.2485 -1.5243
  119OSM    H6T12540   2.274   1.907   9.614  1.1953 -0.4065  0.6445
  119OSM    C7S12541   2.183   2.085   9.556 -0.1143 -0.3646 -0.0834
  119OSM    H7S12542   2.264   2.160   9.559  0.6408 -1.1890  1.0478
  119OSM    H7T12543   2.092   2.148   9.566  0.7904  1.1291 -1.0017
  119OSM    C8S12544   2.179   2.016   9.416  1.4188  0.3585 -0.3527
  119OSM    H8S12545   2.099   1.940   9.407 -0.4083  2.3180 -1.4260
  119OSM    H8T12546   2.271   1.954   9.406  0.8226 -0.8001  1.0326
  119OSM    C9S12547   2.149   2.118   9.307  0.4584 -0.2762  0.1117
  119OSM    H9S12548   2.228   2.196   9.300  0.1399 -0.0784 -1.6676
  119OSM    H9T12549   2.059   2.181   9.321  0.2805 -0.6031  0.4688
  119OSM   C10S12550   2.145   2.050   9.168 -0.1886  0.6960  0.3187
  119OSM   H10S12551   2.056   1.985   9.160  0.0069  0.6770 -3.0820
  119OSM   H10T12552   2.227   1.976   9.159 -0.5436  0.1365  1.4978
  119OSM   C11S12553   2.135   2.142   9.041  0.3803 -0.3497  0.4297
  119OSM   H11S12554   2.229   2.200   9.030 -0.6186  1.2107 -0.1987
  119OSM   H11T12555   2.051   2.215   9.047  1.1351  0.5626  0.1448
  119OSM   C12S12556   2.123   2.055   8.913  0.0623 -0.0163 -1.2774
  119OSM   H12S12557   2.035   1.989   8.929 -1.3514  2.2019  0.8563
  119OSM   H12T12558   2.216   1.997   8.899  0.1829 -0.1333 -0.0504
  119OSM   C13S12559   2.108   2.144   8.788 -1.0959 -0.4638  0.6046
  119OSM   H13S12560   2.206   2.189   8.764 -0.1861 -0.7766  3.4009
  119OSM   H13T12561   2.035   2.228   8.797  3.7926  4.4944 -0.5420
  119OSM   C14S12562   2.060   2.051   8.670  0.2783  0.1443 -0.9436
  119OSM   H14S12563   1.951   2.043   8.693  0.5300 -3.5014 -0.3699
  119OSM   H14T12564   2.108   1.952   8.684  1.5803  0.6631 -1.6086
  119OSM   C15S12565   2.072   2.105   8.530 -0.4443 -0.7950  0.9866
  119OSM   H15S12566   2.083   2.215   8.534  0.1616 -0.6080 -2.3344
  119OSM   H15T12567   1.977   2.097   8.473  0.2984 -0.4267 -0.3479
  119OSM   C16S12568   2.175   2.042   8.440 -0.2816 -0.7614  0.0712
  119OSM   H16S12569   2.171   2.090   8.340 -0.4729  0.0425  0.4502
  119OSM   H16T12570   2.156   1.933   8.434  0.0767 -0.8951  1.1203
  119OSM   C17S12571   2.312   2.054   8.499 -0.6407 -0.9856 -0.0865
  119OSM   H17S12572   2.383   1.990   8.443  1.1623 -0.3188  1.3554
  119OSM   H17T12573   2.323   2.004   8.598  1.1829 -1.0408 -0.2787
  119OSM   C18S12574   2.375   2.193   8.495 -0.1713 -0.0762  0.1774
  119OSM   H18S12575   2.356   2.238   8.395 -2.9579  2.7134  1.7673
  119OSM   H18T12576   2.483   2.201   8.518 -0.7227 -0.9145  3.7751
  119OSM   H18U12577   2.323   2.264   8.564 -1.3910 -1.1691  0.4283
  119OSM    C1F12578   2.548   2.357   9.932  0.2634  0.0746  0.1230
  119OSM     OF12579   2.641   2.283   9.967  0.4022  0.8833  0.1760
  119OSM    C2F12580   2.575   2.480   9.858  0.2694 -0.3356 -0.3364
  119OSM    H2F12581   2.637   2.547   9.920  1.3203 -2.7542  1.3848
  119OSM    H2G12582   2.477   2.528   9.836  0.7326  1.8704  1.9362
  119OSM    C3F12583   2.647   2.448   9.725 -0.5657 -0.1133 -0.8645
  119OSM    H3F12584   2.755   2.436   9.747 -0.9361  0.9418  2.0137
  119OSM    H3G12585   2.642   2.539   9.662 -0.2038  0.4925 -0.0424
  119OSM    C4F12586   2.589   2.332   9.646  0.1263 -0.2128  0.1151
  119OSM    H4F12587   2.482   2.316   9.673 -0.0782  0.5814 -0.1944
  119OSM    H4G12588   2.632   2.237   9.684 -0.4036  0.4441  2.5312
  119OSM    C5F12589   2.604   2.348   9.494  0.6611 -0.4447  0.1236
  119OSM    H5F12590   2.590   2.250   9.444 -1.0041  0.5218 -1.4344
  119OSM    H5G12591   2.707   2.382   9.471 -0.3880  2.8893 -0.2279
  119OSM    C6F12592   2.500   2.446   9.434 -0.3840  0.1650 -0.7217
  119OSM    H6F12593   2.491   2.526   9.510  0.4171 -0.6617  0.2793
  119OSM    H6G12594   2.394   2.411   9.434 -0.9914  1.9233 -0.7642
  119OSM    C7F12595   2.549   2.508   9.301  0.7796  0.3156  0.2338
  119OSM    H7F12596   2.660   2.511   9.298  0.8036 -0.8258 -0.4217
  119OSM    H7G12597   2.510   2.612   9.293 -2.0027 -0.4625  2.3773
  119OSM    C8F12598   2.489   2.441   9.179 -0.0297 -0.1593  0.3401
  119OSM    H8F12599   2.444   2.529   9.128  3.5775  1.5751 -0.1895
  119OSM    H8G12600   2.400   2.375   9.191 -0.5324  0.8078  2.6317
  119OSM    C9F12601   2.591   2.361   9.104 -0.2939 -0.2384 -0.0579
  119OSM    H9F12602   2.633   2.276   9.159 -2.2923 -2.8349 -2.2318
  119OSM   C10F12603   2.618   2.375   8.970  0.2095 -0.0165 -0.2913
  119OSM   H10F12604   2.694   2.315   8.919  0.9768  1.5330 -1.0268
  119OSM   C11F12605   2.535   2.472   8.893  0.5306  0.0194  0.6575
  119OSM   H11F12606   2.582   2.573   8.898  2.0192 -0.6510  0.6760
  119OSM   H11G12607   2.434   2.481   8.940  0.0803 -1.3511  0.0081
  119OSM   C12F12608   2.534   2.434   8.740 -0.6974  0.2962 -0.5402
  119OSM   H12F12609   2.507   2.327   8.725  2.8191 -0.8120 -0.0368
  119OSM   H12G12610   2.638   2.441   8.700 -0.7544 -0.6272 -0.8818
  119OSM   C13F12611   2.443   2.522   8.665 -0.6863 -0.1743  0.1536
  119OSM   H13F12612   2.381   2.581   8.737  0.4997  1.5198 -0.1387
  119OSM   H13G12613   2.376   2.457   8.605  0.2967 -0.9610 -0.1015
  119OSM   C14F12614   2.510   2.630   8.577  0.6776  0.4501  0.0410
  119OSM   H14F12615   2.597   2.678   8.628 -1.3320  3.5431  0.7825
  119OSM   H14G12616   2.430   2.701   8.551  0.9738  1.8878  2.6768
  119OSM   C15F12617   2.574   2.570   8.443 -0.6340 -0.2196 -0.2399
  119OSM   H15F12618   2.506   2.504   8.385 -0.3733 -0.8886  0.2098
  119OSM   H15G12619   2.651   2.501   8.484 -0.2618  1.5866  2.3529
  119OSM   C16F12620   2.633   2.675   8.345 -1.1593  0.1834 -0.1608
  119OSM   H16F12621   2.692   2.622   8.267 -1.7523  0.8953 -1.1106
  119OSM   H16G12622   2.689   2.749   8.406 -3.0693  0.1047  1.8556
  119OSM   C17F12623   2.530   2.771   8.283 -0.3772 -0.4668  0.6919
  119OSM   H17F12624   2.474   2.832   8.358 -0.6041 -0.6777  0.6950
  119OSM   H17G12625   2.461   2.710   8.221  1.2594 -4.3056  2.3853
  119OSM   C18F12626   2.590   2.878   8.193 -0.6663 -0.0569  0.0846
  119OSM   H18F12627   2.649   2.843   8.106 -1.3251  2.8036 -1.6457
  119OSM   H18G12628   2.666   2.932   8.253 -0.3098 -0.6731  0.1932
  119OSM   H18H12629   2.522   2.956   8.150  1.6895  1.4203 -1.1757
  120OSM      N12630   2.801   4.279  10.501  0.3446  0.3534  0.0029
  120OSM    C1512631   2.813   4.265  10.350 -0.7803  0.4278 -0.2597
  120OSM   H15A12632   2.892   4.328  10.311 -0.7107  0.8658  0.5633
  120OSM   H15B12633   2.723   4.293  10.299  0.0045  1.4774 -1.1177
  120OSM   H15C12634   2.844   4.164  10.332  1.2480  1.1762 -1.3112
  120OSM    C1412635   2.693   4.188  10.554  0.7157  0.1907  0.3640
  120OSM   H14A12636   2.715   4.085  10.527  0.2221 -0.5965  2.7434
  120OSM   H14B12637   2.597   4.209  10.510  1.2671 -1.6441 -1.9205
  120OSM   H14C12638   2.682   4.187  10.661 -3.7661 -1.2099  0.1151
  120OSM    C1312639   2.932   4.241  10.563  0.3569 -0.4168  0.1644
  120OSM   H13A12640   3.018   4.297  10.529 -1.1065  2.6218  1.1161
  120OSM   H13B12641   2.956   4.138  10.538 -2.5191 -1.1434 -0.0131
  120OSM   H13C12642   2.932   4.235  10.670 -0.9506 -1.4395  0.1424
  120OSM    C1212643   2.767   4.418  10.535  0.3251  0.8147  0.0029
  120OSM   H12A12644   2.675   4.457  10.494  0.7718  0.5475 -1.3211
  120OSM   H12B12645   2.839   4.484  10.490 -1.3397  2.7851  0.0912
  120OSM    C1112646   2.743   4.449  10.687 -0.6372 -0.1442  0.1511
  120OSM   H11A12647   2.663   4.391  10.738  0.9968 -1.2349  1.5740
  120OSM   H11B12648   2.704   4.553  10.686  2.0187  0.9411  0.8019
  120OSM      P12649   2.934   4.592  10.790  0.1048  0.3708  0.0979
  120OSM    O1312650   2.839   4.666  10.878 -0.0077  0.0029 -0.1980
  120OSM    O1412651   3.073   4.569  10.826 -0.3291 -0.4749 -0.1543
  120OSM    O1112652   2.913   4.671  10.650  0.6534  0.4236  0.8035
  120OSM    O1212653   2.855   4.457  10.768  0.5943  0.3658  0.5073
  120OSM    C1S12654   3.004   4.669  10.544  0.1333  0.4660  0.1479
  120OSM    H1S12655   3.019   4.561  10.521  0.7476  0.3086  1.2233
  120OSM    H1T12656   3.097   4.727  10.564  0.7566 -0.9685  1.6107
  120OSM     NF12657   3.051   4.721  10.304  1.0601  0.1542  0.0335
  120OSM    HNF12658   3.105   4.804  10.291  2.0645 -0.0872  2.2370
  120OSM    C2S12659   2.954   4.730  10.416 -0.2385 -0.0770  0.3394
  120OSM    H2S12660   2.871   4.667  10.377 -0.3760  1.9466 -3.0504
  120OSM    C3S12661   2.904   4.873  10.433 -0.0345  0.3092 -0.6003
  120OSM    H3S12662   2.997   4.927  10.460  0.5922 -0.0256 -2.0130
  120OSM     O312663   2.808   4.887  10.536 -0.0253 -0.0695 -0.6335
  120OSM    HO312664   2.802   4.797  10.569  0.2741  0.3893  0.6895
  120OSM    C4S12665   2.847   4.940  10.308  0.0097  0.3890 -0.3382
  120OSM    H4S12666   2.768   4.880  10.260 -0.5558  0.9396 -0.1082
  120OSM    C5S12667   2.879   5.063  10.261 -1.1419  0.1069 -0.3409
  120OSM    H5S12668   2.958   5.115  10.317 -1.3400 -0.8488  0.8626
  120OSM    C6S12669   2.844   5.121  10.126 -0.1608 -0.2726  1.0024
  120OSM    H6S12670   2.937   5.124  10.066  0.0204 -0.2842  1.2837
  120OSM    H6T12671   2.806   5.225  10.139  0.5623  0.4967 -2.1244
  120OSM    C7S12672   2.768   5.036  10.019  0.5988  0.1902 -0.0540
  120OSM    H7S12673   2.681   5.003  10.079  0.4564 -0.3526 -0.5477
  120OSM    H7T12674   2.817   4.941   9.988  1.7327  0.5701  0.5089
  120OSM    C8S12675   2.736   5.119   9.899 -0.5445  0.7499 -0.1137
  120OSM    H8S12676   2.815   5.180   9.851 -1.6365 -0.1906 -3.3785
  120OSM    H8T12677   2.652   5.186   9.928 -0.2408  0.5918  1.1827
  120OSM    C9S12678   2.693   5.036   9.775  0.3406  0.2758  0.1004
  120OSM    H9S12679   2.619   4.961   9.810 -0.4195  0.3768 -1.2317
  120OSM    H9T12680   2.778   4.980   9.731  0.1027 -0.1163  0.1365
  120OSM   C10S12681   2.621   5.132   9.680 -0.1795 -0.2532  0.7292
  120OSM   H10S12682   2.622   5.105   9.572  1.5767  1.4276  0.2695
  120OSM   H10T12683   2.680   5.226   9.671 -1.9636  0.6981 -2.5489
  120OSM   C11S12684   2.479   5.157   9.723  0.1471 -0.0231  0.0940
  120OSM   H11S12685   2.473   5.190   9.829 -1.9135  0.0548 -0.0212
  120OSM   H11T12686   2.407   5.075   9.705  2.8406 -2.9713  1.7196
  120OSM   C12S12687   2.430   5.269   9.634  0.2716 -0.1733 -0.2136
  120OSM   H12S12688   2.512   5.326   9.586 -0.6895 -0.8734 -2.8482
  120OSM   H12T12689   2.362   5.331   9.696  0.6063  0.3234 -0.3387
  120OSM   C13S12690   2.344   5.215   9.519  0.1945  0.3194  0.1341
  120OSM   H13S12691   2.279   5.297   9.482 -1.0666 -0.7916 -0.2346
  120OSM   H13T12692   2.281   5.138   9.569 -0.5344  1.2329  0.6346
  120OSM   C14S12693   2.417   5.170   9.391  0.6564  0.4076 -1.0711
  120OSM   H14S12694   2.492   5.091   9.411 -1.2511 -0.7843  2.3152
  120OSM   H14T12695   2.460   5.263   9.348 -3.1812  2.5725 -0.6800
  120OSM   C15S12696   2.311   5.122   9.280  0.2221 -0.5207 -1.0242
  120OSM   H15S12697   2.231   5.197   9.265  1.3950  0.6254 -1.6898
  120OSM   H15T12698   2.264   5.026   9.310  0.4549 -0.6947 -1.2088
  120OSM   C16S12699   2.379   5.094   9.148 -0.5787 -0.1142  0.3876
  120OSM   H16S12700   2.469   5.030   9.165 -0.7701 -1.9706 -4.2235
  120OSM   H16T12701   2.428   5.186   9.109 -2.0538  0.5663  0.0840
  120OSM   C17S12702   2.276   5.043   9.048 -0.6217 -0.1920 -0.0171
  120OSM   H17S12703   2.203   5.124   9.028  0.4726  0.5146 -1.2506
  120OSM   H17T12704   2.236   4.948   9.091  0.7659 -0.8034 -0.0400
  120OSM   C18S12705   2.334   5.009   8.906  0.1548  0.5292 -0.0729
  120OSM   H18S12706   2.392   5.092   8.861 -0.9074  1.6963  0.6306
  120OSM   H18T12707   2.250   4.974   8.843  0.1534 -0.5784  0.5172
  120OSM   H18U12708   2.400   4.921   8.920  1.0067  1.3785  1.7554
  120OSM    C1F12709   3.070   4.602  10.241 -0.3716 -0.5680  0.1293
  120OSM     OF12710   3.012   4.499  10.275  0.2590 -0.5037 -0.0895
  120OSM    C2F12711   3.173   4.600  10.125 -0.0628  0.0331  0.2295
  120OSM    H2F12712   3.238   4.690  10.120  0.3420 -0.3226 -1.4498
  120OSM    H2G12713   3.114   4.606  10.031 -1.4374  2.1362  1.1481
  120OSM    C3F12714   3.267   4.473  10.122  0.1441  0.6836  0.6646
  120OSM    H3F12715   3.207   4.380  10.117  0.0017  0.7923  0.3562
  120OSM    H3G12716   3.331   4.465  10.213  1.4608 -1.9259 -0.3628
  120OSM    C4F12717   3.354   4.472   9.991  0.7095  0.1654  0.0448
  120OSM    H4F12718   3.458   4.451  10.023  0.8898 -0.4311 -0.8904
  120OSM    H4G12719   3.343   4.572   9.944 -1.8562  2.0025  4.0387
  120OSM    C5F12720   3.306   4.356   9.904 -0.5274 -0.4289 -0.1502
  120OSM    H5F12721   3.196   4.351   9.891 -0.6283  0.8217  0.1257
  120OSM    H5G12722   3.328   4.256   9.947 -0.9398 -0.9252 -1.0531
  120OSM    C6F12723   3.364   4.368   9.765 -0.9056  0.1095 -0.5378
  120OSM    H6F12724   3.473   4.370   9.784 -0.7559 -2.3750 -0.8405
  120OSM    H6G12725   3.333   4.458   9.708  0.8172 -1.1883 -3.7721
  120OSM    C7F12726   3.339   4.249   9.669  0.5151  0.0925 -0.6547
  120OSM    H7F12727   3.240   4.275   9.626  0.0818 -0.6858 -0.1444
  120OSM    H7G12728   3.346   4.150   9.718 -0.2438 -0.0171 -0.7555
  120OSM    C8F12729   3.441   4.238   9.555  0.5457 -0.4299 -0.3831
  120OSM    H8F12730   3.541   4.199   9.583 -0.5224 -1.8609  1.7462
  120OSM    H8G12731   3.462   4.342   9.525 -0.9668 -0.4767 -1.7656
  120OSM    C9F12732   3.369   4.163   9.450  0.8794 -0.1930 -0.2514
  120OSM    H9F12733   3.264   4.190   9.436  1.2214  2.0238  0.9216
  120OSM   C10F12734   3.427   4.076   9.366 -0.2542  0.0462 -0.6777
  120OSM   H10F12735   3.359   4.017   9.302  1.2873 -1.6043 -0.8690
  120OSM   C11F12736   3.563   4.017   9.369  0.6566 -0.2693 -0.2390
  120OSM   H11F12737   3.614   4.035   9.465 -0.3332  2.7439 -0.1380
  120OSM   H11G12738   3.635   4.059   9.295  1.9314 -0.1798  1.0337
  120OSM   C12F12739   3.538   3.864   9.344  0.2415 -0.6470 -0.5630
  120OSM   H12F12740   3.633   3.806   9.339  0.9872  0.5071 -0.0981
  120OSM   H12G12741   3.492   3.862   9.242 -0.8976 -4.9372 -0.1805
  120OSM   C13F12742   3.440   3.788   9.431  0.1655 -0.5323  0.1355
  120OSM   H13F12743   3.441   3.678   9.412 -2.8759 -1.2249  3.0068
  120OSM   H13G12744   3.334   3.817   9.418  1.0471  2.7674 -0.3951
  120OSM   C14F12745   3.477   3.792   9.581 -0.1621 -0.4405 -0.3166
  120OSM   H14F12746   3.445   3.893   9.612 -1.1309 -0.7426 -0.3053
  120OSM   H14G12747   3.587   3.778   9.586 -0.2380 -1.5901 -1.3613
  120OSM   C15F12748   3.410   3.682   9.673 -0.4625  0.5171 -0.1449
  120OSM   H15F12749   3.432   3.586   9.621 -0.0767  0.8883 -0.6747
  120OSM   H15G12750   3.300   3.694   9.658 -0.0468  1.6068 -3.1388
  120OSM   C16F12751   3.447   3.667   9.816 -0.0441 -0.1355  0.5899
  120OSM   H16F12752   3.467   3.761   9.872 -0.2411 -0.1746  0.7228
  120OSM   H16G12753   3.547   3.619   9.812 -0.6233 -1.3138 -1.4196
  120OSM   C17F12754   3.364   3.565   9.883 -0.1030  0.5108  0.6103
  120OSM   H17F12755   3.260   3.605   9.880  0.0250  0.8521  0.7755
  120OSM   H17G12756   3.388   3.558   9.991 -1.2352  0.6375  0.8921
  120OSM   C18F12757   3.387   3.431   9.826  0.0725  0.4629  0.8771
  120OSM   H18F12758   3.340   3.420   9.726  0.0874  1.0172  0.8063
  120OSM   H18G12759   3.343   3.361   9.900 -0.2007  1.1521  1.3804
  120OSM   H18H12760   3.496   3.414   9.818  0.0332  0.3475  0.5668
  121OSM      N12761   0.389   0.858  16.261 -0.5683  0.0104  0.8717
  121OSM    C1512762   0.345   0.764  16.151  0.4119  0.7734  0.3318
  121OSM   H15A12763   0.405   0.675  16.140  0.7028  1.2340 -2.2501
  121OSM   H15B12764   0.354   0.807  16.053  1.6884  1.1476  0.5943
  121OSM   H15C12765   0.245   0.724  16.165  1.0935 -0.6595  1.3240
  121OSM    C1412766   0.382   0.796  16.399 -0.1930 -0.2586 -0.3783
  121OSM   H14A12767   0.289   0.743  16.410 -0.4791  0.4495  0.8275
  121OSM   H14B12768   0.383   0.880  16.467 -2.7268  2.2785 -3.1907
  121OSM   H14C12769   0.453   0.723  16.435 -0.9532 -1.0364 -0.4263
  121OSM    C1312770   0.530   0.906  16.240 -0.1038  0.1137  0.1207
  121OSM   H13A12771   0.597   0.821  16.234 -1.2687 -0.7268 -3.7157
  121OSM   H13B12772   0.565   0.974  16.317 -2.6100  1.2398  0.3848
  121OSM   H13C12773   0.540   0.957  16.146 -1.1984  2.1018  1.0206
  121OSM    C1212774   0.293   0.982  16.250 -0.2934  0.4295 -0.4905
  121OSM   H12A12775   0.191   0.948  16.266  0.4730 -2.1179 -0.5977
  121OSM   H12B12776   0.308   1.019  16.150 -0.8961  1.1674 -0.3212
  121OSM    C1112777   0.306   1.098  16.345 -0.0714 -0.4965 -0.5393
  121OSM   H11A12778   0.261   1.191  16.303 -0.3592 -0.7189 -0.7172
  121OSM   H11B12779   0.413   1.128  16.354  0.0606 -0.3264 -2.3278
  121OSM      P12780   0.110   1.097  16.523 -0.4218  0.3640  0.0839
  121OSM    O1312781   0.022   1.044  16.420 -0.3627  0.1716 -0.1822
  121OSM    O1412782   0.091   1.063  16.668 -0.5617  0.7109  0.3523
  121OSM    O1112783   0.112   1.256  16.517  0.1409  0.8803  0.3160
  121OSM    O1212784   0.258   1.058  16.475 -0.3681 -0.9517 -0.4409
  121OSM    C1S12785   0.190   1.339  16.604 -0.0760  0.2034 -0.3840
  121OSM    H1S12786   0.213   1.289  16.700 -2.2240 -0.7607 -0.3160
  121OSM    H1T12787   0.146   1.435  16.639 -0.3362 -0.1344  0.2217
  121OSM     NF12788   0.403   1.453  16.652 -0.0785  0.3264  0.2802
  121OSM    HNF12789   0.423   1.550  16.640 -1.3607  0.4644 -1.0909
  121OSM    C2S12790   0.323   1.391  16.551  0.0774  0.1340  0.4008
  121OSM    H2S12791   0.374   1.296  16.524  0.7029  0.9266 -1.3751
  121OSM    C3S12792   0.303   1.482  16.426  0.6683 -0.8433 -0.8447
  121OSM    H3S12793   0.280   1.584  16.465  2.2454 -0.3109 -1.2274
  121OSM     O312794   0.197   1.447  16.340  0.1885 -0.5609  0.1705
  121OSM    HO312795   0.162   1.363  16.371 -0.4988 -0.8613 -1.3500
  121OSM    C4S12796   0.430   1.492  16.351 -0.1372  0.6009  0.2314
  121OSM    H4S12797   0.475   1.588  16.378 -0.6945  1.3665 -1.4743
  121OSM    C5S12798   0.465   1.430  16.241  0.0950 -0.1073 -0.1378
  121OSM    H5S12799   0.398   1.358  16.193 -2.3544  0.7035  1.8680
  121OSM    C6S12800   0.587   1.463  16.163 -0.4358  0.4127 -0.0689
  121OSM    H6S12801   0.587   1.558  16.107 -0.8191 -1.2969 -3.2181
  121OSM    H6T12802   0.589   1.387  16.081 -0.4941  0.0480  0.2637
  121OSM    C7S12803   0.718   1.449  16.245  0.0229 -0.1014  0.2782
  121OSM    H7S12804   0.738   1.340  16.251 -2.1811 -0.5058  0.9185
  121OSM    H7T12805   0.706   1.506  16.339 -0.4867  0.2056  0.0310
  121OSM    C8S12806   0.840   1.499  16.164  0.0343 -0.2536 -0.6089
  121OSM    H8S12807   0.925   1.493  16.236 -0.1771 -0.0959 -0.3435
  121OSM    H8T12808   0.830   1.604  16.129 -1.1116 -0.6907 -1.6651
  121OSM    C9S12809   0.876   1.406  16.045 -0.3772  0.6008 -0.7010
  121OSM    H9S12810   0.780   1.382  15.994  0.0526  0.5461 -1.5071
  121OSM    H9T12811   0.919   1.311  16.082  0.8345  1.2974 -0.2648
  121OSM   C10S12812   0.972   1.477  15.949 -0.2396  0.3532 -0.4129
  121OSM   H10S12813   0.927   1.576  15.926  0.2882  1.0997  1.5065
  121OSM   H10T12814   0.982   1.415  15.857 -0.1012 -1.4749  0.7783
  121OSM   C11S12815   1.111   1.492  16.011  0.7298 -0.5189  0.4407
  121OSM   H11S12816   1.118   1.572  16.088  0.2732 -0.6191  0.5870
  121OSM   H11T12817   1.169   1.540  15.930  2.0177 -2.5777  0.0743
  121OSM   C12S12818   1.175   1.363  16.063  0.2486  0.1845  1.0381
  121OSM   H12S12819   1.133   1.274  16.011 -0.8331  0.3263  1.6396
  121OSM   H12T12820   1.163   1.346  16.172  0.7136 -2.1417  0.7840
  121OSM   C13S12821   1.330   1.377  16.033  0.2240 -1.0575  0.2258
  121OSM   H13S12822   1.393   1.308  16.093 -0.1510 -0.9100  0.8077
  121OSM   H13T12823   1.356   1.480  16.067 -2.6048 -0.1925  0.0410
  121OSM   C14S12824   1.362   1.342  15.885  0.1513  0.3990  0.4795
  121OSM   H14S12825   1.448   1.406  15.859 -0.2685  1.5521  1.8232
  121OSM   H14T12826   1.288   1.383  15.813  0.6250 -0.0532 -0.2740
  121OSM   C15S12827   1.384   1.193  15.866 -0.2719 -0.3589  0.1193
  121OSM   H15S12828   1.303   1.132  15.911  0.6656 -0.1634  2.2274
  121OSM   H15T12829   1.482   1.162  15.909  0.8607  0.3009 -1.8661
  121OSM   C16S12830   1.385   1.147  15.715  0.6664  0.5995  0.2586
  121OSM   H16S12831   1.475   1.196  15.671  0.3608  0.6547 -0.3207
  121OSM   H16T12832   1.296   1.193  15.667 -1.3942 -2.5622  0.8156
  121OSM   C17S12833   1.400   0.999  15.692 -0.6895  0.3580 -0.0781
  121OSM   H17S12834   1.311   0.940  15.723  0.0165  0.5350  2.5698
  121OSM   H17T12835   1.483   0.966  15.758 -0.8359 -1.2518 -0.6638
  121OSM   C18S12836   1.415   0.966  15.541  0.5982  0.4489  0.4123
  121OSM   H18S12837   1.501   1.019  15.496  0.8420 -2.0252 -2.3180
  121OSM   H18T12838   1.331   1.008  15.481  2.1972  1.7074 -1.0559
  121OSM   H18U12839   1.434   0.859  15.516 -0.6943  0.1250  0.7653
  121OSM    C1F12840   0.453   1.393  16.765 -0.9353  0.4185  0.0227
  121OSM     OF12841   0.438   1.273  16.784 -0.2387 -0.4788  0.7126
  121OSM    C2F12842   0.527   1.482  16.861 -0.1520  0.3377 -0.0889
  121OSM    H2F12843   0.445   1.493  16.935 -0.6695  0.4024 -0.6674
  121OSM    H2G12844   0.538   1.583  16.816  0.8377 -0.4867 -1.8266
  121OSM    C3F12845   0.653   1.423  16.924  0.0266 -0.6722 -0.2543
  121OSM    H3F12846   0.620   1.340  16.990 -1.9964  0.0216 -0.3196
  121OSM    H3G12847   0.703   1.504  16.982 -1.6764  0.3505 -0.1281
  121OSM    C4F12848   0.761   1.373  16.821  0.5769 -0.3631 -0.0117
  121OSM    H4F12849   0.778   1.455  16.748  0.4210  2.6046  3.0377
  121OSM    H4G12850   0.728   1.279  16.773  3.5798 -1.5393  0.0113
  121OSM    C5F12851   0.893   1.348  16.896  0.6416 -0.1717 -0.5837
  121OSM    H5F12852   0.875   1.309  16.999 -1.3606 -1.1197 -1.2360
  121OSM    H5G12853   0.932   1.447  16.925 -2.7883  0.9708  0.7017
  121OSM    C6F12854   0.993   1.265  16.818 -0.0457  0.1986  0.7572
  121OSM    H6F12855   0.943   1.175  16.776  0.7091  0.1887 -0.1580
  121OSM    H6G12856   1.082   1.249  16.882  0.3240 -2.5237 -0.3006
  121OSM    C7F12857   1.045   1.339  16.693  0.7401 -0.1790  0.8472
  121OSM    H7F12858   1.065   1.448  16.709 -0.4545  0.1199  0.4197
  121OSM    H7G12859   0.965   1.338  16.616  0.2462  0.7795  1.3141
  121OSM    C8F12860   1.164   1.259  16.637 -0.6676  0.5508  0.5137
  121OSM    H8F12861   1.142   1.154  16.610  0.5436  1.3291 -4.5214
  121OSM    H8G12862   1.241   1.261  16.716  1.4367  0.9264 -1.4437
  121OSM    C9F12863   1.219   1.329  16.514 -1.4895 -0.4262 -0.0871
  121OSM    H9F12864   1.148   1.373  16.443 -1.3844  1.6245  1.0136
  121OSM   C10F12865   1.348   1.340  16.488  0.1652  0.3177  0.9492
  121OSM   H10F12866   1.369   1.381  16.388 -1.8395  1.7011  1.0459
  121OSM   C11F12867   1.467   1.282  16.561  0.0552  0.1098 -0.0392
  121OSM   H11F12868   1.444   1.233  16.658 -1.3712 -1.9212 -1.3316
  121OSM   H11G12869   1.546   1.356  16.585  0.4088  0.8942 -3.1593
  121OSM   C12F12870   1.527   1.176  16.473  0.5057  0.4459 -0.6961
  121OSM   H12F12871   1.564   1.235  16.387 -0.1469  1.0800 -0.5527
  121OSM   H12G12872   1.439   1.112  16.449  0.7455 -0.8834  1.6342
  121OSM   C13F12873   1.646   1.105  16.531 -0.1891  0.6550 -0.0400
  121OSM   H13F12874   1.616   1.050  16.622  1.9872 -1.5673 -0.5808
  121OSM   H13G12875   1.736   1.169  16.543  1.4417 -1.0013 -2.3945
  121OSM   C14F12876   1.695   0.994  16.431  0.2273 -0.0083 -0.9112
  121OSM   H14F12877   1.756   1.041  16.351 -1.3495  0.8627 -1.6422
  121OSM   H14G12878   1.600   0.958  16.385 -0.9446 -1.7467  2.4862
  121OSM   C15F12879   1.771   0.876  16.491 -0.6804  0.1498 -0.1289
  121OSM   H15F12880   1.716   0.851  16.584  0.0411  0.2279  0.3200
  121OSM   H15G12881   1.868   0.915  16.527 -0.4574 -0.5557  0.0402
  121OSM   C16F12882   1.792   0.752  16.406  0.2411 -0.4984  0.4867
  121OSM   H16F12883   1.692   0.703  16.407  0.0236 -0.0842  0.0353
  121OSM   H16G12884   1.874   0.687  16.443  1.5337  1.2125  0.7670
  121OSM   C17F12885   1.828   0.793  16.262 -0.2448 -0.3552  0.1027
  121OSM   H17F12886   1.924   0.848  16.266  0.1085 -0.9206 -0.3646
  121OSM   H17G12887   1.754   0.866  16.224 -0.6122 -1.0151 -0.4885
  121OSM   C18F12888   1.833   0.679  16.160 -0.2475 -0.2425 -0.2195
  121OSM   H18F12889   1.872   0.712  16.061 -1.6732  1.8088 -0.1490
  121OSM   H18G12890   1.729   0.650  16.136 -1.5679  4.1491 -0.5305
  121OSM   H18H12891   1.887   0.592  16.204 -0.4343 -0.2481 -0.0038
  122OSM      N12892   3.511   5.068  11.086  0.1867  0.0639 -0.3362
  122OSM    C1512893   3.443   4.933  11.103  0.3047 -0.8816  0.2396
  122OSM   H15A12894   3.377   4.944  11.188 -0.1028  1.7833 -0.3168
  122OSM   H15B12895   3.505   4.847  11.120  0.5130 -0.8951 -0.5315
  122OSM   H15C12896   3.378   4.918  11.017  0.7995  0.3000 -0.3702
  122OSM    C1412897   3.409   5.169  11.071  0.0904  0.7282  0.3386
  122OSM   H14A12898   3.358   5.149  10.978  1.7425 -1.9996 -0.0764
  122OSM   H14B12899   3.445   5.271  11.068 -1.8620  1.4450 -0.6215
  122OSM   H14C12900   3.339   5.165  11.154 -0.2700 -1.1787 -0.0135
  122OSM    C1312901   3.591   5.096  11.212 -0.0452 -0.6308 -0.2718
  122OSM   H13A12902   3.640   5.193  11.208 -0.0614 -0.6264 -0.3769
  122OSM   H13B12903   3.667   5.020  11.223  0.8862 -0.2277 -2.9574
  122OSM   H13C12904   3.519   5.101  11.292 -0.5512  0.7637 -0.7795
  122OSM    C1212905   3.607   5.062  10.959  0.3123 -0.1149 -0.2040
  122OSM   H12A12906   3.695   5.002  10.977  0.4368  0.2536  0.4614
  122OSM   H12B12907   3.656   5.157  10.943  1.1594 -0.2935  1.1806
  122OSM    C1112908   3.536   5.026  10.826 -0.0423 -0.5430 -0.1576
  122OSM   H11A12909   3.485   4.929  10.846 -0.2175 -0.0274  2.1514
  122OSM   H11B12910   3.618   5.009  10.754  1.8931  1.1493  1.5190
  122OSM      P12911   3.496   5.278  10.752 -0.1028  0.0446 -0.4910
  122OSM    O1312912   3.375   5.370  10.723  0.0487 -0.1656  0.1951
  122OSM    O1412913   3.595   5.328  10.849  0.5084  0.1123  0.0808
  122OSM    O1112914   3.578   5.243  10.620 -0.3421  0.7019  0.4993
  122OSM    O1212915   3.447   5.135  10.791 -0.1272  0.4527  0.1724
  122OSM    C1S12916   3.510   5.180  10.513 -0.8371 -0.2546  0.0614
  122OSM    H1S12917   3.403   5.208  10.504 -0.8503  0.1299  1.2534
  122OSM    H1T12918   3.504   5.071  10.535  4.3463 -1.0574 -1.0545
  122OSM     NF12919   3.547   5.136  10.256  0.4321 -0.6424  0.2369
  122OSM    HNF12920   3.604   5.074  10.203  0.8557 -0.0736  0.0163
  122OSM    C2S12921   3.598   5.193  10.385  0.0668  0.3897  0.3297
  122OSM    H2S12922   3.605   5.302  10.367  0.8237  0.1864 -0.7602
  122OSM    C3S12923   3.745   5.145  10.411  0.0418  0.0858 -0.5629
  122OSM    H3S12924   3.747   5.035  10.421  1.1897  0.0923 -0.6543
  122OSM     O312925   3.807   5.192  10.527  0.0681 -0.4627 -0.7723
  122OSM    HO312926   3.735   5.222  10.582 -1.4959 -2.4802 -1.5971
  122OSM    C4S12927   3.826   5.174  10.290  0.2071  1.2351  0.0008
  122OSM    H4S12928   3.838   5.090  10.219  0.4494  0.0227  1.4251
  122OSM    C5S12929   3.875   5.294  10.266 -0.5427  0.3491 -0.1684
  122OSM    H5S12930   3.858   5.372  10.342 -1.0469  0.1102 -0.0309
  122OSM    C6S12931   3.956   5.337  10.146  0.6876 -1.0565  0.2088
  122OSM    H6S12932   4.063   5.310  10.163  0.6966 -2.6020 -1.8625
  122OSM    H6T12933   3.971   5.447  10.150 -0.1142 -0.8885 -0.9635
  122OSM    C7S12934   3.911   5.294  10.008 -0.2438  0.2973 -0.2536
  122OSM    H7S12935   3.867   5.191  10.013  0.8645 -0.1324  1.0340
  122OSM    H7T12936   4.001   5.310   9.946  1.3373  0.9667  2.1106
  122OSM    C8S12937   3.809   5.387   9.948  0.1456 -0.4049 -0.8192
  122OSM    H8S12938   3.859   5.482   9.921 -2.0306  0.6828 -1.3162
  122OSM    H8T12939   3.724   5.402  10.019  0.1935 -2.0364 -0.3781
  122OSM    C9S12940   3.746   5.348   9.813  0.7187 -0.4945  0.2602
  122OSM    H9S12941   3.691   5.252   9.824  0.6710 -0.3308  1.7491
  122OSM    H9T12942   3.827   5.341   9.738  2.6652 -1.2638  2.3283
  122OSM   C10S12943   3.658   5.463   9.772 -0.1285  0.4761 -0.1713
  122OSM   H10S12944   3.714   5.559   9.769 -0.2222  0.5013 -2.8755
  122OSM   H10T12945   3.579   5.469   9.850 -0.7240 -0.3184 -0.6941
  122OSM   C11S12946   3.588   5.437   9.633  0.6811  0.5058 -0.4548
  122OSM   H11S12947   3.663   5.437   9.551 -1.1266  1.1253 -2.1666
  122OSM   H11T12948   3.517   5.520   9.615 -2.4514 -1.2557  2.6600
  122OSM   C12S12949   3.506   5.307   9.610  0.2734 -0.3451 -0.2379
  122OSM   H12S12950   3.427   5.298   9.688 -0.5890  2.9463 -0.5705
  122OSM   H12T12951   3.575   5.221   9.619  2.5611  1.2561 -1.3461
  122OSM   C13S12952   3.439   5.305   9.478  0.2242  0.2941  0.4210
  122OSM   H13S12953   3.506   5.308   9.390 -0.1327 -0.3013  0.1216
  122OSM   H13T12954   3.360   5.380   9.451 -0.8178 -1.8145 -3.0762
  122OSM   C14S12955   3.359   5.176   9.456 -0.2683 -0.7756 -0.5296
  122OSM   H14S12956   3.296   5.159   9.546 -0.3626 -2.4965 -0.8932
  122OSM   H14T12957   3.437   5.099   9.442  1.0896  0.5739 -0.6219
  122OSM   C15S12958   3.265   5.174   9.334  0.5827  0.3774  0.6217
  122OSM   H15S12959   3.328   5.194   9.244  0.0965  0.2761  0.2581
  122OSM   H15T12960   3.175   5.238   9.346 -2.1656 -2.9242 -0.6534
  122OSM   C16S12961   3.202   5.029   9.316 -0.0111  0.0751 -0.5941
  122OSM   H16S12962   3.283   4.954   9.308 -3.0577 -3.7605  0.9754
  122OSM   H16T12963   3.161   5.031   9.213  0.1752 -0.1369 -0.6723
  122OSM   C17S12964   3.090   4.992   9.408 -0.1762  0.3520 -0.8729
  122OSM   H17S12965   3.112   5.007   9.516 -1.0346 -2.2685 -0.2470
  122OSM   H17T12966   3.079   4.881   9.404  0.9039  0.1401  0.7145
  122OSM   C18S12967   2.960   5.058   9.371  0.5146 -0.8240  0.0143
  122OSM   H18S12968   2.987   5.165   9.353  3.6168 -0.9216  2.9637
  122OSM   H18T12969   2.886   5.045   9.453  0.0990  1.3975  0.0623
  122OSM   H18U12970   2.906   5.014   9.285 -0.3360  1.6458 -0.8043
  122OSM    C1F12971   3.415   5.149  10.211  0.1622  0.2730  0.3792
  122OSM     OF12972   3.321   5.207  10.273  0.2528 -0.4589 -0.0729
  122OSM    C2F12973   3.384   5.085  10.075 -0.0350  0.4999  0.3254
  122OSM    H2F12974   3.411   4.977  10.078 -0.4481  0.3272 -1.3071
  122OSM    H2G12975   3.445   5.142  10.002  0.5407  1.3524  1.4471
  122OSM    C3F12976   3.237   5.104  10.029  0.3973 -0.2561 -0.4977
  122OSM    H3F12977   3.230   5.214  10.013  2.0777 -0.1304 -0.5357
  122OSM    H3G12978   3.160   5.082  10.106  0.5673  2.1433  0.4347
  122OSM    C4F12979   3.196   5.026   9.904  0.6538 -0.7623 -0.4615
  122OSM    H4F12980   3.292   5.033   9.847  0.4158 -0.3150 -0.8146
  122OSM    H4G12981   3.114   5.077   9.849  1.7437  0.8336 -0.6766
  122OSM    C5F12982   3.162   4.886   9.930  0.3336  0.1784  0.0627
  122OSM    H5F12983   3.072   4.875   9.995 -0.2308 -0.6781 -0.8556
  122OSM    H5G12984   3.253   4.854   9.985  1.3679  2.1304 -0.4095
  122OSM    C6F12985   3.126   4.805   9.805 -0.0929  0.0681  0.4625
  122OSM    H6F12986   3.059   4.865   9.740  0.2365 -0.1726 -0.0989
  122OSM    H6G12987   3.069   4.718   9.846 -0.6107  0.8636  1.5069
  122OSM    C7F12988   3.255   4.769   9.724  0.2770  0.1664  0.3624
  122OSM    H7F12989   3.334   4.722   9.787  1.3124  0.9583 -0.2927
  122OSM    H7G12990   3.285   4.872   9.694 -2.5131  0.8069 -0.5009
  122OSM    C8F12991   3.224   4.674   9.602  0.0107 -0.8030 -0.2674
  122OSM    H8F12992   3.133   4.707   9.549  1.3449 -0.1352 -2.2708
  122OSM    H8G12993   3.192   4.575   9.640 -0.9353  0.1437  1.5218
  122OSM    C9F12994   3.336   4.656   9.507 -0.5150 -0.4586 -0.0425
  122OSM    H9F12995   3.425   4.654   9.571 -0.9994 -0.0549  0.6512
  122OSM   C10F12996   3.334   4.634   9.375 -0.5515 -0.2135  0.7162
  122OSM   H10F12997   3.425   4.641   9.313 -2.5114 -1.5824 -2.5991
  122OSM   C11F12998   3.211   4.617   9.295 -0.1966 -0.4435 -0.1789
  122OSM   H11F12999   3.248   4.637   9.192  0.1246 -1.1894 -0.2164
  122OSM   H11G13000   3.135   4.692   9.326 -0.9634 -0.8907 -0.9527
  122OSM   C12F13001   3.149   4.476   9.287 -0.6211 -0.5022  0.1773
  122OSM   H12F13002   3.044   4.481   9.250 -1.0045  0.2822  1.3031
  122OSM   H12G13003   3.144   4.441   9.392 -1.3952  2.6603  1.3070
  122OSM   C13F13004   3.240   4.377   9.209  0.2203  0.7699  0.1118
  122OSM   H13F13005   3.218   4.272   9.234 -1.4909  0.3719 -2.6062
  122OSM   H13G13006   3.342   4.372   9.253 -0.6564  1.9090  2.4751
  122OSM   C14F13007   3.250   4.389   9.056  0.0637 -0.4332  0.3106
  122OSM   H14F13008   3.292   4.491   9.047 -0.4280 -0.3107 -0.7660
  122OSM   H14G13009   3.149   4.390   9.010 -0.5185  4.0672  1.2117
  122OSM   C15F13010   3.349   4.287   8.992 -0.1791 -0.7850 -0.0860
  122OSM   H15F13011   3.445   4.299   9.046  0.4147  0.8709 -1.4237
  122OSM   H15G13012   3.364   4.322   8.887  1.6490 -1.6111 -0.1411
  122OSM   C16F13013   3.314   4.133   8.984 -0.0989  0.4833  0.5949
  122OSM   H16F13014   3.231   4.117   8.912  0.5892 -0.3779 -0.0340
  122OSM   H16G13015   3.283   4.102   9.086 -0.0562 -1.1917  0.1265
  122OSM   C17F13016   3.438   4.052   8.947  0.1444 -0.0971  0.2911
  122OSM   H17F13017   3.518   4.077   9.020  0.1380  0.0746  0.2408
  122OSM   H17G13018   3.465   4.094   8.848  0.3841  0.0550  0.4207
  122OSM   C18F13019   3.416   3.902   8.931  0.2184 -0.1400 -0.8968
  122OSM   H18F13020   3.402   3.859   9.032  0.4246  0.8263 -0.4550
  122OSM   H18G13021   3.502   3.852   8.880 -0.5281  0.4836 -2.8845
  122OSM   H18H13022   3.323   3.874   8.877 -1.7115  0.5364  1.8794
  123OSM      N13023   3.818   5.300   6.063 -0.3379  0.9104  0.4819
  123OSM    C1513024   3.855   5.440   6.085 -0.2927 -0.3925  0.1557
  123OSM   H15A13025   3.771   5.488   6.133 -0.6537  0.0134 -0.8685
  123OSM   H15B13026   3.891   5.501   6.004  0.8852 -2.1724 -0.7325
  123OSM   H15C13027   3.935   5.431   6.158  1.0098  0.1299 -1.1666
  123OSM    C1413028   3.742   5.299   5.937  0.5448  0.3668 -0.8317
  123OSM   H14A13029   3.642   5.333   5.957  0.8944  0.1662  1.6720
  123OSM   H14B13030   3.744   5.195   5.906  0.9951 -1.5470  4.4721
  123OSM   H14C13031   3.791   5.362   5.865  0.1893  1.6456  0.0097
  123OSM    C1313032   3.949   5.223   6.052 -0.6933  0.4949  0.0286
  123OSM   H13A13033   3.931   5.126   6.010 -3.0321  0.5765  0.6917
  123OSM   H13B13034   3.984   5.197   6.151 -0.6238 -0.4132 -0.2313
  123OSM   H13C13035   4.013   5.281   5.987 -1.2002  1.9231  0.7560
  123OSM    C1213036   3.749   5.237   6.183  0.3365  0.2324  0.3383
  123OSM   H12A13037   3.812   5.235   6.271  0.9185 -0.2540 -0.0791
  123OSM   H12B13038   3.729   5.133   6.160 -0.9306  0.1737  1.5404
  123OSM    C1113039   3.631   5.313   6.238 -0.1485 -0.2462  0.1270
  123OSM   H11A13040   3.667   5.414   6.266 -1.2892  0.4021 -0.6325
  123OSM   H11B13041   3.597   5.266   6.333 -2.3986 -1.2639 -1.0915
  123OSM      P13042   3.413   5.435   6.149 -0.1701  0.1281 -0.4274
  123OSM    O1313043   3.485   5.561   6.136 -0.3954 -0.2641  0.2348
  123OSM    O1413044   3.304   5.416   6.050  0.6114 -0.3465  0.5408
  123OSM    O1113045   3.348   5.425   6.298 -0.1324 -0.0365 -0.0304
  123OSM    O1213046   3.524   5.316   6.148 -0.1043 -0.0432  0.0136
  123OSM    C1S13047   3.311   5.297   6.349 -0.0295 -0.2917  0.2445
  123OSM    H1S13048   3.389   5.221   6.325 -1.3311 -0.8407 -2.6098
  123OSM    H1T13049   3.215   5.262   6.306 -0.8896  0.8617  1.1776
  123OSM     NF13050   3.235   5.170   6.548 -0.1996  0.7532  0.4003
  123OSM    HNF13051   3.146   5.128   6.567  0.1787 -0.2067  0.0890
  123OSM    C2S13052   3.256   5.301   6.496  0.2406 -0.2657 -0.0105
  123OSM    H2S13053   3.337   5.352   6.553  0.0004  0.6141 -0.4344
  123OSM    C3S13054   3.129   5.389   6.503 -0.1519 -0.1939 -0.0701
  123OSM    H3S13055   3.046   5.336   6.453 -0.7858  0.6633  0.0465
  123OSM     O313056   3.131   5.507   6.426  0.1028 -0.2558 -0.2943
  123OSM    HO313057   3.204   5.495   6.365 -0.5048 -0.6736 -0.9542
  123OSM    C4S13058   3.072   5.423   6.637 -0.8838 -0.3785  0.1043
  123OSM    H4S13059   2.988   5.357   6.666 -1.1592 -0.3545 -0.6323
  123OSM    C5S13060   3.112   5.520   6.720  0.2747  0.3862  0.1245
  123OSM    H5S13061   3.176   5.602   6.685  1.3949 -0.1123  0.9236
  123OSM    C6S13062   3.056   5.547   6.860  0.1876 -0.5370 -0.1427
  123OSM    H6S13063   3.028   5.650   6.892  1.1206 -0.3302  0.0531
  123OSM    H6T13064   3.127   5.519   6.941 -0.6517 -0.0806  0.7652
  123OSM    C7S13065   2.920   5.470   6.881 -0.0458 -0.0427 -0.0263
  123OSM    H7S13066   2.938   5.361   6.877  2.6947  0.3021  0.8247
  123OSM    H7T13067   2.851   5.507   6.801  0.6305 -0.3050 -0.7367
  123OSM    C8S13068   2.849   5.504   7.015 -0.0252 -0.2423  0.6464
  123OSM    H8S13069   2.814   5.609   7.009  2.7648  0.6899 -2.8217
  123OSM    H8T13070   2.935   5.502   7.086  1.4101  0.8295 -0.9815
  123OSM    C9S13071   2.744   5.400   7.051 -0.9392 -0.7562 -0.5039
  123OSM    H9S13072   2.807   5.310   7.068  2.3745  1.3904 -0.5553
  123OSM    H9T13073   2.676   5.378   6.965 -0.7591 -2.5768 -0.2200
  123OSM   C10S13074   2.659   5.433   7.181 -0.1743  0.1631  0.2749
  123OSM   H10S13075   2.580   5.355   7.193 -0.1663  0.0277 -0.5209
  123OSM   H10T13076   2.601   5.526   7.162 -1.0896 -0.4756 -0.1274
  123OSM   C11S13077   2.749   5.440   7.308 -0.2044 -0.2094  0.3326
  123OSM   H11S13078   2.802   5.537   7.297 -3.2451  1.3069 -2.4568
  123OSM   H11T13079   2.826   5.360   7.312 -1.0629 -1.2959 -2.4092
  123OSM   C12S13080   2.670   5.459   7.442  0.8419  0.5531  1.3327
  123OSM   H12S13081   2.611   5.367   7.463  2.1803 -0.4142  0.9476
  123OSM   H12T13082   2.591   5.537   7.432 -0.2608 -0.6550  0.4596
  123OSM   C13S13083   2.755   5.498   7.556 -0.4516  0.4235  0.1002
  123OSM   H13S13084   2.807   5.592   7.526 -0.4390  0.0132 -1.2015
  123OSM   H13T13085   2.833   5.422   7.577 -1.0776 -0.8879 -1.9941
  123OSM   C14S13086   2.675   5.546   7.677 -0.0977 -0.0543  1.1047
  123OSM   H14S13087   2.601   5.467   7.700 -1.0145  0.4072 -0.1347
  123OSM   H14T13088   2.623   5.642   7.656  3.5309  1.4716 -2.2128
  123OSM   C15S13089   2.770   5.571   7.792 -0.4438 -0.1582 -0.3578
  123OSM   H15S13090   2.844   5.649   7.765 -0.2130 -0.3628 -0.3234
  123OSM   H15T13091   2.831   5.479   7.808 -0.5383 -0.5106 -1.8385
  123OSM   C16S13092   2.695   5.606   7.925  0.3778 -0.1611  0.1229
  123OSM   H16S13093   2.608   5.674   7.911 -0.4707 -1.1796  0.2898
  123OSM   H16T13094   2.771   5.663   7.983  0.8154 -1.0659  0.4547
  123OSM   C17S13095   2.646   5.495   8.020  0.0749  0.6606 -0.0563
  123OSM   H17S13096   2.729   5.427   8.047 -1.2900 -0.6613  0.9324
  123OSM   H17T13097   2.569   5.434   7.968 -0.6553 -1.9046  3.6596
  123OSM   C18S13098   2.608   5.547   8.157  0.0746  0.7378  0.3474
  123OSM   H18S13099   2.560   5.465   8.215  1.1813 -0.4725 -0.3856
  123OSM   H18T13100   2.533   5.629   8.150 -2.8668 -1.8044 -0.4312
  123OSM   H18U13101   2.703   5.571   8.209  0.1080 -0.5552  0.9124
  123OSM    C1F13102   3.339   5.105   6.597 -0.5410 -0.0185 -0.3158
  123OSM     OF13103   3.452   5.114   6.550  0.2006 -0.8834  0.7490
  123OSM    C2F13104   3.313   5.026   6.721 -0.0087  0.1691 -0.5120
  123OSM    H2F13105   3.254   4.937   6.690 -1.5920  1.8961 -2.8693
  123OSM    H2G13106   3.240   5.084   6.781  0.3039 -0.0121  0.0467
  123OSM    C3F13107   3.443   4.999   6.792  0.4586  0.1175 -0.0748
  123OSM    H3F13108   3.516   5.081   6.810 -0.5770  0.7624  1.3805
  123OSM    H3G13109   3.503   4.932   6.727 -2.7501  0.5951 -3.8797
  123OSM    C4F13110   3.423   4.921   6.921 -0.7079  0.1530  0.0913
  123OSM    H4F13111   3.357   4.839   6.883  1.3753 -0.6680 -2.0089
  123OSM    H4G13112   3.372   4.968   7.007  0.5781  0.5954  0.6196
  123OSM    C5F13113   3.553   4.861   6.956 -0.4294  0.0909 -0.4561
  123OSM    H5F13114   3.601   4.811   6.869 -0.0041  2.6909 -1.8100
  123OSM    H5G13115   3.530   4.791   7.039 -0.4970 -2.5255 -2.5208
  123OSM    C6F13116   3.651   4.955   7.026 -0.5962 -0.2329 -0.0508
  123OSM    H6F13117   3.658   5.055   6.979 -0.6506 -0.7387 -1.1546
  123OSM    H6G13118   3.753   4.911   7.017 -0.7979 -0.9084  0.7659
  123OSM    C7F13119   3.612   4.979   7.178 -0.3676 -0.3684  0.0849
  123OSM    H7F13120   3.630   4.892   7.244 -1.8438 -1.1828 -0.5360
  123OSM    H7G13121   3.502   4.998   7.176 -0.8165 -2.3803  1.9498
  123OSM    C8F13122   3.691   5.101   7.239  0.5762  0.2428 -0.2390
  123OSM    H8F13123   3.645   5.128   7.337  0.1502 -2.6341  0.4498
  123OSM    H8G13124   3.679   5.194   7.180  0.1098  0.6086  0.4174
  123OSM    C9F13125   3.842   5.095   7.250  0.3007 -0.1508 -0.6581
  123OSM    H9F13126   3.890   5.131   7.158 -1.1135 -0.1831 -1.4246
  123OSM   C10F13127   3.908   5.057   7.353  0.6299 -0.1782 -0.8526
  123OSM   H10F13128   4.017   5.046   7.336  0.8702  0.5993  0.1080
  123OSM   C11F13129   3.850   5.008   7.481 -0.7429  0.4831 -0.2010
  123OSM   H11F13130   3.910   4.928   7.531 -1.6280  0.9668  1.7596
  123OSM   H11G13131   3.751   4.959   7.469 -0.9203  0.1532  2.1483
  123OSM   C12F13132   3.816   5.109   7.590 -0.2845 -0.3635  0.2793
  123OSM   H12F13133   3.738   5.075   7.662  0.5561 -0.6103  1.0977
  123OSM   H12G13134   3.767   5.200   7.551 -0.2970 -0.2798  0.4929
  123OSM   C13F13135   3.942   5.153   7.679 -0.0059 -0.4796 -0.0098
  123OSM   H13F13136   4.012   5.207   7.612 -0.4874  0.2336  0.0503
  123OSM   H13G13137   3.988   5.059   7.717  0.3859  0.1363  1.0944
  123OSM   C14F13138   3.898   5.231   7.802 -0.1897 -0.7927  0.1129
  123OSM   H14F13139   3.825   5.177   7.865  1.2645 -2.7565  0.2266
  123OSM   H14G13140   3.859   5.326   7.760 -0.3990 -1.3863 -1.0860
  123OSM   C15F13141   4.022   5.270   7.887  0.0471 -0.5031 -0.0760
  123OSM   H15F13142   4.006   5.377   7.913 -1.7883 -0.2712 -1.9175
  123OSM   H15G13143   4.117   5.255   7.831  1.5151  0.4214  2.0475
  123OSM   C16F13144   4.043   5.196   8.021 -0.0043  0.3645  0.2642
  123OSM   H16F13145   4.140   5.225   8.067 -0.0364 -1.9451  2.0191
  123OSM   H16G13146   4.050   5.086   8.005 -2.1019  0.3014 -0.5469
  123OSM   C17F13147   3.936   5.185   8.129  0.4572  0.0381 -0.8132
  123OSM   H17F13148   3.916   5.084   8.170 -1.1753  1.0495  1.1139
  123OSM   H17G13149   3.836   5.221   8.096 -0.6698 -1.1488  1.0828
  123OSM   C18F13150   3.979   5.265   8.252  0.3892 -0.2552  0.0672
  123OSM   H18F13151   3.891   5.264   8.320  1.8067  1.0478  2.0220
  123OSM   H18G13152   3.987   5.374   8.231  1.0972 -0.6301 -1.8089
  123OSM   H18H13153   4.079   5.237   8.291 -0.1417 -3.4413 -0.6479
  124OSM      N13154   6.273   2.253   5.916  0.3952  0.4417 -0.2950
  124OSM    C1513155   6.378   2.335   5.971 -0.1296  0.0263 -0.7571
  124OSM   H15A13156   6.329   2.416   6.023 -2.6424 -0.5977 -2.0213
  124OSM   H15B13157   6.436   2.391   5.898 -0.3765 -0.2615 -1.1764
  124OSM   H15C13158   6.434   2.282   6.047 -1.2134 -1.4573 -0.9701
  124OSM    C1413159   6.196   2.326   5.811 -0.0996  0.4605 -0.0251
  124OSM   H14A13160   6.130   2.400   5.853  0.0897  0.3202  0.5306
  124OSM   H14B13161   6.134   2.259   5.753 -0.4775  1.6606 -1.0477
  124OSM   H14C13162   6.268   2.371   5.746  0.5377  1.3758  1.2705
  124OSM    C1313163   6.341   2.137   5.856  0.1209  0.5396  0.0034
  124OSM   H13A13164   6.410   2.161   5.776  1.0996 -1.1229  0.2921
  124OSM   H13B13165   6.261   2.089   5.801 -0.3647  2.3840 -1.0152
  124OSM   H13C13166   6.386   2.068   5.926 -2.6741 -0.7532  0.6688
  124OSM    C1213167   6.179   2.196   6.027  0.0238 -0.1971 -0.8131
  124OSM   H12A13168   6.229   2.136   6.102 -0.8667  0.7194  0.5638
  124OSM   H12B13169   6.115   2.120   5.986  0.7666 -0.6133 -1.2121
  124OSM    C1113170   6.079   2.290   6.101  0.1389 -0.2590 -0.6293
  124OSM   H11A13171   6.144   2.372   6.140 -0.8486  1.1718 -1.8982
  124OSM   H11B13172   6.040   2.240   6.192  1.4067  0.2730  0.2303
  124OSM      P13173   5.911   2.484   6.033 -0.0720  0.0386 -0.1639
  124OSM    O1313174   6.017   2.581   6.013 -0.3041  0.4009  0.1394
  124OSM    O1413175   5.786   2.506   5.950 -0.3929  0.4894  0.3361
  124OSM    O1113176   5.869   2.495   6.185 -0.4813 -0.5092  0.2987
  124OSM    O1213177   5.972   2.338   6.012 -0.0249  0.4914  1.1368
  124OSM    C1S13178   5.761   2.419   6.246 -0.3667 -0.5648  0.3248
  124OSM    H1S13179   5.743   2.322   6.195  0.5071 -1.5160  1.7678
  124OSM    H1T13180   5.666   2.477   6.238  0.9272  1.7185  0.6282
  124OSM     NF13181   5.668   2.342   6.461  0.2568  0.1131 -0.4269
  124OSM    HNF13182   5.609   2.409   6.506 -0.1644 -1.3922  1.3748
  124OSM    C2S13183   5.780   2.408   6.400 -0.0578 -0.4389  0.0502
  124OSM    H2S13184   5.867   2.338   6.399 -0.7041 -1.2665 -0.0102
  124OSM    C3S13185   5.819   2.543   6.468 -0.5512 -0.2410 -0.1894
  124OSM    H3S13186   5.741   2.618   6.440 -0.8252  0.0057  1.1610
  124OSM     O313187   5.945   2.598   6.423 -0.3814 -0.5297  0.1030
  124OSM    HO313188   5.959   2.536   6.350 -0.7257  2.1296 -2.4134
  124OSM    C4S13189   5.823   2.538   6.606  0.6598 -0.1332  0.1426
  124OSM    H4S13190   5.891   2.460   6.643  0.3228 -0.3805  0.2485
  124OSM    C5S13191   5.739   2.604   6.697 -0.4106  0.8158  0.0596
  124OSM    H5S13192   5.652   2.659   6.658 -1.5617  0.2391  1.6976
  124OSM    C6S13193   5.738   2.576   6.845 -0.2459 -0.0086  0.8515
  124OSM    H6S13194   5.812   2.496   6.865 -2.2306 -1.7838  1.3955
  124OSM    H6T13195   5.641   2.550   6.892 -1.0079  0.4906 -0.3898
  124OSM    C7S13196   5.779   2.686   6.944  0.0574 -0.5893  0.2993
  124OSM    H7S13197   5.699   2.762   6.943  0.9564  0.4880  2.4403
  124OSM    H7T13198   5.878   2.730   6.917 -0.4447  1.2418  1.2571
  124OSM    C8S13199   5.787   2.629   7.082 -0.0586 -0.0061  0.3341
  124OSM    H8S13200   5.865   2.550   7.081  0.6337  0.6235  1.5825
  124OSM    H8T13201   5.691   2.590   7.121  0.4395  1.6455  3.5842
  124OSM    C9S13202   5.836   2.719   7.195 -0.1965 -0.3298  0.1525
  124OSM    H9S13203   5.795   2.820   7.173  0.1442 -0.8114 -3.0835
  124OSM    H9T13204   5.945   2.736   7.192 -0.1647 -0.3821  0.7780
  124OSM   C10S13205   5.787   2.672   7.331 -0.8882  0.4529  0.8230
  124OSM   H10S13206   5.809   2.563   7.343  2.1820  0.4945 -2.5185
  124OSM   H10T13207   5.680   2.700   7.342 -2.2523 -3.8042  0.3283
  124OSM   C11S13208   5.881   2.731   7.446 -0.1922  0.2772  0.5521
  124OSM   H11S13209   5.890   2.841   7.433  1.1421  0.4709  2.6116
  124OSM   H11T13210   5.978   2.679   7.431 -0.8978 -0.4239 -1.9253
  124OSM   C12S13211   5.843   2.688   7.589  0.2416 -0.1908 -0.1570
  124OSM   H12S13212   5.818   2.580   7.596 -1.6424  0.1952 -0.5234
  124OSM   H12T13213   5.750   2.746   7.608 -1.3729 -2.3799 -1.0788
  124OSM   C13S13214   5.951   2.725   7.685 -0.0500  0.0656 -0.2978
  124OSM   H13S13215   5.977   2.833   7.679 -3.3935  0.9331 -0.6917
  124OSM   H13T13216   6.041   2.664   7.663 -1.7843 -2.3250 -1.1197
  124OSM   C14S13217   5.915   2.693   7.835 -0.5316 -0.6414 -0.1086
  124OSM   H14S13218   5.896   2.584   7.829 -1.1714 -0.6106  1.0316
  124OSM   H14T13219   5.823   2.749   7.861 -0.3534 -0.6051  0.4629
  124OSM   C15S13220   6.025   2.709   7.935 -0.0486  0.4785 -0.1202
  124OSM   H15S13221   6.057   2.815   7.925 -0.2622  0.3857 -2.3133
  124OSM   H15T13222   6.117   2.660   7.898  1.6715  4.2316 -1.3283
  124OSM   C16S13223   5.987   2.653   8.074  0.7481  0.2000  0.7611
  124OSM   H16S13224   5.952   2.548   8.066  0.4543  0.3893 -0.8810
  124OSM   H16T13225   5.897   2.711   8.103 -0.3737 -1.0604 -0.0527
  124OSM   C17S13226   6.102   2.653   8.179  0.2828  0.2798  0.3476
  124OSM   H17S13227   6.117   2.759   8.207 -2.7815  0.5441  1.3448
  124OSM   H17T13228   6.191   2.611   8.129 -1.6816  1.2422 -4.4766
  124OSM   C18S13229   6.052   2.595   8.310 -0.0956  0.8108 -0.6199
  124OSM   H18S13230   5.972   2.663   8.347  0.1152 -0.2710  2.1092
  124OSM   H18T13231   6.118   2.565   8.394 -0.3789 -0.4978 -0.8372
  124OSM   H18U13232   6.006   2.501   8.272  2.2738  0.1814 -2.1073
  124OSM    C1F13233   5.651   2.213   6.454 -0.2674  1.2340  0.5323
  124OSM     OF13234   5.754   2.148   6.414 -0.2370 -0.8699  0.3831
  124OSM    C2F13235   5.522   2.155   6.500 -0.4353  0.3176  0.2701
  124OSM    H2F13236   5.476   2.104   6.412  2.7609  0.1797 -1.4696
  124OSM    H2G13237   5.445   2.226   6.538 -1.4083 -1.5256  1.8898
  124OSM    C3F13238   5.542   2.037   6.598 -0.2151 -0.9069  0.1916
  124OSM    H3F13239   5.587   1.949   6.548  1.2864 -0.8752  1.4237
  124OSM    H3G13240   5.447   1.998   6.641 -1.2428  0.7582 -0.4537
  124OSM    C4F13241   5.637   2.061   6.717  0.4113  0.2647 -0.6482
  124OSM    H4F13242   5.737   2.082   6.674 -0.2212  2.2943 -1.2471
  124OSM    H4G13243   5.641   1.965   6.773 -2.1488 -0.3178 -1.3497
  124OSM    C5F13244   5.588   2.168   6.810  0.6520  0.1006  0.5075
  124OSM    H5F13245   5.478   2.152   6.809  0.6580  0.0514  0.6189
  124OSM    H5G13246   5.614   2.264   6.761 -0.1600  0.1326  0.1183
  124OSM    C6F13247   5.655   2.161   6.949 -0.7584 -0.3591  0.0485
  124OSM    H6F13248   5.761   2.186   6.931 -1.1322  0.1438 -1.7091
  124OSM    H6G13249   5.656   2.058   6.991 -2.8052 -1.2920 -1.9596
  124OSM    C7F13250   5.591   2.257   7.048  0.1553 -0.7394 -0.4631
  124OSM    H7F13251   5.484   2.229   7.042 -0.0277 -0.3130  0.6587
  124OSM    H7G13252   5.611   2.355   7.000 -0.1092 -0.0249  0.8463
  124OSM    C8F13253   5.648   2.245   7.191  1.0197  0.3841 -0.4724
  124OSM    H8F13254   5.758   2.261   7.188  0.9991  0.9371  1.0513
  124OSM    H8G13255   5.629   2.145   7.233 -2.6260  1.3894  0.6088
  124OSM    C9F13256   5.595   2.346   7.289  1.1414 -0.5796  0.2423
  124OSM    H9F13257   5.535   2.418   7.231 -0.0982 -0.5610  1.4901
  124OSM   C10F13258   5.615   2.353   7.421  0.1247 -0.5318  0.9758
  124OSM   H10F13259   5.567   2.435   7.477  1.5306  0.3615  0.9206
  124OSM   C11F13260   5.676   2.251   7.507 -1.0031 -0.4469  0.6994
  124OSM   H11F13261   5.779   2.223   7.475 -1.1152  0.6294 -0.6821
  124OSM   H11G13262   5.616   2.158   7.501  0.3878 -1.3026 -0.9147
  124OSM   C12F13263   5.700   2.292   7.653  0.1251 -0.1426  0.2914
  124OSM   H12F13264   5.602   2.293   7.705  0.1984 -1.9475  0.5197
  124OSM   H12G13265   5.744   2.392   7.673  1.0706 -0.7830  1.5491
  124OSM   C13F13266   5.773   2.178   7.719  0.2888  0.0884 -0.0604
  124OSM   H13F13267   5.869   2.139   7.680  0.7937  1.2816 -0.0289
  124OSM   H13G13268   5.698   2.095   7.718 -0.9481  1.1558 -1.2494
  124OSM   C14F13269   5.809   2.214   7.864  0.0767  0.9003 -0.7091
  124OSM   H14F13270   5.899   2.279   7.867  1.0520 -0.4532  0.9369
  124OSM   H14G13271   5.849   2.129   7.922  1.6274  1.6929 -0.5546
  124OSM   C15F13272   5.698   2.258   7.963  0.6882 -0.5192  0.2961
  124OSM   H15F13273   5.617   2.183   7.975 -0.5169  0.8461  1.1612
  124OSM   H15G13274   5.654   2.351   7.919 -0.5093 -1.2125 -0.0164
  124OSM   C16F13275   5.740   2.288   8.110 -0.5054  0.0417 -0.3469
  124OSM   H16F13276   5.652   2.329   8.164  0.6208  0.8987  0.9161
  124OSM   H16G13277   5.830   2.354   8.107  2.6247 -3.7968  0.3361
  124OSM   C17F13278   5.777   2.164   8.191  0.1714 -0.4211 -0.6945
  124OSM   H17F13279   5.828   2.188   8.287 -2.6776  2.4477  0.2707
  124OSM   H17G13280   5.843   2.098   8.131  1.0981 -0.0802 -0.0712
  124OSM   C18F13281   5.649   2.088   8.234 -0.1618  0.4439  0.0427
  124OSM   H18F13282   5.584   2.166   8.279 -0.4793  1.4009 -1.9401
  124OSM   H18G13283   5.654   2.019   8.321 -0.4721  1.4179  0.8464
  124OSM   H18H13284   5.591   2.039   8.152 -1.4130  1.3301  0.3633
  125OSM      N13285   5.028   5.329   5.622 -0.5864  0.3857  0.4870
  125OSM    C1513286   5.095   5.261   5.507 -0.2713 -0.4951 -0.1711
  125OSM   H15A13287   5.086   5.154   5.514  1.1465 -0.5355  1.9319
  125OSM   H15B13288   5.203   5.258   5.511 -0.3110 -1.9460  3.1289
  125OSM   H15C13289   5.067   5.290   5.407  0.8177 -2.7725 -1.2102
  125OSM    C1413290   5.054   5.474   5.618 -0.0683  0.5078 -0.9432
  125OSM   H14A13291   5.013   5.535   5.697  1.3009  1.5478 -0.9901
  125OSM   H14B13292   5.005   5.500   5.526 -0.6695  1.2420 -0.4272
  125OSM   H14C13293   5.161   5.485   5.604  0.3639  0.0431  1.4738
  125OSM    C1313294   4.885   5.295   5.619 -0.0713  0.2247 -1.0640
  125OSM   H13A13295   4.824   5.326   5.535  0.4919  1.8663 -0.8911
  125OSM   H13B13296   4.837   5.345   5.702 -1.1613 -1.9303 -0.3319
  125OSM   H13C13297   4.867   5.189   5.630  1.6246  0.0977  1.1092
  125OSM    C1213298   5.095   5.280   5.750  0.6049  0.4158 -0.2955
  125OSM   H12A13299   5.070   5.339   5.836  0.2251  2.9881 -2.0420
  125OSM   H12B13300   5.201   5.294   5.734  0.7896  0.0548  0.5757
  125OSM    C1113301   5.086   5.128   5.787 -0.2747 -0.1449 -0.1954
  125OSM   H11A13302   5.159   5.103   5.866 -0.2991 -2.3036 -0.7829
  125OSM   H11B13303   5.119   5.068   5.699  0.5030  0.5364 -0.3724
  125OSM      P13304   4.879   5.138   5.947  0.1418 -0.0172  0.2116
  125OSM    O1313305   4.830   5.273   5.931  0.4390  0.0395 -0.3211
  125OSM    O1413306   4.771   5.045   5.968  0.3433 -0.2495 -0.6668
  125OSM    O1113307   4.968   5.131   6.071 -0.0357 -0.0378 -0.4914
  125OSM    O1213308   4.956   5.082   5.825  0.1531 -0.3118  0.2468
  125OSM    C1S13309   4.943   5.212   6.194 -0.9012 -0.3847 -0.1102
  125OSM    H1S13310   4.838   5.198   6.228 -0.5905 -1.2789  0.5049
  125OSM    H1T13311   4.946   5.322   6.181 -1.3695 -0.2824  0.5700
  125OSM     NF13312   5.013   5.211   6.428  0.2539 -0.7155  0.3083
  125OSM    HNF13313   5.024   5.307   6.454 -0.9492 -1.0788  2.4026
  125OSM    C2S13314   5.051   5.182   6.295 -0.3538  0.0342  0.0811
  125OSM    H2S13315   5.073   5.073   6.290 -0.8164 -0.0302 -0.7901
  125OSM    C3S13316   5.179   5.253   6.249  0.4375 -0.3415 -0.5642
  125OSM    H3S13317   5.166   5.362   6.267 -0.9108 -0.8301  1.7629
  125OSM     O313318   5.215   5.250   6.112 -0.3874 -0.8433 -0.0902
  125OSM    HO313319   5.139   5.216   6.064  0.0372 -3.7272  1.0896
  125OSM    C4S13320   5.286   5.216   6.342 -0.7183  0.9705  0.9110
  125OSM    H4S13321   5.285   5.281   6.431 -1.0388  0.5616  1.2063
  125OSM    C5S13322   5.379   5.119   6.336 -0.2208 -0.0598  0.3928
  125OSM    H5S13323   5.380   5.052   6.249  2.9918  1.5551 -0.9847
  125OSM    C6S13324   5.488   5.102   6.433  0.4746 -0.3978 -0.1604
  125OSM    H6S13325   5.590   5.118   6.391  0.3127 -0.5205 -0.6035
  125OSM    H6T13326   5.484   5.000   6.475  1.5959 -1.0311 -1.5027
  125OSM    C7S13327   5.483   5.182   6.567  0.3792  0.5462 -0.7403
  125OSM    H7S13328   5.381   5.164   6.605  0.6353 -0.8189 -0.6755
  125OSM    H7T13329   5.492   5.293   6.557  0.3615  0.7938  1.4013
  125OSM    C8S13330   5.579   5.131   6.679  0.3303 -1.1157 -0.0796
  125OSM    H8S13331   5.679   5.102   6.640  0.7993 -0.9702  0.9817
  125OSM    H8T13332   5.534   5.033   6.705 -1.0718 -0.8781 -1.4609
  125OSM    C9S13333   5.593   5.215   6.809 -0.4914 -0.1413  0.1465
  125OSM    H9S13334   5.490   5.253   6.829 -1.0539 -0.2474 -2.2923
  125OSM    H9T13335   5.658   5.300   6.782  0.0038 -0.7475 -0.5896
  125OSM   C10S13336   5.624   5.139   6.937 -0.3465  0.0708  0.1327
  125OSM   H10S13337   5.712   5.072   6.925 -0.6823 -0.3285 -0.1356
  125OSM   H10T13338   5.544   5.074   6.976 -1.7436  2.8321  2.1741
  125OSM   C11S13339   5.632   5.230   7.058 -0.2718 -0.5086  0.4511
  125OSM   H11S13340   5.532   5.266   7.091  0.4674  0.6984  1.4307
  125OSM   H11T13341   5.697   5.319   7.044  0.7145 -1.3218 -0.2754
  125OSM   C12S13342   5.706   5.159   7.172  0.3086  0.2999  1.1205
  125OSM   H12S13343   5.800   5.116   7.132  0.3435  2.8144 -1.9025
  125OSM   H12T13344   5.639   5.080   7.213 -0.1271 -0.5096 -1.0355
  125OSM   C13S13345   5.725   5.251   7.284  0.2596  0.0485 -1.0869
  125OSM   H13S13346   5.783   5.346   7.275 -0.0754  0.4127  0.3380
  125OSM   H13T13347   5.795   5.198   7.351 -1.3352  0.0127  0.6449
  125OSM   C14S13348   5.600   5.271   7.365  0.3212 -0.4465 -0.2634
  125OSM   H14S13349   5.532   5.187   7.388 -0.3172  0.9052  3.4182
  125OSM   H14T13350   5.535   5.347   7.317  0.6878  1.3683  1.9560
  125OSM   C15S13351   5.638   5.334   7.499  0.3957 -0.0392  0.0448
  125OSM   H15S13352   5.552   5.394   7.535 -0.7287 -2.4491  1.6325
  125OSM   H15T13353   5.716   5.412   7.487  0.4191 -0.1279 -0.4190
  125OSM   C16S13354   5.673   5.227   7.606 -0.0908 -1.0734  0.0478
  125OSM   H16S13355   5.772   5.180   7.589 -1.2207 -3.9339  0.7839
  125OSM   H16T13356   5.596   5.148   7.595 -0.0553 -1.3026  1.3323
  125OSM   C17S13357   5.674   5.270   7.757 -0.1704 -0.1621 -0.2979
  125OSM   H17S13358   5.722   5.369   7.769 -2.6140  0.9553  1.1498
  125OSM   H17T13359   5.733   5.192   7.810 -1.2549 -0.6592  0.2123
  125OSM   C18S13360   5.529   5.278   7.823  0.4313  0.2832 -0.0305
  125OSM   H18S13361   5.484   5.176   7.821 -1.7312  1.1810 -2.3470
  125OSM   H18T13362   5.468   5.350   7.764  0.8828  1.2675  0.6812
  125OSM   H18U13363   5.536   5.304   7.931 -0.8757  0.4857  0.0213
  125OSM    C1F13364   4.912   5.148   6.478  0.3050 -0.1487  0.5909
  125OSM     OF13365   4.870   5.048   6.420 -0.6160  0.1134  0.2546
  125OSM    C2F13366   4.855   5.198   6.604 -0.5906  0.2894 -0.3299
  125OSM    H2F13367   4.745   5.190   6.612 -0.5710 -0.1332 -0.4656
  125OSM    H2G13368   4.875   5.305   6.626 -0.7257  0.1834  0.3048
  125OSM    C3F13369   4.937   5.119   6.715  0.0802  0.6762  0.2070
  125OSM    H3F13370   5.048   5.117   6.707  0.2766 -1.1140  2.3851
  125OSM    H3G13371   4.910   5.012   6.726 -1.3891  0.9776 -0.2967
  125OSM    C4F13372   4.903   5.185   6.848 -0.3039 -0.3800 -0.0548
  125OSM    H4F13373   4.795   5.172   6.871  0.2364 -1.7379  2.0494
  125OSM    H4G13374   4.912   5.293   6.825 -2.8849 -0.6120 -2.6805
  125OSM    C5F13375   4.993   5.153   6.969  0.4196  0.0898 -0.0565
  125OSM    H5F13376   5.099   5.150   6.934  1.0727  3.0291  1.3429
  125OSM    H5G13377   4.962   5.051   6.999 -0.7391 -0.0349 -1.5619
  125OSM    C6F13378   4.973   5.250   7.084  0.2532 -0.0610 -0.1751
  125OSM    H6F13379   4.865   5.259   7.111 -0.2369 -2.2170 -1.1884
  125OSM    H6G13380   5.015   5.348   7.055  0.1580 -0.5002 -1.9154
  125OSM    C7F13381   5.051   5.197   7.202 -0.2080  0.0736 -1.1389
  125OSM    H7F13382   5.157   5.197   7.170 -0.7579  2.9561 -3.3228
  125OSM    H7G13383   5.023   5.092   7.227 -0.0706  0.0263 -1.1853
  125OSM    C8F13384   5.057   5.283   7.331 -0.7915 -0.1897  0.7161
  125OSM    H8F13385   5.114   5.374   7.301 -0.7629 -0.6650 -0.7505
  125OSM    H8G13386   5.122   5.227   7.401  0.9996  1.9417  0.8836
  125OSM    C9F13387   4.932   5.331   7.397 -0.5191 -0.4801 -0.3894
  125OSM    H9F13388   4.854   5.364   7.327 -2.3683 -0.7286  1.4284
  125OSM   C10F13389   4.892   5.323   7.529  0.0173  0.5948  0.3203
  125OSM   H10F13390   4.796   5.366   7.561 -0.5306  0.3824 -0.9521
  125OSM   C11F13391   4.987   5.280   7.638  0.6412 -0.4637 -0.8284
  125OSM   H11F13392   5.094   5.270   7.613  0.3008  0.0303 -2.6139
  125OSM   H11G13393   4.937   5.184   7.664 -1.4942  0.5917 -0.7883
  125OSM   C12F13394   4.994   5.376   7.769  0.0798  0.6492  0.4008
  125OSM   H12F13395   4.890   5.404   7.798  0.4541 -0.0283  2.5877
  125OSM   H12G13396   5.041   5.473   7.743  0.3605  0.0409 -1.5050
  125OSM   C13F13397   5.054   5.311   7.901  0.1617  0.0250 -0.2116
  125OSM   H13F13398   5.160   5.282   7.885  0.3537  0.3868  0.3976
  125OSM   H13G13399   4.997   5.217   7.919  1.4001 -0.4179  1.6756
  125OSM   C14F13400   5.011   5.378   8.032 -0.4491  0.0502  0.3936
  125OSM   H14F13401   4.901   5.378   8.053 -0.6723 -0.6483 -0.6662
  125OSM   H14G13402   5.038   5.482   8.006 -2.0288 -0.0500 -1.9327
  125OSM   C15F13403   5.088   5.334   8.155 -0.2689 -0.0646  0.2251
  125OSM   H15F13404   5.049   5.241   8.202  0.3419 -1.0491 -1.1638
  125OSM   H15G13405   5.070   5.417   8.226 -0.9041 -0.2541  0.2905
  125OSM   C16F13406   5.241   5.314   8.131  0.1674 -0.2342 -0.0876
  125OSM   H16F13407   5.284   5.405   8.085 -0.2426 -0.1106 -0.2363
  125OSM   H16G13408   5.242   5.230   8.058 -0.7671 -1.1730  0.9411
  125OSM   C17F13409   5.322   5.260   8.256 -0.8150  0.1201  0.6367
  125OSM   H17F13410   5.423   5.244   8.211 -0.8044  2.9784 -0.5631
  125OSM   H17G13411   5.285   5.159   8.284  1.1755 -0.2460  2.1332
  125OSM   C18F13412   5.331   5.355   8.374  0.0911 -0.3524 -0.2138
  125OSM   H18F13413   5.235   5.403   8.406  1.0837  1.0747  0.7683
  125OSM   H18G13414   5.381   5.449   8.341  2.8771 -0.1896  3.8583
  125OSM   H18H13415   5.384   5.311   8.461 -1.2406  0.7134  1.1982
  126OSM      N13416   3.160   4.739   6.025  0.7020  0.2544 -0.4161
  126OSM    C1513417   3.268   4.728   5.930 -0.1959  0.0184 -0.3160
  126OSM   H15A13418   3.361   4.775   5.960 -0.8764 -0.1925  2.4237
  126OSM   H15B13419   3.248   4.762   5.830  2.0151  0.3818 -0.6752
  126OSM   H15C13420   3.288   4.623   5.914  1.1166  0.2237 -0.1127
  126OSM    C1413421   3.027   4.698   5.954  0.4525 -0.2459 -0.6758
  126OSM   H14A13422   3.033   4.624   5.876  0.2282  0.6944 -1.6203
  126OSM   H14B13423   2.996   4.793   5.912 -0.0583 -1.0189 -2.0897
  126OSM   H14C13424   2.942   4.683   6.018  1.6594  0.5254  1.2253
  126OSM    C1313425   3.191   4.651   6.135  0.0741  0.1159 -0.8046
  126OSM   H13A13426   3.261   4.700   6.201 -1.8688  0.2193  1.2903
  126OSM   H13B13427   3.224   4.554   6.102  1.3353 -0.0062  0.7067
  126OSM   H13C13428   3.105   4.621   6.193  0.5612 -2.4994 -1.3289
  126OSM    C1213429   3.151   4.889   6.069 -0.7428  0.1786 -0.4672
  126OSM   H12A13430   3.125   4.951   5.984  0.0404  2.8212  1.1336
  126OSM   H12B13431   3.251   4.917   6.096 -1.3352  2.1351 -0.1267
  126OSM    C1113432   3.057   4.921   6.185  0.1024  0.8742  0.1073
  126OSM   H11A13433   3.076   5.026   6.218  0.9019  0.6513  0.3710
  126OSM   H11B13434   3.084   4.848   6.263 -2.7944 -0.0900  0.3466
  126OSM      P13435   2.819   4.834   6.221 -0.2762 -0.8108  0.2305
  126OSM    O1313436   2.685   4.848   6.161 -0.2064 -0.4365  0.1037
  126OSM    O1413437   2.873   4.695   6.229 -0.1747  0.3284  0.1042
  126OSM    O1113438   2.819   4.910   6.359 -0.0577 -0.0637 -0.3578
  126OSM    O1213439   2.926   4.925   6.140 -0.5763 -0.5617  0.0089
  126OSM    C1S13440   2.713   4.982   6.414 -0.3876  0.2072  0.0026
  126OSM    H1S13441   2.615   4.937   6.388  0.3300 -0.9866 -0.7559
  126OSM    H1T13442   2.726   5.083   6.370  5.6241 -0.4115 -0.4888
  126OSM     NF13443   2.615   5.072   6.620 -0.3724 -0.1256 -0.0016
  126OSM    HNF13444   2.625   5.171   6.632 -0.5954 -0.0122 -0.6980
  126OSM    C2S13445   2.729   4.997   6.568  0.1793  0.2292 -0.2176
  126OSM    H2S13446   2.730   4.899   6.620 -0.0481  0.7772  0.8311
  126OSM    C3S13447   2.868   5.060   6.599  0.3817 -0.0550 -0.5286
  126OSM    H3S13448   2.881   5.162   6.556  2.0599 -0.0690 -0.1259
  126OSM     O313449   2.985   4.987   6.554  0.3104 -0.5950 -0.4880
  126OSM    HO313450   2.956   4.946   6.472 -1.8909 -0.9664  0.4149
  126OSM    C4S13451   2.874   5.078   6.748 -0.4816 -0.3775  0.4830
  126OSM    H4S13452   2.835   5.175   6.781  1.5271 -0.6773  4.3224
  126OSM    C5S13453   2.923   4.996   6.838 -0.1886  0.2462 -0.2040
  126OSM    H5S13454   2.986   4.910   6.810  1.3725  1.3119 -0.1029
  126OSM    C6S13455   2.922   5.020   6.984 -0.6583  0.2557 -0.1119
  126OSM    H6S13456   2.927   4.930   7.050 -1.3844  0.5887  0.4109
  126OSM    H6T13457   2.837   5.085   7.013 -1.9553 -1.7361  0.7374
  126OSM    C7S13458   3.057   5.102   7.002 -0.3966  0.0003 -0.0765
  126OSM    H7S13459   3.054   5.211   6.979  0.5816  0.0824  0.1676
  126OSM    H7T13460   3.138   5.052   6.945 -0.0899 -0.0362  0.3920
  126OSM    C8S13461   3.095   5.089   7.148 -0.9407  0.1836 -0.4033
  126OSM    H8S13462   3.203   5.111   7.161 -1.3589  1.2320  1.6385
  126OSM    H8T13463   3.079   4.980   7.162 -2.2102  0.0187 -2.6883
  126OSM    C9S13464   3.017   5.179   7.233  0.2734  0.7466  0.7139
  126OSM    H9S13465   2.907   5.169   7.225  0.4143  0.1198 -0.7370
  126OSM    H9T13466   3.046   5.284   7.211  0.3534  0.3591 -1.2102
  126OSM   C10S13467   3.032   5.145   7.382 -0.1056 -0.5135  0.4311
  126OSM   H10S13468   2.980   5.053   7.417  2.5981 -3.3528 -2.4137
  126OSM   H10T13469   2.995   5.234   7.438  2.8562  0.8921  0.3689
  126OSM   C11S13470   3.180   5.137   7.429  0.4600  0.7886  0.2621
  126OSM   H11S13471   3.242   5.214   7.378  2.0434 -0.4786  0.2130
  126OSM   H11T13472   3.222   5.039   7.401 -0.8912  0.2239  0.1075
  126OSM   C12S13473   3.182   5.156   7.581 -0.6153  0.4160 -0.0043
  126OSM   H12S13474   3.122   5.079   7.633  0.3282  0.1700  0.7333
  126OSM   H12T13475   3.123   5.249   7.598 -0.0416  0.7057  0.4491
  126OSM   C13S13476   3.328   5.165   7.630  0.2950 -0.0159 -0.4712
  126OSM   H13S13477   3.373   5.242   7.564  0.6486 -1.5638 -2.0851
  126OSM   H13T13478   3.386   5.071   7.616  1.0757  0.5748 -1.2686
  126OSM   C14S13479   3.341   5.203   7.777 -0.6321  0.7176  0.4219
  126OSM   H14S13480   3.311   5.119   7.843  0.8001 -1.2951 -1.3575
  126OSM   H14T13481   3.293   5.300   7.802 -0.1415  0.4631  2.5470
  126OSM   C15S13482   3.496   5.205   7.815 -0.1832  0.2870 -0.1264
  126OSM   H15S13483   3.546   5.283   7.755  4.0639 -1.1799  1.1951
  126OSM   H15T13484   3.529   5.101   7.793 -0.4103 -0.4628  2.6891
  126OSM   C16S13485   3.540   5.243   7.961  0.9071 -0.2950  0.1961
  126OSM   H16S13486   3.490   5.340   7.983  1.5979  0.0642  0.2081
  126OSM   H16T13487   3.651   5.240   7.965  0.8792 -1.6508  0.4551
  126OSM   C17S13488   3.489   5.149   8.068 -0.2761  0.8257  0.2673
  126OSM   H17S13489   3.542   5.053   8.052 -0.3225  1.2133 -2.8362
  126OSM   H17T13490   3.381   5.132   8.048  0.2586 -2.5719 -0.2181
  126OSM   C18S13491   3.504   5.213   8.214  1.4198 -0.8056 -0.5427
  126OSM   H18S13492   3.459   5.314   8.218  0.2172 -1.3626  0.6090
  126OSM   H18T13493   3.608   5.210   8.252  2.2585 -2.1106 -2.7257
  126OSM   H18U13494   3.442   5.155   8.285  2.2565  0.3643  1.2136
  126OSM    C1F13495   2.495   5.010   6.628 -0.1744  0.0077 -0.1165
  126OSM     OF13496   2.477   4.897   6.583  0.0363  0.5158 -0.1900
  126OSM    C2F13497   2.384   5.092   6.676  0.2834  0.3564 -0.3762
  126OSM    H2F13498   2.374   5.167   6.595 -1.0668 -0.4013 -0.9506
  126OSM    H2G13499   2.421   5.145   6.766 -1.2975  2.7543 -1.0497
  126OSM    C3F13500   2.254   5.019   6.723 -0.7160  0.4295  0.0687
  126OSM    H3F13501   2.199   4.980   6.634 -1.4926  0.0926  0.6857
  126OSM    H3G13502   2.186   5.095   6.766  0.2890  0.4589  1.6908
  126OSM    C4F13503   2.283   4.904   6.828 -0.2386 -0.4090 -0.8333
  126OSM    H4F13504   2.385   4.868   6.802 -0.8037 -1.1456 -2.1017
  126OSM    H4G13505   2.206   4.831   6.795 -2.7094  1.1300  1.1061
  126OSM    C5F13506   2.257   4.949   6.969  0.3865  0.0420  0.6776
  126OSM    H5F13507   2.267   4.868   7.044  0.9854 -2.0276 -1.5125
  126OSM    H5G13508   2.151   4.980   6.972 -0.2873 -1.9377 -0.6245
  126OSM    C6F13509   2.348   5.058   7.025 -0.1994 -0.2929 -0.2586
  126OSM    H6F13510   2.305   5.076   7.126  0.9591 -2.5878  0.7058
  126OSM    H6G13511   2.352   5.154   6.968  0.4200 -0.2694 -0.1884
  126OSM    C7F13512   2.499   5.017   7.046 -0.2460  0.0629 -0.1573
  126OSM    H7F13513   2.557   5.102   7.089 -0.6860  0.6941 -0.7920
  126OSM    H7G13514   2.553   4.978   6.957  2.2994  0.9244  0.9164
  126OSM    C8F13515   2.509   4.915   7.160  0.0612  0.2819  0.5289
  126OSM    H8F13516   2.454   4.827   7.120  2.6186 -0.5589 -1.3789
  126OSM    H8G13517   2.448   4.949   7.246  0.8891  2.2433  0.3999
  126OSM    C9F13518   2.655   4.878   7.197  0.4372 -0.0839  0.3461
  126OSM    H9F13519   2.695   4.787   7.150  1.9604  0.5455  0.3661
  126OSM   C10F13520   2.722   4.933   7.302  0.5618 -0.4097  0.1894
  126OSM   H10F13521   2.815   4.883   7.331  0.5512  0.6383  2.1656
  126OSM   C11F13522   2.678   5.049   7.394 -0.4664  0.0379 -0.3853
  126OSM   H11F13523   2.573   5.081   7.377 -0.3256  0.6431 -0.1366
  126OSM   H11G13524   2.742   5.136   7.368 -0.2014 -1.0870 -4.1443
  126OSM   C12F13525   2.700   5.012   7.545 -0.1372 -0.5140 -0.2774
  126OSM   H12F13526   2.791   4.948   7.552  0.6901  0.8123  2.2014
  126OSM   H12G13527   2.613   4.957   7.586 -0.8765  1.4556  0.8953
  126OSM   C13F13528   2.707   5.136   7.626 -0.3307 -0.0690 -0.0378
  126OSM   H13F13529   2.612   5.191   7.609  0.1436  0.6120 -0.5493
  126OSM   H13G13530   2.791   5.203   7.594  1.0178  0.3799  3.8439
  126OSM   C14F13531   2.721   5.113   7.775 -0.5199 -0.0280 -0.7822
  126OSM   H14F13532   2.641   5.046   7.812  0.8183  0.4801  3.5860
  126OSM   H14G13533   2.692   5.214   7.813 -1.3380 -0.0087 -1.4194
  126OSM   C15F13534   2.852   5.065   7.840  0.2636 -0.1036  0.3723
  126OSM   H15F13535   2.939   5.121   7.797 -1.1023  2.0361  0.2559
  126OSM   H15G13536   2.859   4.957   7.816 -0.6075  0.2643 -1.8064
  126OSM   C16F13537   2.861   5.097   7.992  0.6451  0.3287  0.4437
  126OSM   H16F13538   2.791   5.031   8.048 -2.3339  0.8590 -2.3699
  126OSM   H16G13539   2.849   5.206   8.007  2.0360  0.3527  1.6652
  126OSM   C17F13540   2.999   5.058   8.053 -0.0975  0.5672  0.2663
  126OSM   H17F13541   3.082   5.086   7.985  0.4561 -1.1503  0.1773
  126OSM   H17G13542   3.013   4.948   8.059  2.0068  0.7193 -0.7105
  126OSM   C18F13543   3.022   5.103   8.195  0.1510 -0.4900 -0.0328
  126OSM   H18F13544   2.991   5.209   8.199 -0.2367 -0.5965 -0.1886
  126OSM   H18G13545   3.119   5.079   8.244 -0.0745 -0.8959  0.2273
  126OSM   H18H13546   2.946   5.062   8.265  0.5288  0.7822  1.1675
  127OSM      N13547   3.617   1.405   6.045  0.5531 -0.5753 -0.0151
  127OSM    C1513548   3.567   1.412   6.191  0.5672  0.4659 -0.2934
  127OSM   H15A13549   3.639   1.463   6.253  1.0062  1.3590 -1.5100
  127OSM   H15B13550   3.564   1.309   6.221 -0.4635  0.6224  0.1991
  127OSM   H15C13551   3.470   1.457   6.206  0.1078 -0.4643 -0.4134
  127OSM    C1413552   3.514   1.336   5.963  0.1786 -0.1687  0.0818
  127OSM   H14A13553   3.524   1.358   5.857 -2.2294 -0.3264 -0.2389
  127OSM   H14B13554   3.410   1.360   5.980  0.3848  0.6551  0.2159
  127OSM   H14C13555   3.532   1.230   5.975  1.7428 -0.1055 -1.3749
  127OSM    C1313556   3.630   1.545   6.006  0.1564 -0.1803 -0.2587
  127OSM   H13A13557   3.537   1.596   6.026  0.2417 -0.2422  0.2910
  127OSM   H13B13558   3.655   1.548   5.901  0.3457  1.5052 -0.1986
  127OSM   H13C13559   3.717   1.587   6.055  2.0532 -3.3073 -0.6793
  127OSM    C1213560   3.753   1.334   6.030  0.3225  0.6435 -0.0836
  127OSM   H12A13561   3.788   1.354   5.930 -0.7099  2.8343 -0.0602
  127OSM   H12B13562   3.739   1.228   6.047  0.1483  0.9627  2.1221
  127OSM    C1113563   3.862   1.379   6.136  0.6931  0.7473 -0.7014
  127OSM   H11A13564   3.953   1.317   6.123  0.3459 -0.7186  2.7088
  127OSM   H11B13565   3.811   1.355   6.232  2.0947  0.5496  0.0113
  127OSM      P13566   3.999   1.556   6.011 -0.0095  0.2710 -0.5978
  127OSM    O1313567   3.938   1.507   5.890  0.4595 -0.0788  0.3837
  127OSM    O1413568   4.038   1.702   6.011 -0.1669 -0.1568  0.0806
  127OSM    O1113569   4.127   1.475   6.036  0.1841  0.2605  0.8390
  127OSM    O1213570   3.896   1.521   6.123  0.2498  0.5140  0.4214
  127OSM    C1S13571   4.215   1.494   6.149 -0.0714 -0.3259  0.5249
  127OSM    H1S13572   4.201   1.597   6.190 -0.7142 -1.2779  2.8300
  127OSM    H1T13573   4.320   1.486   6.112 -0.0432 -0.6085  0.6668
  127OSM     NF13574   4.271   1.446   6.387 -0.6189 -0.1736  0.3225
  127OSM    HNF13575   4.367   1.432   6.410 -0.9709  0.5036  2.4076
  127OSM    C2S13576   4.224   1.386   6.260  0.9826 -0.1197  0.1298
  127OSM    H2S13577   4.123   1.341   6.274 -0.4044  1.2300 -4.2158
  127OSM    C3S13578   4.299   1.260   6.212 -0.2695 -0.5135  0.7061
  127OSM    H3S13579   4.404   1.285   6.186 -0.2918 -0.7359  0.4080
  127OSM     O313580   4.247   1.204   6.091  0.1281 -0.1064  1.0248
  127OSM    HO313581   4.171   1.262   6.080  2.3426  2.7915 -0.4536
  127OSM    C4S13582   4.299   1.157   6.320 -0.4246 -0.4607 -0.1142
  127OSM    H4S13583   4.206   1.145   6.377  1.3109 -0.8513  2.8877
  127OSM    C5S13584   4.409   1.100   6.375 -0.0430  0.3516 -0.0067
  127OSM    H5S13585   4.509   1.133   6.341  0.0180  0.4913  0.3061
  127OSM    C6S13586   4.403   1.025   6.506  0.6859 -0.7024  0.8455
  127OSM    H6S13587   4.476   0.942   6.508  0.2796 -1.3327 -2.6663
  127OSM    H6T13588   4.302   0.982   6.521  1.1565 -3.0348 -1.7689
  127OSM    C7S13589   4.426   1.114   6.625 -0.0573 -0.4608 -0.3895
  127OSM    H7S13590   4.341   1.184   6.642 -0.4317 -1.1452  0.6401
  127OSM    H7T13591   4.519   1.171   6.604  0.3463 -1.2259 -0.7280
  127OSM    C8S13592   4.448   1.028   6.749 -0.0452 -0.2411 -0.0808
  127OSM    H8S13593   4.531   0.957   6.731  2.1263  0.9707  3.9393
  127OSM    H8T13594   4.359   0.979   6.795 -0.4816  0.5477 -0.0687
  127OSM    C9S13595   4.504   1.113   6.875  0.4381  0.0390 -0.3324
  127OSM    H9S13596   4.424   1.189   6.883  1.8268  1.8637 -2.6242
  127OSM    H9T13597   4.588   1.180   6.846 -0.9703  1.3740 -1.5445
  127OSM   C10S13598   4.527   1.025   7.004  0.1805 -0.1045 -0.2530
  127OSM   H10S13599   4.610   0.955   6.983 -1.9378 -2.8444 -0.0653
  127OSM   H10T13600   4.444   0.954   7.024 -0.7099  1.3972  1.7490
  127OSM   C11S13601   4.566   1.109   7.130 -0.2203 -0.1032 -0.4023
  127OSM   H11S13602   4.580   1.040   7.215  0.2936 -0.4630 -0.7693
  127OSM   H11T13603   4.497   1.194   7.151  2.8973  1.9971  2.2501
  127OSM   C12S13604   4.702   1.186   7.108  0.0965  0.4479  0.5080
  127OSM   H12S13605   4.691   1.263   7.029  2.2087  1.4134  1.0944
  127OSM   H12T13606   4.784   1.113   7.090  0.8479  0.7334  2.5127
  127OSM   C13S13607   4.728   1.262   7.244  0.1123  0.0735 -0.0998
  127OSM   H13S13608   4.656   1.345   7.262  0.3718  0.6246 -1.4704
  127OSM   H13T13609   4.830   1.305   7.239 -0.0753  0.5530  0.1123
  127OSM   C14S13610   4.714   1.181   7.376 -0.4915  0.1431 -0.0821
  127OSM   H14S13611   4.802   1.208   7.437  0.3458  0.2673 -1.2965
  127OSM   H14T13612   4.718   1.072   7.355 -2.3814 -0.2606  1.4393
  127OSM   C15S13613   4.587   1.223   7.457 -0.2984 -0.0759  0.1039
  127OSM   H15S13614   4.495   1.234   7.396 -0.4974 -0.0599  0.4004
  127OSM   H15T13615   4.598   1.331   7.483  0.6562  0.2587 -1.5576
  127OSM   C16S13616   4.570   1.142   7.588  0.1886 -0.2734  0.9437
  127OSM   H16S13617   4.502   1.056   7.572 -0.4126  0.1649  1.1095
  127OSM   H16T13618   4.507   1.210   7.650 -0.3324  1.8197 -1.6499
  127OSM   C17S13619   4.690   1.097   7.665 -0.1742  0.1933  0.1069
  127OSM   H17S13620   4.776   1.168   7.664 -0.1119  0.1475  1.1051
  127OSM   H17T13621   4.707   1.008   7.601 -1.2610  0.0921 -0.0437
  127OSM   C18S13622   4.676   1.066   7.817  0.0678  0.5690 -0.1127
  127OSM   H18S13623   4.616   0.973   7.811  1.0018 -0.0215 -0.4470
  127OSM   H18T13624   4.620   1.141   7.877 -0.2160  0.8380 -0.6965
  127OSM   H18U13625   4.776   1.044   7.860  0.0191  1.0996  0.2784
  127OSM    C1F13626   4.186   1.527   6.458 -0.0585  0.3588  0.1594
  127OSM     OF13627   4.070   1.540   6.415  0.2479  0.2998  0.3185
  127OSM    C2F13628   4.241   1.608   6.578 -0.4296 -0.4469  0.2440
  127OSM    H2F13629   4.313   1.685   6.543 -0.1510 -0.4992  0.6877
  127OSM    H2G13630   4.309   1.540   6.636  2.2382  1.0430 -0.9469
  127OSM    C3F13631   4.135   1.664   6.671 -0.1309  0.2148 -0.1086
  127OSM    H3F13632   4.058   1.585   6.686 -1.0308  1.1325  0.2633
  127OSM    H3G13633   4.091   1.749   6.615 -2.2176 -1.2823 -0.8595
  127OSM    C4F13634   4.188   1.727   6.798  0.3175  0.4979  0.0400
  127OSM    H4F13635   4.222   1.641   6.859 -1.5332 -0.4737 -0.2474
  127OSM    H4G13636   4.102   1.780   6.843 -0.1485  1.4914 -1.9281
  127OSM    C5F13637   4.309   1.820   6.786  0.1152  0.2219  0.2012
  127OSM    H5F13638   4.398   1.761   6.755 -0.1673 -1.0224  1.6655
  127OSM    H5G13639   4.339   1.867   6.881  1.8197  0.8811 -0.6277
  127OSM    C6F13640   4.298   1.938   6.689  0.2928  0.0870  0.5439
  127OSM    H6F13641   4.262   1.900   6.592  1.8020 -0.4190  0.1583
  127OSM    H6G13642   4.391   1.994   6.665  0.2131  0.4012  0.9417
  127OSM    C7F13643   4.196   2.047   6.744 -0.1625  0.4445 -0.0938
  127OSM    H7F13644   4.208   2.066   6.853 -0.7919  1.1771 -0.1423
  127OSM    H7G13645   4.096   2.001   6.728 -0.8474  2.2098 -1.2214
  127OSM    C8F13646   4.199   2.187   6.673  0.4076 -0.0885  0.3005
  127OSM    H8F13647   4.116   2.241   6.723  1.6640  0.5405  1.7813
  127OSM    H8G13648   4.176   2.158   6.568  1.0648  1.2241 -0.2280
  127OSM    C9F13649   4.333   2.258   6.661 -0.1524 -0.2348 -0.1985
  127OSM    H9F13650   4.364   2.286   6.560 -1.6328  2.4852  0.0089
  127OSM   C10F13651   4.417   2.288   6.769 -0.1508 -0.0281 -0.2430
  127OSM   H10F13652   4.516   2.332   6.751  1.6039 -3.8470 -1.1003
  127OSM   C11F13653   4.393   2.275   6.918 -0.0363  0.2856  0.4369
  127OSM   H11F13654   4.283   2.260   6.924 -0.5048  2.8655 -0.5499
  127OSM   H11G13655   4.411   2.370   6.973  0.6159  0.7993 -0.6355
  127OSM   C12F13656   4.464   2.154   6.977 -0.2242 -0.2082 -0.3583
  127OSM   H12F13657   4.560   2.205   6.995 -0.9420  0.7793  0.7958
  127OSM   H12G13658   4.481   2.079   6.896  0.5900  0.9792 -1.3122
  127OSM   C13F13659   4.388   2.100   7.094 -0.2348 -0.3555 -0.1619
  127OSM   H13F13660   4.288   2.065   7.059  0.0790 -1.1583 -0.2941
  127OSM   H13G13661   4.380   2.173   7.177 -0.1236 -0.6057  0.0706
  127OSM   C14F13662   4.449   1.971   7.152  0.1498 -0.5541  0.3289
  127OSM   H14F13663   4.537   2.009   7.207 -0.8816 -1.6164  2.8605
  127OSM   H14G13664   4.484   1.894   7.079 -1.6354  1.4923 -2.9674
  127OSM   C15F13665   4.350   1.903   7.237 -0.2679  0.7608 -0.2843
  127OSM   H15F13666   4.260   1.878   7.177  1.4253 -3.2762 -1.4783
  127OSM   H15G13667   4.318   1.979   7.312  1.5321  0.8656  0.4155
  127OSM   C16F13668   4.396   1.768   7.305 -0.3315  0.0645  0.2104
  127OSM   H16F13669   4.407   1.682   7.236  0.5916  0.1618  0.2295
  127OSM   H16G13670   4.311   1.744   7.372  0.2667  0.3237  1.0778
  127OSM   C17F13671   4.517   1.768   7.401 -0.1537 -0.4834  0.1690
  127OSM   H17F13672   4.487   1.829   7.489 -0.2931 -0.8702  0.3888
  127OSM   H17G13673   4.613   1.810   7.363 -0.6496 -0.0742 -0.6621
  127OSM   C18F13674   4.547   1.628   7.461  0.1657 -0.3200 -0.0814
  127OSM   H18F13675   4.451   1.574   7.481 -0.7968  1.4559  0.2648
  127OSM   H18G13676   4.604   1.632   7.556  0.4461 -1.6813 -0.1589
  127OSM   H18H13677   4.610   1.566   7.393  1.4223 -0.5442  1.2600
  128OSM      N13678   5.777   0.080   5.929 -0.1029  0.6096 -0.6998
  128OSM    C1513679   5.741   0.045   6.070 -0.4766  0.0827  0.1559
  128OSM   H15A13680   5.641   0.004   6.076 -0.6179  0.5622  1.3791
  128OSM   H15B13681   5.753   0.129   6.137 -1.5311  0.0384  0.4189
  128OSM   H15C13682   5.807  -0.037   6.097  0.1084 -0.3565 -2.4010
  128OSM    C1413683   5.680   0.176   5.864 -0.7605  0.8392 -0.2573
  128OSM   H14A13684   5.580   0.137   5.878 -0.3043 -0.5643 -0.8178
  128OSM   H14B13685   5.693   0.197   5.759  0.0356 -3.5136 -1.2155
  128OSM   H14C13686   5.688   0.267   5.922 -1.0297 -1.1681  3.2489
  128OSM    C1313687   5.911   0.140   5.929 -0.2320  0.0528  0.1920
  128OSM   H13A13688   5.931   0.187   5.834 -0.3539 -0.9556 -0.3364
  128OSM   H13B13689   5.982   0.061   5.946  1.4152  1.7009  1.4771
  128OSM   H13C13690   5.917   0.206   6.015 -2.4813  0.5964 -0.0047
  128OSM    C1213691   5.780  -0.048   5.849 -0.1216  0.2280 -0.7228
  128OSM   H12A13692   5.801  -0.019   5.747 -2.3834 -0.3013 -1.3888
  128OSM   H12B13693   5.688  -0.103   5.854 -1.2938  2.2082  0.9497
  128OSM    C1113694   5.884  -0.152   5.889  0.3820  0.4028 -0.1534
  128OSM   H11A13695   5.984  -0.110   5.915  0.1589  0.5990  0.4143
  128OSM   H11B13696   5.906  -0.212   5.798  0.4072  1.8715 -1.1636
  128OSM      P13697   5.907  -0.385   6.018 -0.4804 -0.4100 -0.1046
  128OSM    O1313698   5.821  -0.462   5.923 -0.6466 -0.0064 -0.2877
  128OSM    O1413699   6.055  -0.388   6.003  0.1018 -0.1199  0.5449
  128OSM    O1113700   5.866  -0.430   6.164 -0.4827 -0.0945 -0.1743
  128OSM    O1213701   5.846  -0.235   6.005 -0.1740 -0.1252  0.3695
  128OSM    C1S13702   5.819  -0.327   6.257 -0.6889 -0.2931 -0.5484
  128OSM    H1S13703   5.721  -0.285   6.226  0.2874  0.2652 -3.1362
  128OSM    H1T13704   5.880  -0.234   6.256 -0.6490 -0.3194 -1.5147
  128OSM     NF13705   5.740  -0.271   6.490  0.0680  0.0993 -0.1369
  128OSM    HNF13706   5.788  -0.223   6.563 -3.3677  2.5393  0.7496
  128OSM    C2S13707   5.802  -0.374   6.405  0.4497  0.5835 -0.4159
  128OSM    H2S13708   5.727  -0.456   6.397  0.0031  0.9144  0.2717
  128OSM    C3S13709   5.942  -0.428   6.451  0.3033 -0.1794  0.1709
  128OSM    H3S13710   6.014  -0.345   6.435  0.1350 -0.3775 -1.7947
  128OSM     O313711   5.996  -0.525   6.364  0.2746  0.6123 -0.0107
  128OSM    HO313712   5.957  -0.512   6.277  2.4552  0.2425 -1.1224
  128OSM    C4S13713   5.945  -0.464   6.599 -0.5058 -0.3077 -0.5125
  128OSM    H4S13714   5.966  -0.381   6.668 -0.4681 -1.1108  0.4634
  128OSM    C5S13715   5.923  -0.587   6.647 -0.4115  0.7990 -0.6747
  128OSM    H5S13716   5.898  -0.668   6.577 -0.3332  1.2026 -1.1761
  128OSM    C6S13717   5.910  -0.623   6.791  0.0371 -0.3203  0.0868
  128OSM    H6S13718   5.998  -0.680   6.829  0.8915  0.3077 -0.9019
  128OSM    H6T13719   5.834  -0.704   6.797 -0.7471  0.5246  3.3101
  128OSM    C7S13720   5.879  -0.509   6.894 -0.6024  0.4213  0.5310
  128OSM    H7S13721   5.797  -0.444   6.857 -2.0452 -2.0015 -0.7982
  128OSM    H7T13722   5.969  -0.444   6.889  1.0440 -1.7581 -3.7386
  128OSM    C8S13723   5.856  -0.559   7.035  0.2780  0.5953 -0.5705
  128OSM    H8S13724   5.928  -0.643   7.049 -3.1829 -2.6122 -0.4115
  128OSM    H8T13725   5.771  -0.630   7.045  2.4062 -2.0873 -0.2537
  128OSM    C9S13726   5.875  -0.450   7.142  0.9667  0.5259 -0.0261
  128OSM    H9S13727   5.797  -0.374   7.119 -0.4707 -0.3437  1.7414
  128OSM    H9T13728   5.973  -0.398   7.145  1.9534 -1.3028  0.7358
  128OSM   C10S13729   5.835  -0.514   7.280 -0.6023 -0.2553 -1.3102
  128OSM   H10S13730   5.917  -0.576   7.320  0.8602  1.6963 -1.1581
  128OSM   H10T13731   5.749  -0.584   7.274 -0.6112 -0.4152  0.2637
  128OSM   C11S13732   5.781  -0.416   7.388 -0.4666 -0.4223  0.3591
  128OSM   H11S13733   5.690  -0.362   7.358 -0.6957 -1.6008 -1.1740
  128OSM   H11T13734   5.852  -0.330   7.387  2.2425 -2.5198  0.6846
  128OSM   C12S13735   5.777  -0.469   7.525  0.9390  0.1561 -0.6297
  128OSM   H12S13736   5.751  -0.576   7.541  1.4268  0.2702  1.2394
  128OSM   H12T13737   5.684  -0.428   7.570  0.9209 -2.4896  2.0519
  128OSM   C13S13738   5.890  -0.442   7.617  0.0129 -0.2625 -0.0507
  128OSM   H13S13739   5.897  -0.332   7.629  1.6562 -0.3157 -0.1987
  128OSM   H13T13740   5.989  -0.465   7.572  1.2072 -0.7902  2.6606
  128OSM   C14S13741   5.876  -0.512   7.756 -0.0605  0.0258 -0.0619
  128OSM   H14S13742   5.905  -0.619   7.761 -1.4683 -0.3410  0.8200
  128OSM   H14T13743   5.769  -0.499   7.785 -0.0019  2.9335 -0.7917
  128OSM   C15S13744   5.947  -0.431   7.870  0.2542 -0.3769  0.0374
  128OSM   H15S13745   5.904  -0.328   7.875 -1.6634 -1.0742 -1.2389
  128OSM   H15T13746   6.056  -0.414   7.853 -0.2743  2.2349 -1.2442
  128OSM   C16S13747   5.922  -0.489   8.013  0.1145 -0.2376 -0.2196
  128OSM   H16S13748   5.989  -0.447   8.092  0.9862  0.2857 -1.2161
  128OSM   H16T13749   5.971  -0.588   8.012  0.5497 -0.0251 -1.3628
  128OSM   C17S13750   5.779  -0.490   8.065  0.4677 -0.0902  0.7289
  128OSM   H17S13751   5.704  -0.545   8.004  1.1703  0.5231 -0.7425
  128OSM   H17T13752   5.751  -0.382   8.061 -1.3880 -0.5522 -0.0409
  128OSM   C18S13753   5.758  -0.534   8.202  0.2565  0.6097  0.1117
  128OSM   H18S13754   5.652  -0.539   8.236  0.7900 -1.4196  1.7251
  128OSM   H18T13755   5.821  -0.481   8.277 -0.1336  0.7823  0.3213
  128OSM   H18U13756   5.796  -0.638   8.205  2.0625  0.9662 -4.1066
  128OSM    C1F13757   5.620  -0.216   6.463 -0.3611 -0.6765 -0.6961
  128OSM     OF13758   5.546  -0.266   6.380 -0.1548  0.1229  0.7064
  128OSM    C2F13759   5.588  -0.083   6.525  0.2137  0.5338  0.6136
  128OSM    H2F13760   5.545  -0.017   6.447  0.3273  0.8507  0.8180
  128OSM    H2G13761   5.683  -0.034   6.557  0.2358  2.0925 -1.5872
  128OSM    C3F13762   5.476  -0.088   6.625 -0.1657  0.4476  0.3713
  128OSM    H3F13763   5.380  -0.114   6.575  0.2230 -0.3188  0.0007
  128OSM    H3G13764   5.465   0.013   6.669 -2.2491  1.1140 -1.4581
  128OSM    C4F13765   5.493  -0.193   6.737 -0.4121  0.1087 -0.7689
  128OSM    H4F13766   5.505  -0.294   6.691  0.8520 -0.4128  0.6486
  128OSM    H4G13767   5.399  -0.192   6.796  0.4537  0.2370  0.6560
  128OSM    C5F13768   5.614  -0.182   6.832  0.1294  0.0349  0.2800
  128OSM    H5F13769   5.700  -0.221   6.772 -2.0945 -1.1994 -2.3124
  128OSM    H5G13770   5.602  -0.230   6.931  1.2644  1.0438  0.9352
  128OSM    C6F13771   5.654  -0.040   6.858 -0.1748  0.4679 -0.3230
  128OSM    H6F13772   5.558   0.005   6.892  0.3649  0.3732  1.4131
  128OSM    H6G13773   5.688   0.006   6.763  1.8419  1.7274  0.9451
  128OSM    C7F13774   5.779  -0.027   6.956  0.3184 -0.4915  0.2081
  128OSM    H7F13775   5.794   0.083   6.949  0.9414 -0.5931 -0.1072
  128OSM    H7G13776   5.870  -0.081   6.921 -0.0067 -0.5404 -0.5728
  128OSM    C8F13777   5.756  -0.062   7.109  0.5896  0.3415 -0.2545
  128OSM    H8F13778   5.722  -0.168   7.108  0.0451  0.5136 -0.0379
  128OSM    H8G13779   5.676   0.003   7.150  1.2654  1.3572 -0.5248
  128OSM    C9F13780   5.876  -0.066   7.203  0.5031 -0.2637  0.0776
  128OSM    H9F13781   5.972  -0.076   7.152  0.8491  0.3522  0.5830
  128OSM   C10F13782   5.868  -0.035   7.333 -0.1623 -0.0665 -0.4437
  128OSM   H10F13783   5.961  -0.026   7.390  0.5942  1.9857 -1.9008
  128OSM   C11F13784   5.740  -0.027   7.417  0.5418 -0.4420  1.1622
  128OSM   H11F13785   5.722  -0.126   7.464 -1.0177 -0.4030  0.6822
  128OSM   H11G13786   5.653  -0.014   7.350  0.0915  0.5928  1.9235
  128OSM   C12F13787   5.741   0.080   7.528  0.4805  0.6368 -0.1103
  128OSM   H12F13788   5.637   0.118   7.541 -0.1510 -0.7388 -0.9091
  128OSM   H12G13789   5.811   0.157   7.490  0.3082  0.3516 -1.0144
  128OSM   C13F13790   5.785   0.015   7.661 -0.4041 -0.3340  0.0805
  128OSM   H13F13791   5.886  -0.028   7.651  0.1493  0.7061  1.0109
  128OSM   H13G13792   5.718  -0.070   7.689  1.3729 -2.4692 -1.7947
  128OSM   C14F13793   5.796   0.122   7.774 -0.8728 -0.4373 -0.1790
  128OSM   H14F13794   5.698   0.121   7.826 -1.7785 -3.2653 -1.7182
  128OSM   H14G13795   5.811   0.224   7.734  0.5469 -0.7053 -0.3753
  128OSM   C15F13796   5.909   0.080   7.877  0.4874 -0.1730 -0.2947
  128OSM   H15F13797   6.008   0.114   7.841 -1.1063  2.0072 -3.1712
  128OSM   H15G13798   5.897  -0.030   7.885 -1.2730 -0.0256 -0.3925
  128OSM   C16F13799   5.874   0.133   8.022  0.1679  0.2596  0.4239
  128OSM   H16F13800   5.772   0.099   8.049 -0.0691 -0.2837 -1.0594
  128OSM   H16G13801   5.877   0.244   8.024 -1.1879  0.3635 -1.2071
  128OSM   C17F13802   5.965   0.070   8.128  0.1268  0.6089 -0.1979
  128OSM   H17F13803   5.970   0.136   8.216 -1.1211 -2.1398  2.1125
  128OSM   H17G13804   6.072   0.060   8.097 -0.0482 -1.0957 -0.3749
  128OSM   C18F13805   5.917  -0.057   8.183 -0.4525  0.7009 -0.4964
  128OSM   H18F13806   5.921  -0.137   8.105  0.1645 -0.1883  0.4193
  128OSM   H18G13807   5.814  -0.045   8.224 -0.9348  0.2556 -1.5444
  128OSM   H18H13808   5.982  -0.093   8.265  0.4445 -0.0162 -1.5012
  129OSM      N13809   5.309   3.247   5.805  0.0606  0.5124  0.4645
  129OSM    C1513810   5.336   3.390   5.822  0.2453 -0.9122  0.7341
  129OSM   H15A13811   5.252   3.446   5.785  0.7374 -1.4483 -1.3286
  129OSM   H15B13812   5.419   3.422   5.760 -1.2220  1.2376 -0.2459
  129OSM   H15C13813   5.355   3.413   5.926  0.0037  1.8320  0.2284
  129OSM    C1413814   5.296   3.220   5.655  0.3001  0.3080 -0.0096
  129OSM   H14A13815   5.228   3.287   5.605  0.2310 -0.7648 -1.3980
  129OSM   H14B13816   5.262   3.120   5.634 -1.2200  0.7587  0.1905
  129OSM   H14C13817   5.394   3.227   5.610  0.4275 -0.7585  0.0704
  129OSM    C1313818   5.425   3.162   5.846 -0.1422  0.1555  0.4818
  129OSM   H13A13819   5.448   3.185   5.949  1.7850  4.8392 -0.7135
  129OSM   H13B13820   5.519   3.185   5.797 -0.6640 -0.4831 -0.8781
  129OSM   H13C13821   5.412   3.056   5.829  0.8929 -0.1617  1.5072
  129OSM    C1213822   5.193   3.211   5.884  0.1860 -0.4263 -1.0709
  129OSM   H12A13823   5.190   3.104   5.894  0.4150 -0.3367  0.2275
  129OSM   H12B13824   5.101   3.223   5.830 -0.9757  0.0987  0.8937
  129OSM    C1113825   5.183   3.263   6.032 -0.0597  0.2629  0.0715
  129OSM   H11A13826   5.081   3.241   6.071 -0.7701  1.3541 -1.1023
  129OSM   H11B13827   5.200   3.373   6.033  2.5633 -0.1008  0.3761
  129OSM      P13828   5.271   3.042   6.145  0.1304  0.1807 -0.5835
  129OSM    O1313829   5.255   2.966   6.021  0.2149  0.2025 -0.0852
  129OSM    O1413830   5.385   3.017   6.231 -0.4045  0.2487  0.0509
  129OSM    O1113831   5.135   3.029   6.230  0.3127  0.1774 -0.5962
  129OSM    O1213832   5.281   3.189   6.110 -0.5603 -0.5460 -0.1020
  129OSM    C1S13833   5.070   2.909   6.272 -0.9673  0.4720  0.4655
  129OSM    H1S13834   5.054   2.850   6.179 -2.1577  1.0375  0.2818
  129OSM    H1T13835   4.967   2.932   6.307 -0.9412 -0.4276  1.1738
  129OSM     NF13836   5.090   2.702   6.396  0.0486 -0.4638  0.2772
  129OSM    HNF13837   5.018   2.691   6.464 -1.3367 -1.1561 -1.2577
  129OSM    C2S13838   5.140   2.836   6.385 -0.1225  0.1684 -0.4369
  129OSM    H2S13839   5.247   2.830   6.356  0.3722  1.2412  1.0843
  129OSM    C3S13840   5.140   2.924   6.513  0.0502 -0.2997  0.3723
  129OSM    H3S13841   5.035   2.925   6.550 -0.1619 -2.3782 -0.0650
  129OSM     O313842   5.168   3.061   6.489 -0.1100 -0.0383 -0.5988
  129OSM    HO313843   5.171   3.068   6.393 -1.5006 -0.2737 -0.6850
  129OSM    C4S13844   5.229   2.869   6.625  0.1712 -0.3241  0.5351
  129OSM    H4S13845   5.174   2.819   6.706 -0.2320  0.0634  0.5030
  129OSM    C5S13846   5.362   2.883   6.630  0.3706 -0.0871  0.3451
  129OSM    H5S13847   5.405   2.951   6.556 -1.3419 -2.7352 -3.3843
  129OSM    C6S13848   5.441   2.857   6.758  0.0886  0.0771 -0.4411
  129OSM    H6S13849   5.489   2.758   6.745  0.6172  0.4166 -1.1450
  129OSM    H6T13850   5.365   2.848   6.838  1.5187  1.4987  1.1664
  129OSM    C7S13851   5.538   2.976   6.789 -0.0457 -0.3458 -0.1680
  129OSM    H7S13852   5.596   2.993   6.696  0.2885 -0.0581  0.0895
  129OSM    H7T13853   5.605   2.934   6.868 -0.8671 -1.4868 -0.0474
  129OSM    C8S13854   5.457   3.093   6.830 -0.1916 -0.2641 -0.0606
  129OSM    H8S13855   5.377   3.126   6.761 -0.0274  1.7903  0.6780
  129OSM    H8T13856   5.526   3.179   6.840  0.5846 -0.5600 -2.3530
  129OSM    C9S13857   5.391   3.085   6.971  0.6801  0.6067  0.3957
  129OSM    H9S13858   5.323   3.000   6.993  1.9033 -0.3206  0.6627
  129OSM    H9T13859   5.321   3.171   6.972 -0.0670  0.0504 -0.8876
  129OSM   C10S13860   5.484   3.095   7.095  0.3461  0.2339 -0.3388
  129OSM   H10S13861   5.558   3.172   7.067  0.4372  0.1122 -0.4295
  129OSM   H10T13862   5.529   2.994   7.096  1.7209  0.7878 -1.9143
  129OSM   C11S13863   5.412   3.123   7.231 -0.1822  0.3172 -0.4453
  129OSM   H11S13864   5.302   3.105   7.231 -0.2513  0.7298 -0.5457
  129OSM   H11T13865   5.410   3.232   7.250 -2.1589  0.1379  0.6894
  129OSM   C12S13866   5.441   3.047   7.360  0.0950  0.3156  0.3983
  129OSM   H12S13867   5.539   3.080   7.402 -0.9716  4.3430  0.1166
  129OSM   H12T13868   5.446   2.940   7.332  1.6861  0.6827 -0.8836
  129OSM   C13S13869   5.321   3.049   7.461  0.7136 -0.3845 -0.3318
  129OSM   H13S13870   5.230   2.999   7.419  0.9757  0.0824 -1.5112
  129OSM   H13T13871   5.301   3.154   7.490  1.2086 -0.6980  1.2481
  129OSM   C14S13872   5.359   2.968   7.586 -0.4730  0.1100  0.6969
  129OSM   H14S13873   5.426   3.032   7.647  1.1680  0.4410 -1.3330
  129OSM   H14T13874   5.435   2.887   7.580 -1.3222 -0.7886  1.8652
  129OSM   C15S13875   5.247   2.929   7.687 -0.1663 -0.2123  0.3255
  129OSM   H15S13876   5.209   2.829   7.655  0.9820 -0.0217 -1.8902
  129OSM   H15T13877   5.170   3.007   7.674  0.8921  1.1170  1.6775
  129OSM   C16S13878   5.287   2.935   7.835 -0.0632  0.0553 -0.0699
  129OSM   H16S13879   5.349   3.026   7.843  0.5039 -0.1900 -1.3561
  129OSM   H16T13880   5.344   2.841   7.850  1.6189  0.8089 -1.3802
  129OSM   C17S13881   5.168   2.936   7.938  0.3597  0.4899 -0.8699
  129OSM   H17S13882   5.222   2.935   8.036  0.1403 -0.8906 -0.7471
  129OSM   H17T13883   5.105   2.846   7.924 -0.6476  1.0991 -0.3671
  129OSM   C18S13884   5.079   3.056   7.930 -0.1500  0.1896  0.4792
  129OSM   H18S13885   5.039   3.060   7.827  3.0173 -0.2926 -0.9065
  129OSM   H18T13886   5.151   3.141   7.935  0.5541 -0.3830  0.2717
  129OSM   H18U13887   4.990   3.064   7.996 -0.8859  0.2022 -0.5125
  129OSM    C1F13888   5.128   2.600   6.315  0.6211  0.3666 -0.0211
  129OSM     OF13889   5.210   2.619   6.222  0.7786  0.6086 -0.6817
  129OSM    C2F13890   5.067   2.469   6.343  0.5992  0.2421  0.1334
  129OSM    H2F13891   5.046   2.426   6.242 -2.3611  1.1931  0.2367
  129OSM    H2G13892   4.970   2.489   6.394 -0.5063 -0.3803 -1.6105
  129OSM    C3F13893   5.144   2.384   6.442  0.3151  0.4957 -0.4876
  129OSM    H3F13894   5.252   2.377   6.416  0.2497 -3.6337 -0.2382
  129OSM    H3G13895   5.111   2.279   6.452 -1.7280  0.9418 -1.9950
  129OSM    C4F13896   5.127   2.429   6.595  0.3419  0.0036  0.0150
  129OSM    H4F13897   5.017   2.434   6.615 -0.3351  0.1419 -3.1601
  129OSM    H4G13898   5.150   2.534   6.621  1.3914  0.2781 -1.8400
  129OSM    C5F13899   5.191   2.339   6.699 -0.5401  0.2866 -0.0867
  129OSM    H5F13900   5.298   2.337   6.671 -0.7022  3.1395 -1.1883
  129OSM    H5G13901   5.171   2.232   6.677  2.7800 -0.3556 -0.5431
  129OSM    C6F13902   5.177   2.367   6.850 -0.3125 -0.4638 -0.5771
  129OSM    H6F13903   5.230   2.288   6.907 -0.5325 -0.3846 -0.2642
  129OSM    H6G13904   5.069   2.381   6.873 -0.5625  0.3580 -2.1036
  129OSM    C7F13905   5.232   2.507   6.884 -0.5664  0.0507 -0.1590
  129OSM    H7F13906   5.171   2.586   6.835  1.0902  0.0557 -2.3707
  129OSM    H7G13907   5.331   2.526   6.837 -1.5510  0.0312 -2.3783
  129OSM    C8F13908   5.213   2.531   7.040  0.1497  0.0066  0.1989
  129OSM    H8F13909   5.254   2.443   7.094  2.8674  0.3983 -1.0554
  129OSM    H8G13910   5.106   2.546   7.066 -0.2899 -2.2568 -0.1492
  129OSM    C9F13911   5.291   2.653   7.085  0.6568 -0.2015  0.5372
  129OSM    H9F13912   5.345   2.710   7.007  2.7512 -2.9951 -0.2526
  129OSM   C10F13913   5.280   2.717   7.202  0.7689 -0.7882  0.1296
  129OSM   H10F13914   5.345   2.801   7.229 -0.1302  0.6662 -2.0363
  129OSM   C11F13915   5.202   2.664   7.322  0.3542 -0.0497  0.1302
  129OSM   H11F13916   5.128   2.592   7.279 -0.3672  0.2388  0.8558
  129OSM   H11G13917   5.146   2.753   7.360  0.7233 -0.2644  1.2078
  129OSM   C12F13918   5.276   2.604   7.439  0.9656  0.0797 -0.3199
  129OSM   H12F13919   5.348   2.670   7.492  0.8852 -0.1845  0.1287
  129OSM   H12G13920   5.343   2.521   7.406 -2.0906 -2.6299 -0.1832
  129OSM   C13F13921   5.179   2.563   7.553  0.3460  0.2151  0.2773
  129OSM   H13F13922   5.112   2.493   7.500  1.7153  0.7357 -2.3073
  129OSM   H13G13923   5.111   2.642   7.592 -0.1819 -0.3992  0.6257
  129OSM   C14F13924   5.241   2.478   7.666  0.7869  0.4596 -0.4607
  129OSM   H14F13925   5.289   2.385   7.630 -1.3423 -0.9007  0.0186
  129OSM   H14G13926   5.159   2.431   7.725  1.8746 -0.7158  0.1719
  129OSM   C15F13927   5.350   2.548   7.744  0.2876 -0.1462  0.2665
  129OSM   H15F13928   5.301   2.631   7.800 -0.1572 -1.1020  1.3390
  129OSM   H15G13929   5.427   2.584   7.672  0.9373 -0.6857  0.6816
  129OSM   C16F13930   5.399   2.463   7.858 -0.0705  0.5169 -0.2970
  129OSM   H16F13931   5.486   2.523   7.893  0.0202  2.4373 -3.4438
  129OSM   H16G13932   5.445   2.367   7.827  0.0872  0.0117  1.3777
  129OSM   C17F13933   5.296   2.450   7.969 -0.0504  0.0813 -0.7684
  129OSM   H17F13934   5.210   2.392   7.929 -0.0154  0.5795 -1.5730
  129OSM   H17G13935   5.253   2.549   7.994 -0.0476 -0.2460  0.6138
  129OSM   C18F13936   5.345   2.384   8.099 -0.1099  0.6564  0.5756
  129OSM   H18F13937   5.273   2.397   8.184 -0.5176 -0.4562  0.4174
  129OSM   H18G13938   5.442   2.427   8.131  0.5725 -0.7495  0.4872
  129OSM   H18H13939   5.366   2.277   8.077  1.8653  1.2714 -0.7508
  130OSM      N13940   0.643   5.317   6.092  0.1892  0.1356  0.4179
  130OSM    C1513941   0.770   5.324   6.015  0.0811 -0.7602 -0.3993
  130OSM   H15A13942   0.765   5.392   5.931 -2.3620  0.3389  0.5530
  130OSM   H15B13943   0.804   5.223   5.997 -1.4552 -1.3296 -0.2018
  130OSM   H15C13944   0.849   5.353   6.082  0.4084 -1.3307 -0.5336
  130OSM    C1413945   0.590   5.451   6.139 -0.0917  0.2205 -0.0490
  130OSM   H14A13946   0.565   5.516   6.056  0.5163  3.6551  2.2427
  130OSM   H14B13947   0.663   5.502   6.200  0.5280  1.5391 -1.7857
  130OSM   H14C13948   0.496   5.433   6.190  1.2553 -0.5684  2.2861
  130OSM    C1313949   0.535   5.257   5.994 -0.0384 -0.0679  0.4941
  130OSM   H13A13950   0.582   5.164   5.965 -0.2146 -0.7752  2.3406
  130OSM   H13B13951   0.522   5.324   5.911  1.5070 -0.7709 -0.3640
  130OSM   H13C13952   0.447   5.231   6.050  1.3675 -2.7760  1.6454
  130OSM    C1213953   0.654   5.225   6.210 -0.2880 -1.0401  1.7386
  130OSM   H12A13954   0.559   5.229   6.260 -1.8981 -0.8702 -1.1391
  130OSM   H12B13955   0.723   5.270   6.280  4.0790 -2.4633 -1.1550
  130OSM    C1113956   0.693   5.074   6.187 -1.0122  0.4318  0.2848
  130OSM   H11A13957   0.638   5.024   6.105  0.0676  1.1708 -0.9312
  130OSM   H11B13958   0.670   5.022   6.283  1.7151  1.5603  1.6687
  130OSM      P13959   0.943   5.010   6.254  0.2110 -0.1668  0.4562
  130OSM    O1313960   1.059   4.960   6.166  1.0377 -0.5837 -0.9079
  130OSM    O1413961   0.973   5.097   6.371 -0.3987 -0.1061  0.0193
  130OSM    O1113962   0.875   4.884   6.316  0.5240 -0.9136  0.1757
  130OSM    O1213963   0.833   5.079   6.164 -1.0884  0.0687 -0.1141
  130OSM    C1S13964   0.963   4.770   6.360 -0.4100 -0.1774  0.0330
  130OSM    H1S13965   1.073   4.786   6.361 -0.4141 -0.1053  1.6367
  130OSM    H1T13966   0.941   4.682   6.295  2.9576 -0.1932 -1.2986
  130OSM     NF13967   1.026   4.633   6.568 -0.5014 -0.3830  0.3884
  130OSM    HNF13968   1.005   4.540   6.596 -1.1698 -0.1444  0.6895
  130OSM    C2S13969   0.934   4.730   6.510  0.3810 -0.4804  0.3781
  130OSM    H2S13970   0.935   4.824   6.570  0.5605 -0.9299  1.0882
  130OSM    C3S13971   0.781   4.687   6.512 -0.3179  0.4352 -0.0719
  130OSM    H3S13972   0.772   4.611   6.430 -0.9695 -0.9375  1.2308
  130OSM     O313973   0.687   4.792   6.480  0.3399  0.3472 -0.8482
  130OSM    HO313974   0.733   4.867   6.443 -0.9224  1.1166 -0.8952
  130OSM    C4S13975   0.745   4.626   6.649  0.0117  0.5225  0.2024
  130OSM    H4S13976   0.741   4.516   6.645 -0.2949  0.4667  1.6870
  130OSM    C5S13977   0.716   4.693   6.765  0.0022 -0.8366 -0.5013
  130OSM    H5S13978   0.719   4.803   6.768  1.0674 -0.8551  2.2916
  130OSM    C6S13979   0.679   4.634   6.903 -0.5334  0.0193  1.0653
  130OSM    H6S13980   0.661   4.525   6.900  2.0793 -0.4829  0.7929
  130OSM    H6T13981   0.600   4.681   6.966 -1.5433  1.0365 -0.8830
  130OSM    C7S13982   0.808   4.646   6.989 -0.2702  0.5500  0.3596
  130OSM    H7S13983   0.822   4.756   6.989 -3.3200  1.0213  0.2270
  130OSM    H7T13984   0.894   4.596   6.940 -1.0969  0.4992 -1.1113
  130OSM    C8S13985   0.798   4.589   7.132  0.1582  0.1015 -0.1358
  130OSM    H8S13986   0.707   4.634   7.178  0.0917  0.0197 -0.1861
  130OSM    H8T13987   0.890   4.608   7.191  1.9333 -2.1691 -1.9668
  130OSM    C9S13988   0.767   4.433   7.125 -0.4911  0.8441  0.2736
  130OSM    H9S13989   0.849   4.379   7.073 -0.5041 -1.5071  2.5180
  130OSM    H9T13990   0.666   4.419   7.080  0.3583 -0.2447 -1.3988
  130OSM   C10S13991   0.772   4.373   7.265 -0.1459  0.4355 -0.0504
  130OSM   H10S13992   0.876   4.389   7.298  1.6264 -4.6165 -2.2108
  130OSM   H10T13993   0.748   4.265   7.250 -2.1586  0.8234  0.0504
  130OSM   C11S13994   0.677   4.435   7.371  0.6058  0.4279  0.2569
  130OSM   H11S13995   0.571   4.410   7.351  0.2586  0.7053  1.6793
  130OSM   H11T13996   0.688   4.545   7.360  0.2204  0.3051 -1.6327
  130OSM   C12S13997   0.697   4.379   7.510 -0.6009 -0.4022 -0.2669
  130OSM   H12S13998   0.808   4.377   7.519 -0.1033  3.4916 -2.8136
  130OSM   H12T13999   0.665   4.274   7.520  1.2806 -0.9799  0.1839
  130OSM   C13S14000   0.668   4.472   7.627  0.1378  0.4601  0.5202
  130OSM   H13S14001   0.683   4.418   7.723 -1.8175  0.0449  0.6255
  130OSM   H13T14002   0.562   4.505   7.633  0.1572  0.2784  2.4247
  130OSM   C14S14003   0.764   4.594   7.620  0.3797 -0.1603 -0.1942
  130OSM   H14S14004   0.766   4.649   7.524  2.4775 -1.6919 -1.0767
  130OSM   H14T14005   0.870   4.566   7.638  0.4643  0.5653  0.5464
  130OSM   C15S14006   0.732   4.692   7.738 -0.9931 -0.0653  0.1034
  130OSM   H15S14007   0.627   4.725   7.729 -1.0470 -0.5618 -1.4127
  130OSM   H15T14008   0.794   4.781   7.715 -2.7442  0.3976 -3.5821
  130OSM   C16S14009   0.763   4.631   7.881 -0.5829 -0.2185  0.3527
  130OSM   H16S14010   0.867   4.592   7.878 -0.7273 -0.6054  0.3710
  130OSM   H16T14011   0.700   4.541   7.896 -0.1537 -1.0594 -2.2999
  130OSM   C17S14012   0.756   4.730   7.994  1.1024  0.0911 -0.3598
  130OSM   H17S14013   0.651   4.766   7.985  0.7080 -0.9485 -0.0292
  130OSM   H17T14014   0.828   4.813   7.978  1.7695 -0.6848 -1.5258
  130OSM   C18S14015   0.784   4.676   8.134 -0.3887  0.3928  0.5173
  130OSM   H18S14016   0.763   4.762   8.201 -0.7628 -0.4851  1.5676
  130OSM   H18T14017   0.888   4.639   8.149 -0.5310 -1.6944 -2.6335
  130OSM   H18U14018   0.721   4.585   8.147  3.2455 -2.0458  2.9949
  130OSM    C1F14019   1.154   4.677   6.583  0.0849  0.6546  0.1564
  130OSM     OF14020   1.192   4.794   6.565  0.1562  0.1866  0.2175
  130OSM    C2F14021   1.252   4.563   6.625 -0.5604  0.7521  0.5538
  130OSM    H2F14022   1.324   4.544   6.542  0.3263  2.7331  0.8224
  130OSM    H2G14023   1.195   4.468   6.638 -1.7322  1.5802  1.7893
  130OSM    C3F14024   1.325   4.602   6.751  0.5703 -0.0567 -0.4925
  130OSM    H3F14025   1.400   4.683   6.733  1.3880 -0.6521  0.1770
  130OSM    H3G14026   1.391   4.518   6.782  1.1035  0.4173 -0.3249
  130OSM    C4F14027   1.236   4.653   6.872  0.6180  0.1188  0.3727
  130OSM    H4F14028   1.130   4.622   6.859 -0.6752  3.5988  1.5300
  130OSM    H4G14029   1.230   4.763   6.861  4.3280  0.5012  0.9172
  130OSM    C5F14030   1.295   4.613   7.012  0.0102 -0.1872 -0.2706
  130OSM    H5F14031   1.318   4.504   7.002 -0.5375 -0.3153 -0.1442
  130OSM    H5G14032   1.205   4.625   7.075 -1.4671  0.3925 -2.4053
  130OSM    C6F14033   1.413   4.701   7.043 -0.1361  0.1645  0.5135
  130OSM    H6F14034   1.379   4.804   7.068 -1.3061 -0.1538  0.3002
  130OSM    H6G14035   1.483   4.718   6.959  1.1115 -0.4389  1.4071
  130OSM    C7F14036   1.496   4.641   7.153 -0.1838  0.3447 -0.3200
  130OSM    H7F14037   1.599   4.682   7.162  0.2979 -0.2661 -2.3717
  130OSM    H7G14038   1.509   4.532   7.136  1.7741  0.5208 -0.2102
  130OSM    C8F14039   1.424   4.656   7.293  0.5494 -0.3743  0.1006
  130OSM    H8F14040   1.351   4.574   7.310 -1.7684  1.6615  0.4092
  130OSM    H8G14041   1.363   4.748   7.284 -0.2603 -0.6591  2.2171
  130OSM    C9F14042   1.515   4.681   7.410  0.1915 -0.5134  0.0275
  130OSM    H9F14043   1.569   4.775   7.392 -1.2226 -0.0053 -1.8768
  130OSM   C10F14044   1.556   4.608   7.516  0.4785  0.1734  0.6890
  130OSM   H10F14045   1.637   4.646   7.580  0.1380  0.3889  1.0023
  130OSM   C11F14046   1.498   4.476   7.561 -0.7904  0.8473 -0.4075
  130OSM   H11F14047   1.532   4.398   7.490 -1.1267  2.1346 -2.0540
  130OSM   H11G14048   1.389   4.464   7.573 -0.4963 -2.7121 -0.4580
  130OSM   C12F14049   1.568   4.418   7.692  0.3631 -0.2275 -0.5317
  130OSM   H12F14050   1.670   4.460   7.702 -0.1748  0.9635  0.3098
  130OSM   H12G14051   1.575   4.308   7.686  1.5237 -0.4300  2.4222
  130OSM   C13F14052   1.486   4.451   7.817  0.4664  0.1440  0.9767
  130OSM   H13F14053   1.386   4.404   7.802  1.0865 -0.9349  0.0278
  130OSM   H13G14054   1.471   4.560   7.834 -0.5427 -0.2813  3.2997
  130OSM   C14F14055   1.541   4.391   7.948  0.1073  0.1286  0.9009
  130OSM   H14F14056   1.559   4.282   7.941 -1.0180  0.0178 -0.9596
  130OSM   H14G14057   1.464   4.405   8.027 -1.1452  1.5253 -0.4992
  130OSM   C15F14058   1.670   4.465   8.002 -0.3803  0.4089  0.7001
  130OSM   H15F14059   1.682   4.568   7.963  1.5748 -0.0860 -0.1379
  130OSM   H15G14060   1.763   4.419   7.961 -0.9450  0.2349 -0.4177
  130OSM   C16F14061   1.678   4.471   8.158 -1.0259 -0.4312  0.1709
  130OSM   H16F14062   1.684   4.370   8.205  1.1619 -0.7501 -0.6475
  130OSM   H16G14063   1.586   4.522   8.194 -1.2843 -0.5543 -0.3071
  130OSM   C17F14064   1.803   4.547   8.202  0.0802 -0.3065  0.3657
  130OSM   H17F14065   1.820   4.642   8.146 -0.0149 -0.1609  0.5843
  130OSM   H17G14066   1.887   4.477   8.180 -0.6067 -1.2299  0.6358
  130OSM   C18F14067   1.799   4.582   8.350  0.9065 -0.4193  0.4282
  130OSM   H18F14068   1.698   4.625   8.370 -0.5905 -1.8161 -3.2493
  130OSM   H18G14069   1.887   4.647   8.369  2.1082 -1.9065  0.1619
  130OSM   H18H14070   1.812   4.486   8.405  0.0400 -1.0427 -0.4048
  131OSM      N14071   6.215   0.588   6.010  0.1145 -0.0599 -0.1661
  131OSM    C1514072   6.123   0.495   5.939  0.4897 -0.4268 -0.4001
  131OSM   H15A14073   6.184   0.423   5.888  0.7705  0.5520 -1.4765
  131OSM   H15B14074   6.064   0.545   5.864  0.2680  0.9864  0.6649
  131OSM   H15C14075   6.047   0.449   6.000  0.0902 -0.3528 -0.8369
  131OSM    C1414076   6.146   0.680   6.104  0.0087 -0.0185 -0.0812
  131OSM   H14A14077   6.099   0.762   6.053 -0.3002 -0.8609 -1.1941
  131OSM   H14B14078   6.217   0.710   6.180 -0.7807 -1.2862  1.2126
  131OSM   H14C14079   6.065   0.626   6.151 -0.9655  1.0719 -0.4589
  131OSM    C1314080   6.295   0.498   6.104 -0.6117 -0.4785  0.1751
  131OSM   H13A14081   6.355   0.557   6.171  2.1184 -0.8531 -1.7942
  131OSM   H13B14082   6.356   0.428   6.049  0.6691  0.9091 -0.2183
  131OSM   H13C14083   6.229   0.436   6.163 -0.9219 -0.9044 -0.5999
  131OSM    C1214084   6.300   0.663   5.910 -0.4668  0.4821 -0.0795
  131OSM   H12A14085   6.241   0.724   5.843  1.9423  0.8406 -2.0219
  131OSM   H12B14086   6.347   0.595   5.839  1.1986  1.8344 -0.3378
  131OSM    C1114087   6.406   0.751   5.976  0.0307  0.5459  0.1716
  131OSM   H11A14088   6.360   0.824   6.046 -0.7795  1.0394 -0.8571
  131OSM   H11B14089   6.448   0.811   5.892 -3.4370  0.7458 -1.5937
  131OSM      P14090   6.605   0.729   6.145  0.1830 -0.3683  0.0595
  131OSM    O1314091   6.714   0.625   6.162  0.0812  0.2266 -0.3263
  131OSM    O1414092   6.643   0.865   6.098  0.1617  0.0396 -0.6470
  131OSM    O1114093   6.515   0.727   6.265 -0.0252 -0.0541  0.3430
  131OSM    O1214094   6.510   0.674   6.041 -0.0660  0.5778  0.6106
  131OSM    C1S14095   6.555   0.768   6.398  0.2525  0.7825 -0.0270
  131OSM    H1S14096   6.592   0.872   6.391 -1.5631  1.4503 -0.4570
  131OSM    H1T14097   6.636   0.702   6.436  0.1567  0.9121  0.4018
  131OSM     NF14098   6.479   0.817   6.618 -0.1452  0.3226  0.1141
  131OSM    HNF14099   6.519   0.763   6.691  1.0601  2.1593  0.8641
  131OSM    C2S14100   6.438   0.745   6.498  0.8922  0.3264  0.3989
  131OSM    H2S14101   6.346   0.786   6.452 -0.0783 -1.2374  0.8666
  131OSM    C3S14102   6.405   0.588   6.517  0.7818  0.3075  0.7619
  131OSM    H3S14103   6.503   0.544   6.543  0.9443 -2.5507 -3.6597
  131OSM     O314104   6.384   0.517   6.397 -0.0702 -0.3025  0.0808
  131OSM    HO314105   6.441   0.570   6.342 -1.6043  1.8976  0.5048
  131OSM    C4S14106   6.288   0.557   6.610  0.3620  0.0177  1.0092
  131OSM    H4S14107   6.204   0.628   6.609  0.0666 -0.3060  2.0332
  131OSM    C5S14108   6.289   0.467   6.713  0.0002 -0.1583 -0.4312
  131OSM    H5S14109   6.382   0.411   6.729 -1.1325 -1.6410  1.3352
  131OSM    C6S14110   6.198   0.440   6.824  0.5232  0.3678  0.4493
  131OSM    H6S14111   6.234   0.491   6.916  0.0737 -1.0886  1.4616
  131OSM    H6T14112   6.181   0.332   6.843 -1.2707  0.8596  1.9788
  131OSM    C7S14113   6.051   0.477   6.822 -0.0713  0.0992 -0.0536
  131OSM    H7S14114   5.994   0.430   6.738  0.6658  2.5841 -2.0647
  131OSM    H7T14115   6.049   0.583   6.792  1.2344  0.0686 -0.2826
  131OSM    C8S14116   5.979   0.457   6.961 -0.4442 -0.0430 -0.2803
  131OSM    H8S14117   5.877   0.500   6.951 -0.0110  0.9388 -0.6353
  131OSM    H8T14118   6.033   0.512   7.041 -0.5237 -0.9778  0.4356
  131OSM    C9S14119   5.961   0.314   7.008  0.8425 -1.3541  0.6682
  131OSM    H9S14120   6.061   0.272   7.032  0.6631 -3.0434 -1.2670
  131OSM    H9T14121   5.925   0.262   6.917 -1.8144  0.4785  0.5431
  131OSM   C10S14122   5.874   0.305   7.135  0.5516  0.1024 -0.3559
  131OSM   H10S14123   5.879   0.202   7.176  1.0391  0.8816  1.6679
  131OSM   H10T14124   5.767   0.325   7.113  0.1938  0.4551  1.4749
  131OSM   C11S14125   5.907   0.406   7.246  0.0522  0.1261  0.2501
  131OSM   H11S14126   5.828   0.385   7.321  0.8572  1.4703  1.5314
  131OSM   H11T14127   5.896   0.513   7.218  3.2997  0.3669 -0.5457
  131OSM   C12S14128   6.040   0.373   7.307 -1.2216  0.1032 -0.7555
  131OSM   H12S14129   6.112   0.413   7.232 -1.7824  0.2992 -1.1975
  131OSM   H12T14130   6.057   0.264   7.321  3.5122  0.9573  2.1237
  131OSM   C13S14131   6.066   0.448   7.440 -0.0490  0.0670  0.3088
  131OSM   H13S14132   5.996   0.421   7.523  1.7284 -1.4237  1.4066
  131OSM   H13T14133   6.046   0.556   7.423  1.0175  0.3969  1.0567
  131OSM   C14S14134   6.206   0.434   7.490  0.0714 -0.2103  0.0504
  131OSM   H14S14135   6.269   0.488   7.416 -0.4992  0.0350 -0.2539
  131OSM   H14T14136   6.220   0.323   7.489  0.3429 -0.1972 -1.7237
  131OSM   C15S14137   6.223   0.504   7.629 -0.1055  0.9591 -0.1857
  131OSM   H15S14138   6.175   0.604   7.628 -0.5352  0.7606 -2.2867
  131OSM   H15T14139   6.328   0.534   7.650  0.0975  0.1200  0.0736
  131OSM   C16S14140   6.170   0.423   7.750 -0.5935  0.8159 -0.3944
  131OSM   H16S14141   6.249   0.345   7.760 -1.7429 -0.5827 -1.6066
  131OSM   H16T14142   6.070   0.381   7.728 -1.5348  0.7484  3.3580
  131OSM   C17S14143   6.163   0.504   7.877  0.1446  0.3202 -0.2106
  131OSM   H17S14144   6.077   0.575   7.870  0.2995  0.4897 -0.4062
  131OSM   H17T14145   6.251   0.570   7.888 -0.7818  1.7652 -1.0774
  131OSM   C18S14146   6.135   0.418   8.006 -0.3187 -0.4916  0.1051
  131OSM   H18S14147   6.025   0.401   8.006 -0.2894 -0.6946  0.3398
  131OSM   H18T14148   6.167   0.469   8.100 -1.7330  3.9415 -1.5496
  131OSM   H18U14149   6.193   0.324   8.003 -0.1943 -0.4314  0.4945
  131OSM    C1F14150   6.468   0.948   6.640 -0.2963  0.0547  0.3784
  131OSM     OF14151   6.421   1.016   6.550 -1.1040  0.0910  0.0333
  131OSM    C2F14152   6.517   1.015   6.765 -0.0370 -0.0407 -0.2322
  131OSM    H2F14153   6.563   1.115   6.747 -1.7019  0.9515  0.7049
  131OSM    H2G14154   6.593   0.959   6.824 -0.0178  1.6407  1.4453
  131OSM    C3F14155   6.394   1.014   6.865 -0.0439 -0.6837  0.1688
  131OSM    H3F14156   6.376   0.908   6.895 -0.8314 -1.5925 -3.0553
  131OSM    H3G14157   6.306   1.061   6.816  1.1159  1.5262  0.0865
  131OSM    C4F14158   6.425   1.104   6.982 -0.0084 -0.3808 -0.3196
  131OSM    H4F14159   6.337   1.125   7.045 -0.5218 -0.5694 -0.9626
  131OSM    H4G14160   6.451   1.203   6.938  2.5377  0.2932  2.3660
  131OSM    C5F14161   6.552   1.069   7.063 -0.2827  0.2058  0.6731
  131OSM    H5F14162   6.640   1.048   6.998 -0.4728 -0.5313  0.6496
  131OSM    H5G14163   6.540   0.975   7.121 -0.5538 -0.0402  0.2252
  131OSM    C6F14164   6.597   1.186   7.156  0.6141  0.2575  0.1451
  131OSM    H6F14165   6.587   1.288   7.115 -2.9043 -0.5877 -1.4566
  131OSM    H6G14166   6.704   1.160   7.170  0.6113  1.1572  2.1095
  131OSM    C7F14167   6.542   1.182   7.302 -0.1373 -0.1229  0.2729
  131OSM    H7F14168   6.558   1.079   7.342  1.5016  0.2114  0.5239
  131OSM    H7G14169   6.431   1.185   7.293  0.0308  0.9315 -1.9350
  131OSM    C8F14170   6.588   1.288   7.396  0.1761  0.6097  0.3677
  131OSM    H8F14171   6.517   1.283   7.481 -1.3928 -0.3666 -0.9372
  131OSM    H8G14172   6.571   1.390   7.356  0.6960  1.3744  2.0065
  131OSM    C9F14173   6.732   1.265   7.455 -0.5925 -0.1254 -0.5379
  131OSM    H9F14174   6.804   1.224   7.383 -1.1608 -0.7724 -0.7543
  131OSM   C10F14175   6.771   1.278   7.582 -0.2336  0.2112 -0.4803
  131OSM   H10F14176   6.875   1.252   7.607 -1.2506 -4.2623 -0.0282
  131OSM   C11F14177   6.684   1.318   7.699  0.0737 -0.9587  0.1145
  131OSM   H11F14178   6.635   1.229   7.744 -0.5003 -1.1711 -0.8765
  131OSM   H11G14179   6.602   1.383   7.661  1.2246 -1.4006 -3.5927
  131OSM   C12F14180   6.769   1.378   7.813  0.5714 -0.1391 -0.0535
  131OSM   H12F14181   6.839   1.454   7.771 -1.3538  0.0400 -3.1822
  131OSM   H12G14182   6.838   1.296   7.841  0.7350  0.0124 -0.0083
  131OSM   C13F14183   6.661   1.432   7.916 -0.7819 -0.3119 -0.5000
  131OSM   H13F14184   6.622   1.340   7.964  0.7477 -0.0920  1.2299
  131OSM   H13G14185   6.582   1.474   7.849  1.3168 -2.1265 -4.3978
  131OSM   C14F14186   6.718   1.517   8.026  0.3661 -0.1847  0.0668
  131OSM   H14F14187   6.627   1.530   8.089 -0.0008  0.8810 -0.6572
  131OSM   H14G14188   6.757   1.617   7.998 -1.1102 -0.0236 -1.6294
  131OSM   C15F14189   6.824   1.437   8.103  0.2904 -0.3185  0.1501
  131OSM   H15F14190   6.916   1.442   8.042  0.0223  0.7189 -0.1894
  131OSM   H15G14191   6.790   1.332   8.114 -0.7996 -0.1774 -1.4813
  131OSM   C16F14192   6.852   1.488   8.244  0.1399  0.3971 -0.3463
  131OSM   H16F14193   6.769   1.552   8.280  0.7222 -0.2144  2.3035
  131OSM   H16G14194   6.939   1.557   8.247 -0.2179  0.8282  0.3362
  131OSM   C17F14195   6.886   1.374   8.343  0.1289 -0.3306 -0.4667
  131OSM   H17F14196   6.972   1.331   8.288 -0.9949 -2.0836 -0.9408
  131OSM   H17G14197   6.806   1.296   8.341 -2.2502  1.9630 -0.4697
  131OSM   C18F14198   6.916   1.434   8.486 -0.3352  1.0467  0.1249
  131OSM   H18F14199   6.933   1.344   8.548 -0.9725  1.5498  1.0501
  131OSM   H18G14200   6.835   1.498   8.528 -0.3342  0.5391  0.9244
  131OSM   H18H14201   7.006   1.498   8.483  0.0521  0.6468 -4.3602
  132OSM      N14202   0.644   3.296   5.682 -0.5327 -0.0812  0.2139
  132OSM    C1514203   0.697   3.439   5.684 -0.4842 -0.1949  0.0006
  132OSM   H15A14204   0.656   3.495   5.767  1.9283  2.5356 -0.4703
  132OSM   H15B14205   0.661   3.489   5.595 -0.9444 -0.0279  0.2796
  132OSM   H15C14206   0.805   3.442   5.673 -0.6990  0.5524 -2.4988
  132OSM    C1414207   0.497   3.296   5.642 -0.9499  0.3208  0.1872
  132OSM   H14A14208   0.465   3.194   5.624  1.1665 -0.5171  0.7756
  132OSM   H14B14209   0.471   3.349   5.552 -0.1823  1.1649  0.4480
  132OSM   H14C14210   0.438   3.328   5.727 -2.0012 -0.3898 -0.2503
  132OSM    C1314211   0.720   3.211   5.581  0.1602 -0.9448 -0.6345
  132OSM   H13A14212   0.821   3.204   5.618  0.5263  2.8214 -0.5580
  132OSM   H13B14213   0.719   3.267   5.489  0.6361  0.0991 -0.0228
  132OSM   H13C14214   0.669   3.116   5.575 -1.8035  0.0570 -0.7359
  132OSM    C1214215   0.654   3.218   5.817  1.0061  0.2861 -0.2800
  132OSM   H12A14216   0.754   3.189   5.847 -0.2518 -0.4960  3.7429
  132OSM   H12B14217   0.603   3.125   5.800  0.4964  0.0597  2.1223
  132OSM    C1114218   0.604   3.284   5.948  0.7727 -0.1227 -0.2296
  132OSM   H11A14219   0.670   3.373   5.957  2.0860 -1.2134  1.3271
  132OSM   H11B14220   0.627   3.227   6.040  0.3271  0.7994  0.4770
  132OSM      P14221   0.385   3.401   6.041 -0.1045 -0.2730  0.5174
  132OSM    O1314222   0.340   3.523   5.966 -0.2606 -0.4145  0.1206
  132OSM    O1414223   0.280   3.317   6.096  0.2977  0.1697 -0.4417
  132OSM    O1114224   0.482   3.444   6.161  0.6879 -0.1155  0.0499
  132OSM    O1214225   0.469   3.315   5.935  0.1540 -0.0102  0.4969
  132OSM    C1S14226   0.422   3.443   6.292  0.5085 -0.2485  0.0073
  132OSM    H1S14227   0.390   3.340   6.317 -2.0758  0.9719  2.2116
  132OSM    H1T14228   0.338   3.515   6.301  0.4316 -0.4979  1.6097
  132OSM     NF14229   0.454   3.456   6.528 -0.4359 -0.3134  0.0833
  132OSM    HNF14230   0.401   3.529   6.570  1.1163  1.1558 -0.4101
  132OSM    C2S14231   0.515   3.492   6.398  0.0556  0.3261  0.1362
  132OSM    H2S14232   0.606   3.429   6.398 -0.1913 -0.0741  1.2754
  132OSM    C3S14233   0.557   3.638   6.376 -0.5463  0.3458 -0.1501
  132OSM    H3S14234   0.463   3.698   6.375 -1.4204 -0.9498 -1.7371
  132OSM     O314235   0.619   3.653   6.251  0.6475  0.0978  0.1669
  132OSM    HO314236   0.595   3.567   6.216 -0.2133  0.2842  0.2618
  132OSM    C4S14237   0.656   3.697   6.475 -0.8459 -0.3663 -0.5253
  132OSM    H4S14238   0.756   3.651   6.477 -0.0272  1.2949 -0.8533
  132OSM    C5S14239   0.623   3.795   6.562 -0.6363  0.5425 -0.2327
  132OSM    H5S14240   0.517   3.821   6.571 -0.7554  0.0722 -0.2616
  132OSM    C6S14241   0.706   3.858   6.672  0.5037  0.2578 -0.5235
  132OSM    H6S14242   0.717   3.966   6.649  0.4079  0.0761 -1.4554
  132OSM    H6T14243   0.810   3.821   6.682  0.3161 -0.0076  0.5031
  132OSM    C7S14244   0.647   3.838   6.810 -0.1326  0.2566  0.6007
  132OSM    H7S14245   0.631   3.730   6.830  2.2082 -0.3196 -0.2861
  132OSM    H7T14246   0.543   3.873   6.823  0.1945  0.8554  1.8306
  132OSM    C8S14247   0.735   3.898   6.917  0.4154 -0.1869  0.5647
  132OSM    H8S14248   0.738   4.007   6.900  1.4576  0.0081  1.7811
  132OSM    H8T14249   0.838   3.855   6.919  0.9949  1.1612  1.8998
  132OSM    C9S14250   0.674   3.867   7.053  0.4373 -0.5593  0.2209
  132OSM    H9S14251   0.656   3.758   7.066 -2.0594 -0.2070  0.2571
  132OSM    H9T14252   0.572   3.910   7.055 -0.1826 -1.5698 -3.1081
  132OSM   C10S14253   0.752   3.930   7.164  0.1469  0.4133 -0.4971
  132OSM   H10S14254   0.777   4.036   7.141 -0.7109  0.2086 -2.5884
  132OSM   H10T14255   0.852   3.883   7.167  1.8025  3.5797 -1.3296
  132OSM   C11S14256   0.693   3.923   7.309  0.4593  0.1554  0.1892
  132OSM   H11S14257   0.670   3.817   7.334  2.2833 -0.6089 -1.1561
  132OSM   H11T14258   0.600   3.984   7.312 -0.4211 -1.0298 -1.4635
  132OSM   C12S14259   0.805   3.963   7.408 -0.6956 -0.7440 -0.1510
  132OSM   H12S14260   0.827   4.072   7.405 -0.5436 -0.7528  0.5760
  132OSM   H12T14261   0.883   3.888   7.380  0.5658 -0.1354  1.6015
  132OSM   C13S14262   0.780   3.931   7.556 -0.2824  0.8025 -0.1357
  132OSM   H13S14263   0.711   4.006   7.599  0.1163  0.6679  0.7636
  132OSM   H13T14264   0.879   3.928   7.607  0.2210  1.5449 -1.0461
  132OSM   C14S14265   0.728   3.794   7.595  0.0607  0.3056 -0.1084
  132OSM   H14S14266   0.774   3.720   7.527 -0.0996 -0.1344  0.2586
  132OSM   H14T14267   0.620   3.776   7.572  0.0972 -3.0284  1.7941
  132OSM   C15S14268   0.747   3.762   7.743 -0.3866  0.0841  0.7174
  132OSM   H15S14269   0.857   3.748   7.754 -0.0608  1.1961 -0.6853
  132OSM   H15T14270   0.703   3.663   7.768 -3.9870  0.5845 -2.7642
  132OSM   C16S14271   0.694   3.866   7.843 -0.4226  0.3652  0.1097
  132OSM   H16S14272   0.597   3.908   7.810 -0.2693  2.1459  1.7648
  132OSM   H16T14273   0.761   3.955   7.841 -1.0494  0.8420 -1.4838
  132OSM   C17S14274   0.690   3.807   7.987 -0.5469 -0.4260  0.0402
  132OSM   H17S14275   0.796   3.798   8.022  0.0900 -1.0939 -1.9026
  132OSM   H17T14276   0.646   3.705   7.994 -2.4735  0.3612 -0.1080
  132OSM   C18S14277   0.614   3.887   8.082 -0.0680 -0.0225 -0.6166
  132OSM   H18S14278   0.644   3.994   8.086  2.1982 -0.5183 -2.3582
  132OSM   H18T14279   0.627   3.835   8.179  1.9723 -0.3156 -1.0072
  132OSM   H18U14280   0.504   3.883   8.072 -0.2588 -3.2794  1.4581
  132OSM    C1F14281   0.444   3.329   6.578  0.8810 -0.5395  0.0345
  132OSM     OF14282   0.534   3.253   6.548 -0.0360 -0.1688 -0.5636
  132OSM    C2F14283   0.326   3.291   6.655 -0.1573 -0.6538 -0.4277
  132OSM    H2F14284   0.249   3.255   6.583  0.4098 -0.4260 -1.1682
  132OSM    H2G14285   0.283   3.388   6.688 -0.5073 -0.6040 -1.0032
  132OSM    C3F14286   0.345   3.193   6.765  0.1911  0.5347  0.0677
  132OSM    H3F14287   0.415   3.115   6.729 -1.4135  0.5305 -3.4625
  132OSM    H3G14288   0.246   3.155   6.796 -0.4862  2.0165 -0.1883
  132OSM    C4F14289   0.411   3.251   6.892 -0.3872 -0.1899  0.5127
  132OSM    H4F14290   0.331   3.306   6.946  1.5399  2.0233  1.2778
  132OSM    H4G14291   0.477   3.335   6.865 -0.4440 -0.1344  0.5472
  132OSM    C5F14292   0.469   3.147   6.989  0.0801  0.2498 -0.7298
  132OSM    H5F14293   0.508   3.200   7.079 -2.8230  0.5083  0.4969
  132OSM    H5G14294   0.567   3.111   6.950  1.2982  1.3773  1.0933
  132OSM    C6F14295   0.383   3.024   7.036 -0.5432  0.5447  0.2484
  132OSM    H6F14296   0.334   2.970   6.953 -0.7403 -1.3241  1.5072
  132OSM    H6G14297   0.302   3.058   7.104 -0.9039  1.2309 -0.5171
  132OSM    C7F14298   0.477   2.926   7.108  0.2184  0.4006 -0.0324
  132OSM    H7F14299   0.577   2.929   7.060 -0.1248  1.5714 -0.7145
  132OSM    H7G14300   0.452   2.818   7.110  0.7002  0.2809 -0.3899
  132OSM    C8F14301   0.488   2.971   7.249  0.3668  0.0095 -0.1529
  132OSM    H8F14302   0.395   2.948   7.304  0.8003 -0.4769  0.3883
  132OSM    H8G14303   0.505   3.080   7.260  2.2613 -0.3617  0.9463
  132OSM    C9F14304   0.597   2.897   7.321  0.3756 -0.1019  0.0067
  132OSM    H9F14305   0.580   2.791   7.347  0.4138 -0.0690  0.1700
  132OSM   C10F14306   0.717   2.955   7.352  0.4411  0.7731 -0.2029
  132OSM   H10F14307   0.788   2.896   7.412 -1.1535 -0.3328  0.6863
  132OSM   C11F14308   0.763   3.097   7.316 -0.1766 -0.5834  0.0481
  132OSM   H11F14309   0.718   3.114   7.216  0.1948 -1.1229 -0.2182
  132OSM   H11G14310   0.873   3.110   7.319 -0.2521 -0.0574  0.6707
  132OSM   C12F14311   0.712   3.202   7.417  0.0491  0.5894  0.5659
  132OSM   H12F14312   0.602   3.208   7.431 -0.1566 -0.4065 -0.5535
  132OSM   H12G14313   0.734   3.305   7.380  0.0920 -0.1433 -1.5424
  132OSM   C13F14314   0.795   3.191   7.551  0.0524  0.3229  1.1016
  132OSM   H13F14315   0.905   3.195   7.536  0.0756 -2.6690 -0.4058
  132OSM   H13G14316   0.787   3.091   7.598  2.9221 -1.3582 -1.5614
  132OSM   C14F14317   0.748   3.292   7.656  0.7156 -0.3087 -0.3935
  132OSM   H14F14318   0.640   3.274   7.670  1.1622 -3.0376  0.0115
  132OSM   H14G14319   0.773   3.386   7.601  4.6850 -0.2949  1.1258
  132OSM   C15F14320   0.818   3.273   7.788 -0.1565 -0.7323 -0.1790
  132OSM   H15F14321   0.783   3.358   7.850 -2.1375 -1.1561 -0.6666
  132OSM   H15G14322   0.929   3.268   7.776  0.0408 -0.7235  1.3920
  132OSM   C16F14323   0.756   3.156   7.868  1.0788  0.6346  0.3800
  132OSM   H16F14324   0.755   3.064   7.806 -0.6028 -0.6968  2.2494
  132OSM   H16G14325   0.650   3.173   7.898 -0.3538 -3.0906 -1.8627
  132OSM   C17F14326   0.846   3.109   7.986 -0.1650 -0.3634 -0.2702
  132OSM   H17F14327   0.843   3.186   8.066  2.1167 -0.5421  0.0578
  132OSM   H17G14328   0.947   3.080   7.950  1.0939 -1.1921  3.5223
  132OSM   C18F14329   0.779   2.983   8.050 -0.0093 -0.2071 -0.9368
  132OSM   H18F14330   0.775   2.895   7.983  2.5955 -1.8008  0.8343
  132OSM   H18G14331   0.673   3.009   8.070  0.4688  0.8532  0.3723
  132OSM   H18H14332   0.828   2.938   8.139 -2.0242 -5.0384 -2.0080
  133OSM      N14333   1.288   3.526   6.017 -0.4695 -0.5600 -0.2258
  133OSM    C1514334   1.423   3.563   6.080 -0.5469 -0.5650  0.3471
  133OSM   H15A14335   1.499   3.581   6.006  0.0328  3.0951  1.5965
  133OSM   H15B14336   1.447   3.474   6.136  0.0821 -0.3172  0.4788
  133OSM   H15C14337   1.420   3.657   6.134  2.2229  1.0377 -2.0510
  133OSM    C1414338   1.230   3.644   5.948 -0.2033  0.0722 -0.1482
  133OSM   H14A14339   1.249   3.731   6.009 -0.4228  1.6642 -2.2060
  133OSM   H14B14340   1.122   3.647   5.944 -0.1985  0.4152 -0.1192
  133OSM   H14C14341   1.268   3.657   5.847 -0.3228  2.3464  0.0309
  133OSM    C1314342   1.300   3.414   5.920 -0.3731  0.0355  0.8962
  133OSM   H13A14343   1.205   3.367   5.898 -0.3953  1.0550 -1.4326
  133OSM   H13B14344   1.356   3.332   5.963 -0.6412 -1.0408 -0.7260
  133OSM   H13C14345   1.354   3.450   5.834  0.9490  0.7311  1.9906
  133OSM    C1214346   1.202   3.481   6.133 -0.1342 -0.2677 -0.8937
  133OSM   H12A14347   1.187   3.562   6.203 -0.4094 -0.9234 -0.1948
  133OSM   H12B14348   1.244   3.395   6.181 -1.0141  0.7792  1.9205
  133OSM    C1114349   1.059   3.451   6.091  0.7711 -0.1470  0.5947
  133OSM   H11A14350   1.016   3.528   6.023  0.6181  0.2647  1.1501
  133OSM   H11B14351   0.990   3.472   6.176 -0.5881 -0.1566 -0.4623
  133OSM      P14352   1.062   3.189   6.101 -0.1490 -0.2844  0.0858
  133OSM    O1314353   0.951   3.104   6.053  0.0409  0.2120  0.0068
  133OSM    O1414354   1.196   3.131   6.087  0.0401  0.1577 -0.0031
  133OSM    O1114355   1.028   3.233   6.251 -0.3218  0.2112  1.1635
  133OSM    O1214356   1.047   3.326   6.018 -0.9246  0.1491 -0.4875
  133OSM    C1S14357   0.906   3.183   6.315  0.0098 -0.1570  0.0723
  133OSM    H1S14358   0.908   3.075   6.289 -1.0350 -0.4616  1.2071
  133OSM    H1T14359   0.817   3.234   6.271  1.2148  1.0496 -1.0533
  133OSM     NF14360   0.815   3.093   6.539 -0.3716  0.3619  0.8164
  133OSM    HNF14361   0.728   3.133   6.567  0.5541  3.1017  0.1245
  133OSM    C2S14362   0.908   3.190   6.476 -0.4738  0.1000  0.1006
  133OSM    H2S14363   1.013   3.163   6.502 -0.2279 -0.9863 -1.8026
  133OSM    C3S14364   0.900   3.337   6.518 -0.2827  0.2312 -0.7011
  133OSM    H3S14365   0.811   3.380   6.467  0.4114 -0.1372 -2.2970
  133OSM     O314366   1.009   3.423   6.480  0.1169 -0.1064 -0.5304
  133OSM    HO314367   1.046   3.378   6.403 -1.3240  1.8660 -2.4961
  133OSM    C4S14368   0.879   3.351   6.664  0.4160 -0.1256 -0.0526
  133OSM    H4S14369   0.947   3.298   6.732  1.4660  1.2907  0.0548
  133OSM    C5S14370   0.777   3.425   6.728 -0.3749  0.3350 -0.1122
  133OSM    H5S14371   0.702   3.485   6.675  0.3192  2.1319  0.8550
  133OSM    C6S14372   0.761   3.447   6.871  0.0102 -0.5601 -0.5752
  133OSM    H6S14373   0.664   3.407   6.909  0.1561 -0.6842 -0.3331
  133OSM    H6T14374   0.751   3.557   6.886  2.2790 -0.3148 -0.6468
  133OSM    C7S14375   0.870   3.400   6.963 -0.3266 -0.1946 -0.7615
  133OSM    H7S14376   0.963   3.440   6.917 -1.1581  0.6172 -1.8184
  133OSM    H7T14377   0.870   3.291   6.983 -3.1258  0.1432  1.7165
  133OSM    C8S14378   0.852   3.461   7.103  0.5657  0.0593 -1.0744
  133OSM    H8S14379   0.756   3.422   7.143  0.6919 -2.2673 -2.8015
  133OSM    H8T14380   0.849   3.571   7.092 -2.9104  0.4076  1.4598
  133OSM    C9S14381   0.972   3.421   7.184  0.0478 -0.0207  0.0272
  133OSM    H9S14382   1.065   3.459   7.137  1.2469 -0.5449  1.8620
  133OSM    H9T14383   0.978   3.310   7.181  1.5842  0.0392 -2.4771
  133OSM   C10S14384   0.964   3.476   7.327 -0.2864  0.2586  0.1113
  133OSM   H10S14385   0.867   3.451   7.374 -0.3673  0.9584  0.3250
  133OSM   H10T14386   0.961   3.587   7.322 -1.0938  0.2772  0.7575
  133OSM   C11S14387   1.087   3.444   7.416 -0.0253  0.2896  0.1942
  133OSM   H11S14388   1.185   3.458   7.366  1.1414 -0.5246  2.1865
  133OSM   H11T14389   1.098   3.336   7.435  0.5255  0.2349 -0.4125
  133OSM   C12S14390   1.087   3.520   7.552  0.3056 -0.1622 -0.4145
  133OSM   H12S14391   0.987   3.522   7.600  1.0907  1.5862  1.2464
  133OSM   H12T14392   1.097   3.628   7.530 -3.3154  0.4807  0.4150
  133OSM   C13S14393   1.197   3.468   7.643  0.2932 -0.2877 -0.3980
  133OSM   H13S14394   1.286   3.439   7.583 -1.8505 -1.9025 -3.0200
  133OSM   H13T14395   1.153   3.375   7.685 -0.8412 -0.2572 -1.4541
  133OSM   C14S14396   1.236   3.554   7.765 -0.1120 -0.2952  0.0582
  133OSM   H14S14397   1.265   3.657   7.735 -0.2209  0.1911  1.5262
  133OSM   H14T14398   1.330   3.523   7.816  0.5756 -1.7866 -1.9479
  133OSM   C15S14399   1.131   3.573   7.868  1.0339 -0.6353  0.1024
  133OSM   H15S14400   1.072   3.481   7.889  0.3449 -0.0207  0.9138
  133OSM   H15T14401   1.056   3.640   7.821  3.4221  0.7833 -1.9078
  133OSM   C16S14402   1.189   3.607   8.004  0.3212  0.5639  0.0023
  133OSM   H16S14403   1.234   3.708   7.993 -1.4980  1.2575 -1.5244
  133OSM   H16T14404   1.255   3.525   8.041 -2.8533 -1.6172  1.1935
  133OSM   C17S14405   1.071   3.609   8.109  0.3669  1.1924 -0.3609
  133OSM   H17S14406   1.021   3.511   8.129  0.7884  1.5850  3.1265
  133OSM   H17T14407   0.975   3.655   8.076 -1.6005 -3.0188 -1.3443
  133OSM   C18S14408   1.102   3.655   8.247  0.5623  0.2535 -0.3916
  133OSM   H18S14409   1.014   3.648   8.314 -0.1020 -0.5551 -1.3261
  133OSM   H18T14410   1.123   3.764   8.240 -2.0791  0.8210 -0.6776
  133OSM   H18U14411   1.193   3.605   8.287  2.2287  1.3279 -2.6002
  133OSM    C1F14412   0.839   2.964   6.536  0.0826  0.2497 -0.3328
  133OSM     OF14413   0.953   2.921   6.505 -0.2718  0.6464 -0.7814
  133OSM    C2F14414   0.721   2.882   6.568 -0.3675 -0.1014 -0.2049
  133OSM    H2F14415   0.691   2.834   6.473  1.1362  1.3933 -1.5067
  133OSM    H2G14416   0.637   2.936   6.617  0.7384  0.7717  0.7937
  133OSM    C3F14417   0.761   2.772   6.675 -0.0430  0.2271  0.6537
  133OSM    H3F14418   0.812   2.822   6.760  0.3030  0.3590  0.3704
  133OSM    H3G14419   0.821   2.692   6.626 -1.0641  0.9404 -1.9649
  133OSM    C4F14420   0.639   2.699   6.728 -0.7618  0.5535  1.0533
  133OSM    H4F14421   0.590   2.652   6.640  1.0426  0.6182 -0.0410
  133OSM    H4G14422   0.566   2.760   6.784 -0.6608  1.0253  0.6775
  133OSM    C5F14423   0.682   2.576   6.819  0.5100  0.4180  0.8152
  133OSM    H5F14424   0.756   2.510   6.767 -1.2689 -0.1396 -1.1750
  133OSM    H5G14425   0.593   2.511   6.828 -0.2888  1.2447 -0.6471
  133OSM    C6F14426   0.731   2.629   6.949  0.7047  0.6286 -0.2305
  133OSM    H6F14427   0.642   2.689   6.977 -1.1152 -0.9006 -2.3821
  133OSM    H6G14428   0.828   2.684   6.953  0.8729  0.2472  2.3914
  133OSM    C7F14429   0.730   2.519   7.056  0.2698  0.5059 -0.4434
  133OSM    H7F14430   0.804   2.438   7.039 -1.6073 -0.9476 -2.2592
  133OSM    H7G14431   0.633   2.466   7.066  0.3407  0.2080 -1.2432
  133OSM    C8F14432   0.764   2.560   7.199 -0.6277  0.3524 -0.6601
  133OSM    H8F14433   0.675   2.618   7.232 -0.0178  1.3979 -0.8223
  133OSM    H8G14434   0.838   2.643   7.197  1.3015 -1.2444  0.2565
  133OSM    C9F14435   0.797   2.440   7.290  0.3967  0.4962 -0.3694
  133OSM    H9F14436   0.867   2.376   7.235 -0.0983  1.4243 -2.1677
  133OSM   C10F14437   0.748   2.421   7.411 -0.1361  0.2514  0.2109
  133OSM   H10F14438   0.784   2.333   7.466  0.7058 -1.3600 -2.7442
  133OSM   C11F14439   0.651   2.504   7.487  0.2762  0.1965 -0.6269
  133OSM   H11F14440   0.547   2.467   7.472  1.3166 -2.5938 -1.6594
  133OSM   H11G14441   0.657   2.610   7.455 -0.1966  0.3101 -0.3530
  133OSM   C12F14442   0.667   2.491   7.635 -0.1440 -0.1854 -0.0085
  133OSM   H12F14443   0.657   2.387   7.673  0.1345  0.5423  2.1867
  133OSM   H12G14444   0.585   2.552   7.679  1.4369  1.6214  0.5818
  133OSM   C13F14445   0.802   2.534   7.683  0.1928 -0.5015  0.1514
  133OSM   H13F14446   0.820   2.640   7.654 -0.6716 -0.1207  0.9570
  133OSM   H13G14447   0.882   2.480   7.627  0.3285 -0.3934  0.2400
  133OSM   C14F14448   0.830   2.513   7.831  0.3148 -0.2379 -0.1767
  133OSM   H14F14449   0.927   2.560   7.858  0.1742  0.3185 -0.6367
  133OSM   H14G14450   0.827   2.405   7.857 -3.9435 -0.2942 -0.1285
  133OSM   C15F14451   0.733   2.584   7.917  0.6933  0.4218  0.8159
  133OSM   H15F14452   0.628   2.552   7.900  0.6596  0.8068  0.2728
  133OSM   H15G14453   0.725   2.695   7.905 -0.0961  0.1671 -1.3988
  133OSM   C16F14454   0.771   2.571   8.064  0.3860  0.2167  0.3183
  133OSM   H16F14455   0.867   2.628   8.061 -1.2199  3.0641 -0.3108
  133OSM   H16G14456   0.810   2.470   8.090  2.5151  1.4393  2.3205
  133OSM   C17F14457   0.665   2.612   8.169 -0.2035 -0.1776 -0.3305
  133OSM   H17F14458   0.568   2.561   8.147 -0.2132  0.4674 -1.8993
  133OSM   H17G14459   0.655   2.720   8.146  2.6230  0.4994  1.2541
  133OSM   C18F14460   0.714   2.607   8.317 -0.2608  0.2672  0.3813
  133OSM   H18F14461   0.630   2.623   8.388 -1.1198  2.3107 -1.0061
  133OSM   H18G14462   0.782   2.695   8.321  0.8360 -0.5168 -0.3302
  133OSM   H18H14463   0.777   2.521   8.349 -0.3804 -0.1994 -0.5959
  134OSM      N14464   6.395   5.473   6.430 -0.0788 -0.1603 -0.0273
  134OSM    C1514465   6.311   5.567   6.507  0.2593  1.0901 -0.4382
  134OSM   H15A14466   6.366   5.658   6.524  2.9950 -0.5291 -0.0688
  134OSM   H15B14467   6.278   5.536   6.605  3.9487  1.0192  0.9236
  134OSM   H15C14468   6.225   5.595   6.448  2.4326  3.2815 -2.7896
  134OSM    C1414469   6.313   5.357   6.383 -0.2328  0.2115  0.1912
  134OSM   H14A14470   6.254   5.303   6.457 -0.5326 -3.5031 -2.4543
  134OSM   H14B14471   6.366   5.281   6.328  1.3274  0.4089  1.3713
  134OSM   H14C14472   6.247   5.399   6.308  0.2153  1.2066  0.3476
  134OSM    C1314473   6.436   5.552   6.302 -0.0587  0.0972  1.0088
  134OSM   H13A14474   6.525   5.609   6.322  1.5050 -1.0942 -1.9006
  134OSM   H13B14475   6.346   5.605   6.274 -0.8509  0.1197  3.3777
  134OSM   H13C14476   6.472   5.482   6.228 -2.8306 -0.8533  0.3994
  134OSM    C1214477   6.508   5.418   6.514  0.3578 -0.0597 -0.1084
  134OSM   H12A14478   6.551   5.337   6.458 -1.3431 -1.3533  0.3657
  134OSM   H12B14479   6.463   5.365   6.597 -0.5644  0.4713 -0.2627
  134OSM    C1114480   6.612   5.510   6.583  0.0100  0.6600 -0.3604
  134OSM   H11A14481   6.674   5.449   6.652  0.3225  0.0864 -1.1465
  134OSM   H11B14482   6.554   5.581   6.646  1.2060  1.0305  0.3573
  134OSM      P14483   6.728   5.727   6.488 -0.2169  0.0413 -0.2112
  134OSM    O1314484   6.862   5.753   6.427  0.6813 -0.5492 -0.2110
  134OSM    O1414485   6.615   5.797   6.436  0.2602  0.3950  0.4869
  134OSM    O1114486   6.734   5.749   6.644 -0.3244 -0.3544 -0.4544
  134OSM    O1214487   6.694   5.571   6.484 -0.2308 -0.0317 -0.1780
  134OSM    C1S14488   6.764   5.878   6.698 -0.2158  0.0421 -0.1372
  134OSM    H1S14489   6.692   5.946   6.648 -0.5972 -0.4661 -0.2803
  134OSM    H1T14490   6.871   5.903   6.682 -0.3217 -0.1643 -1.1935
  134OSM     NF14491   6.707   6.027   6.889  0.0561  0.3875 -0.3171
  134OSM    HNF14492   6.777   6.059   6.953 -0.4944 -0.1745  0.5883
  134OSM    C2S14493   6.720   5.888   6.853  0.3675  0.3992 -0.1648
  134OSM    H2S14494   6.615   5.849   6.847  0.0614  1.1109  0.4850
  134OSM    C3S14495   6.802   5.790   6.941  0.3601 -0.1319  0.6201
  134OSM    H3S14496   6.905   5.831   6.943 -0.0403  0.9311 -0.0373
  134OSM     O314497   6.795   5.658   6.895  0.5156  0.2024 -0.2862
  134OSM    HO314498   6.756   5.659   6.808 -0.9036 -0.1742  0.3105
  134OSM    C4S14499   6.733   5.778   7.070  0.2987  0.1558  0.3467
  134OSM    H4S14500   6.628   5.745   7.059  0.2507  0.9241 -2.0323
  134OSM    C5S14501   6.780   5.813   7.189 -0.4750  0.2940 -0.3271
  134OSM    H5S14502   6.867   5.881   7.185  0.7219 -1.1185  0.7799
  134OSM    C6S14503   6.714   5.795   7.325  0.0541  0.6781  0.4920
  134OSM    H6S14504   6.721   5.686   7.345  1.2330  0.4061 -1.1453
  134OSM    H6T14505   6.611   5.835   7.314  1.0470  3.1429 -0.7885
  134OSM    C7S14506   6.796   5.859   7.436 -0.5121 -0.0625  0.3801
  134OSM    H7S14507   6.796   5.969   7.420 -1.9699 -0.1180 -0.1099
  134OSM    H7T14508   6.903   5.831   7.427 -0.7491 -0.3785 -2.3234
  134OSM    C8S14509   6.746   5.811   7.569 -0.1137  0.6887 -0.1706
  134OSM    H8S14510   6.755   5.702   7.588  0.2824  1.0773  2.1061
  134OSM    H8T14511   6.640   5.838   7.587  0.5021  1.9331  1.8687
  134OSM    C9S14512   6.835   5.866   7.680  0.1904  0.3673 -0.5320
  134OSM    H9S14513   6.866   5.970   7.658 -2.0583  1.0135 -0.8816
  134OSM    H9T14514   6.922   5.799   7.692 -0.4947 -0.2801  1.2449
  134OSM   C10S14515   6.778   5.854   7.830 -0.5303  0.0419  0.1844
  134OSM   H10S14516   6.742   5.748   7.833  0.2626 -0.2442 -0.0477
  134OSM   H10T14517   6.690   5.921   7.830  0.3024  1.1616  0.1765
  134OSM   C11S14518   6.889   5.878   7.940  0.6884 -0.0391 -0.0421
  134OSM   H11S14519   6.940   5.974   7.919  0.5717 -0.0343 -0.3086
  134OSM   H11T14520   6.962   5.795   7.926 -1.1206 -1.6711 -0.2666
  134OSM   C12S14521   6.829   5.882   8.078  0.1895  0.3440 -0.6525
  134OSM   H12S14522   6.769   5.790   8.093  1.6281 -1.2928 -3.8074
  134OSM   H12T14523   6.763   5.968   8.100 -2.0971 -0.8464 -2.3451
  134OSM   C13S14524   6.935   5.889   8.193  0.8555  0.0958 -0.2745
  134OSM   H13S14525   7.002   5.978   8.193  1.1949 -0.1142  1.9063
  134OSM   H13T14526   7.007   5.805   8.187  0.8436  0.1842 -2.6540
  134OSM   C14S14527   6.861   5.882   8.323  0.1153 -0.1826 -1.0008
  134OSM   H14S14528   6.834   5.776   8.341 -1.4826  0.1565 -1.2702
  134OSM   H14T14529   6.770   5.946   8.327  2.1619  2.8699 -0.1571
  134OSM   C15S14530   6.946   5.930   8.437 -0.3675  0.1101 -0.4351
  134OSM   H15S14531   6.968   6.037   8.414 -1.4823  0.6492  0.8640
  134OSM   H15T14532   7.035   5.865   8.439 -0.3987  0.0786  0.0246
  134OSM   C16S14533   6.883   5.930   8.583 -0.0317  0.2365 -0.4831
  134OSM   H16S14534   6.777   5.960   8.582 -0.0647  0.2185  0.7337
  134OSM   H16T14535   6.931   6.008   8.647  0.3795 -0.9158  0.6491
  134OSM   C17S14536   6.896   5.790   8.644 -0.0859  0.4396  0.0020
  134OSM   H17S14537   7.001   5.758   8.627  0.8006  2.4467  1.3298
  134OSM   H17T14538   6.824   5.723   8.592  1.4804  0.6450 -2.6245
  134OSM   C18S14539   6.858   5.789   8.792  0.2344  0.2199 -0.6886
  134OSM   H18S14540   6.927   5.854   8.851 -1.4791  0.3017  1.3605
  134OSM   H18T14541   6.857   5.691   8.844  1.2172  0.8697  0.6057
  134OSM   H18U14542   6.761   5.843   8.798  1.0476  1.6745 -0.0080
  134OSM    C1F14543   6.616   6.111   6.844 -0.5248 -0.2453  0.6488
  134OSM     OF14544   6.512   6.073   6.791  0.1148  0.5928  0.3338
  134OSM    C2F14545   6.646   6.255   6.863  0.1814  0.0129  1.0095
  134OSM    H2F14546   6.614   6.298   6.766  0.0263 -1.7389  0.2425
  134OSM    H2G14547   6.755   6.277   6.865 -0.1163  1.6619  0.8241
  134OSM    C3F14548   6.579   6.314   6.981 -0.5141 -0.0132  0.3569
  134OSM    H3F14549   6.472   6.286   6.984 -0.0781 -1.7344  2.0077
  134OSM    H3G14550   6.588   6.424   6.992  3.1348 -0.1712  0.2519
  134OSM    C4F14551   6.640   6.262   7.104  0.0607  0.1863 -0.7776
  134OSM    H4F14552   6.745   6.299   7.109  0.6336 -1.1628 -1.8954
  134OSM    H4G14553   6.636   6.151   7.110  0.4476  0.1425 -1.2640
  134OSM    C5F14554   6.557   6.316   7.225  0.3634 -0.0079 -0.4791
  134OSM    H5F14555   6.454   6.283   7.201 -0.2397 -0.0353  1.9415
  134OSM    H5G14556   6.564   6.427   7.220  0.3539 -0.0255 -0.8647
  134OSM    C6F14557   6.606   6.254   7.356  0.3445  1.0260  0.7804
  134OSM    H6F14558   6.641   6.149   7.349  2.2282  1.6262  0.5667
  134OSM    H6G14559   6.523   6.260   7.430 -0.4713  0.2522 -0.0453
  134OSM    C7F14560   6.728   6.340   7.422  0.2014  0.5331  0.0950
  134OSM    H7F14561   6.697   6.446   7.413  1.8965  1.2906  2.2927
  134OSM    H7G14562   6.823   6.325   7.365  2.2045  0.8567  3.1138
  134OSM    C8F14563   6.757   6.299   7.562  0.0000  0.3141 -0.4428
  134OSM    H8F14564   6.856   6.341   7.591  0.6743 -1.4216 -0.1111
  134OSM    H8G14565   6.770   6.189   7.558  2.7431  0.4152  2.0874
  134OSM    C9F14566   6.650   6.353   7.660 -0.4532  1.0655 -0.2597
  134OSM    H9F14567   6.580   6.427   7.619 -2.2074 -0.0540  0.5587
  134OSM   C10F14568   6.635   6.314   7.790 -0.1306 -0.2774 -0.8654
  134OSM   H10F14569   6.550   6.355   7.845  1.5692  0.0835  1.6244
  134OSM   C11F14570   6.727   6.228   7.874  0.0996 -0.0785  0.7159
  134OSM   H11F14571   6.766   6.149   7.808 -1.9279 -0.3871 -0.2020
  134OSM   H11G14572   6.667   6.178   7.953  0.3316 -0.8328  0.4187
  134OSM   C12F14573   6.843   6.303   7.949  0.1924  0.2586 -0.5090
  134OSM   H12F14574   6.904   6.348   7.868  0.7722 -3.2545 -2.1735
  134OSM   H12G14575   6.905   6.231   8.005 -0.6963  1.2854  1.9631
  134OSM   C13F14576   6.797   6.418   8.040 -0.1827 -0.0104  0.0358
  134OSM   H13F14577   6.732   6.485   7.978  0.3700  0.5930  0.0944
  134OSM   H13G14578   6.889   6.472   8.071 -0.4908 -0.2855  1.4793
  134OSM   C14F14579   6.713   6.370   8.160 -1.0429 -0.0561 -0.4738
  134OSM   H14F14580   6.634   6.304   8.119  0.7182 -3.3662  1.0653
  134OSM   H14G14581   6.667   6.456   8.213 -1.0727 -0.6894  0.5553
  134OSM   C15F14582   6.793   6.284   8.273  0.3582 -0.4085 -0.0293
  134OSM   H15F14583   6.894   6.266   8.230  0.6294  1.6192 -0.3463
  134OSM   H15G14584   6.737   6.188   8.276  1.6159 -1.1430  0.2096
  134OSM   C16F14585   6.800   6.359   8.410  0.0831 -0.2109  0.3085
  134OSM   H16F14586   6.836   6.284   8.484  0.3130  1.9176  2.4783
  134OSM   H16G14587   6.699   6.393   8.443  0.3488  0.0872  0.8339
  134OSM   C17F14588   6.903   6.473   8.410  0.2824  1.0662  1.1983
  134OSM   H17F14589   6.888   6.521   8.311  0.1207 -2.8106 -0.8440
  134OSM   H17G14590   7.005   6.430   8.411 -0.4816 -0.8415  1.1675
  134OSM   C18F14591   6.871   6.575   8.514  0.0220 -0.1541 -0.4441
  134OSM   H18F14592   6.945   6.657   8.516 -0.1769  0.0142  0.7274
  134OSM   H18G14593   6.860   6.535   8.617 -1.1781  1.0687 -0.0627
  134OSM   H18H14594   6.777   6.635   8.506  0.3590  0.4832  0.2528
  135OSM      N14595   6.547   6.700   6.462 -0.3860 -0.0649 -0.1632
  135OSM    C1514596   6.557   6.601   6.570  0.0078  0.2440  0.0101
  135OSM   H15A14597   6.658   6.563   6.576 -0.3931 -0.8786 -0.1356
  135OSM   H15B14598   6.490   6.517   6.557 -0.6454  0.7082  0.3547
  135OSM   H15C14599   6.516   6.651   6.656 -2.4483 -0.1109 -0.8884
  135OSM    C1414600   6.400   6.746   6.460 -0.6863 -0.1255  0.1429
  135OSM   H14A14601   6.328   6.665   6.450  1.6261 -2.1363 -1.4045
  135OSM   H14B14602   6.398   6.822   6.383  1.9381 -0.9746 -0.8758
  135OSM   H14C14603   6.381   6.802   6.550  1.8838 -0.4912  0.9956
  135OSM    C1314604   6.620   6.822   6.503 -0.2081  0.2868 -0.0262
  135OSM   H13A14605   6.601   6.853   6.605  0.2901 -0.1088  0.1886
  135OSM   H13B14606   6.613   6.899   6.428 -0.8993 -0.2608 -0.5346
  135OSM   H13C14607   6.723   6.791   6.508 -1.0350 -2.6493  0.7800
  135OSM    C1214608   6.598   6.643   6.335  0.2800 -0.1809  0.5456
  135OSM   H12A14609   6.588   6.720   6.259 -0.7188  0.8506  1.6848
  135OSM   H12B14610   6.533   6.563   6.303  0.6116 -1.4003  2.7563
  135OSM    C1114611   6.745   6.597   6.320  0.5366 -0.2907 -0.1679
  135OSM   H11A14612   6.765   6.558   6.218 -0.1036 -0.2548 -0.3111
  135OSM   H11B14613   6.755   6.513   6.391 -2.3990  1.0537  2.0101
  135OSM      P14614   6.975   6.698   6.424 -0.2674 -0.3123 -0.2011
  135OSM    O1314615   7.000   6.555   6.464  0.0605  0.6280 -0.1950
  135OSM    O1414616   7.080   6.772   6.349  0.0095  0.6970  0.2957
  135OSM    O1114617   6.938   6.776   6.560 -0.7263  0.4211 -0.6451
  135OSM    O1214618   6.836   6.706   6.348  0.1307  0.0265  0.0115
  135OSM    C1S14619   7.005   6.732   6.680 -0.5162 -0.3936  0.0804
  135OSM    H1S14620   7.090   6.662   6.667  0.8266  1.2616 -0.5954
  135OSM    H1T14621   6.934   6.681   6.747  1.7287 -3.0580  0.6182
  135OSM     NF14622   7.117   6.788   6.884 -0.0432  0.0404 -0.2354
  135OSM    HNF14623   7.048   6.765   6.952 -1.9477  1.8686 -1.4194
  135OSM    C2S14624   7.067   6.851   6.765 -0.0937 -0.3681  0.2591
  135OSM    H2S14625   7.155   6.895   6.714  2.6166 -4.0942  1.2928
  135OSM    C3S14626   6.961   6.962   6.789 -0.0192 -0.2994 -0.4055
  135OSM    H3S14627   6.867   6.921   6.832  0.3473 -1.8858 -1.0565
  135OSM     O314628   6.932   7.033   6.670 -0.6107  0.4158  0.1224
  135OSM    HO314629   7.003   7.019   6.607  1.2370  1.3570  1.8644
  135OSM    C4S14630   7.015   7.055   6.895  0.4552 -0.1467 -0.5197
  135OSM    H4S14631   7.033   6.993   6.983  2.2555  0.4291 -0.4495
  135OSM    C5S14632   7.056   7.180   6.891  0.2235 -0.6279 -0.4042
  135OSM    H5S14633   7.048   7.234   6.795  0.2510 -2.1202 -1.2698
  135OSM    C6S14634   7.098   7.266   7.011 -0.2042  0.2713 -0.7220
  135OSM    H6S14635   7.055   7.367   6.996 -1.7807 -0.4219 -1.0700
  135OSM    H6T14636   7.207   7.278   6.997 -0.3569  2.5653 -0.3901
  135OSM    C7S14637   7.064   7.223   7.156  0.7399 -0.1148  0.5244
  135OSM    H7S14638   7.086   7.115   7.169 -2.8310 -1.2034 -1.1200
  135OSM    H7T14639   6.954   7.234   7.172  0.8172  0.0981  0.9284
  135OSM    C8S14640   7.121   7.309   7.261 -0.0970 -0.4517 -0.1334
  135OSM    H8S14641   7.095   7.417   7.260  2.0725  0.1771  2.2892
  135OSM    H8T14642   7.232   7.305   7.254 -0.0148  0.1596  0.6396
  135OSM    C9S14643   7.082   7.252   7.401 -0.2199 -0.0410 -0.1330
  135OSM    H9S14644   7.110   7.146   7.419  0.8188  0.3057  0.4019
  135OSM    H9T14645   6.974   7.270   7.421  0.0089  1.2204  0.0823
  135OSM   C10S14646   7.163   7.331   7.508  0.9941  0.0577  0.6038
  135OSM   H10S14647   7.160   7.440   7.486 -2.1588 -0.1603 -0.6070
  135OSM   H10T14648   7.269   7.300   7.517  0.8935 -0.1388  1.1468
  135OSM   C11S14649   7.087   7.316   7.649  0.4798  0.1790  0.4264
  135OSM   H11S14650   7.074   7.212   7.684 -1.8538  0.3584  0.2612
  135OSM   H11T14651   6.982   7.354   7.653  1.1412  2.0994  1.0686
  135OSM   C12S14652   7.160   7.405   7.753 -0.0720  0.6748 -0.6143
  135OSM   H12S14653   7.129   7.511   7.747 -0.3814  0.6556  0.4658
  135OSM   H12T14654   7.270   7.404   7.734 -0.3861  0.2067 -2.6935
  135OSM   C13S14655   7.115   7.368   7.895 -0.0789  0.1602 -0.1634
  135OSM   H13S14656   7.094   7.259   7.897  0.2393  0.0841 -0.8911
  135OSM   H13T14657   7.018   7.420   7.914  0.0240 -0.3969  2.2126
  135OSM   C14S14658   7.227   7.408   7.993  0.0125  0.0420 -0.2268
  135OSM   H14S14659   7.265   7.511   7.977  1.8307 -0.5308  0.1200
  135OSM   H14T14660   7.320   7.349   7.975  0.8674  1.2807 -0.0196
  135OSM   C15S14661   7.188   7.378   8.141  0.1606  0.0801  0.0336
  135OSM   H15S14662   7.174   7.269   8.154  3.2043 -0.3571  0.2697
  135OSM   H15T14663   7.089   7.426   8.160  0.1268  0.4449 -0.9949
  135OSM   C16S14664   7.296   7.431   8.238 -0.4232 -0.6471 -0.8137
  135OSM   H16S14665   7.294   7.542   8.232  0.4559 -0.5473  0.4358
  135OSM   H16T14666   7.397   7.401   8.202  0.2614  1.0108 -0.3548
  135OSM   C17S14667   7.276   7.384   8.384 -0.3878 -0.3277  0.0423
  135OSM   H17S14668   7.240   7.280   8.395 -0.1652 -0.1773  2.7527
  135OSM   H17T14669   7.202   7.444   8.441 -0.5476 -0.6618  0.1865
  135OSM   C18S14670   7.408   7.388   8.458  0.3768 -0.0323 -0.2238
  135OSM   H18S14671   7.480   7.364   8.377 -2.1463  1.6485 -3.1601
  135OSM   H18T14672   7.421   7.310   8.536 -0.9594 -1.4511 -1.3707
  135OSM   H18U14673   7.435   7.486   8.503 -1.8792 -1.0585  3.9199
  135OSM    C1F14674   7.226   6.722   6.886 -0.6022 -0.5306 -0.2767
  135OSM     OF14675   7.300   6.730   6.790 -0.2214 -0.4465  0.1092
  135OSM    C2F14676   7.265   6.648   7.009 -0.1374  0.2898  0.0496
  135OSM    H2F14677   7.214   6.549   7.012  1.4607 -0.7643 -3.0179
  135OSM    H2G14678   7.241   6.709   7.099  0.0626  0.4191  0.0164
  135OSM    C3F14679   7.418   6.615   7.020 -0.4730 -0.0544 -0.4847
  135OSM    H3F14680   7.478   6.709   7.027  2.1947 -1.6798 -0.2481
  135OSM    H3G14681   7.448   6.552   6.933 -1.9898 -1.2585 -0.1716
  135OSM    C4F14682   7.453   6.536   7.151  0.8536  0.4033 -0.7020
  135OSM    H4F14683   7.545   6.475   7.135  1.0410  0.8923 -1.4946
  135OSM    H4G14684   7.375   6.466   7.190  0.6931  1.5500  1.1632
  135OSM    C5F14685   7.491   6.644   7.264 -0.1627  0.4384 -0.3598
  135OSM    H5F14686   7.409   6.718   7.273 -2.3465 -1.9927  0.9455
  135OSM    H5G14687   7.585   6.692   7.232  0.2538 -0.0125  0.1594
  135OSM    C6F14688   7.530   6.580   7.389 -0.3613  0.3237  0.1822
  135OSM    H6F14689   7.611   6.510   7.358  0.0115  1.0912 -0.5995
  135OSM    H6G14690   7.458   6.513   7.442  1.1626 -1.7726 -0.2563
  135OSM    C7F14691   7.588   6.678   7.492  0.8933  0.4145  0.3161
  135OSM    H7F14692   7.499   6.741   7.511 -1.1772 -2.1964 -0.1064
  135OSM    H7G14693   7.669   6.739   7.445  0.5927 -0.9772 -2.1960
  135OSM    C8F14694   7.629   6.620   7.631  0.7834  0.5124 -0.3354
  135OSM    H8F14695   7.545   6.554   7.662  2.4303 -1.0531  1.0167
  135OSM    H8G14696   7.639   6.705   7.701 -1.5141  1.7014 -1.3323
  135OSM    C9F14697   7.751   6.541   7.618  0.1716  0.2484  0.1562
  135OSM    H9F14698   7.805   6.536   7.523 -0.1935  2.1728 -0.2021
  135OSM   C10F14699   7.789   6.449   7.710  0.2597 -0.8985 -0.5828
  135OSM   H10F14700   7.875   6.387   7.683  1.0925 -0.3413  0.7118
  135OSM   C11F14701   7.732   6.419   7.845  0.1056 -0.0507  0.5006
  135OSM   H11F14702   7.683   6.319   7.843  0.1073 -0.0502 -0.6579
  135OSM   H11G14703   7.649   6.485   7.875 -0.6719 -1.6297  1.9526
  135OSM   C12F14704   7.838   6.414   7.962  0.0924 -0.0145  0.1160
  135OSM   H12F14705   7.889   6.510   7.983 -1.2101  0.1954  2.6627
  135OSM   H12G14706   7.905   6.329   7.937 -1.0315 -1.1237  0.8128
  135OSM   C13F14707   7.771   6.373   8.091  0.1664  0.3014 -0.1321
  135OSM   H13F14708   7.679   6.313   8.069  0.4126 -0.8319  1.7034
  135OSM   H13G14709   7.726   6.459   8.145 -0.5681 -1.1422  1.6827
  135OSM   C14F14710   7.868   6.293   8.179  0.3678  0.4799 -0.1359
  135OSM   H14F14711   7.960   6.354   8.176  0.8802 -0.1646 -4.8701
  135OSM   H14G14712   7.896   6.196   8.134 -1.5013 -0.7493  1.1696
  135OSM   C15F14713   7.817   6.260   8.317 -0.2023 -0.2595 -0.5359
  135OSM   H15F14714   7.729   6.193   8.302  0.5406 -1.4686  0.3610
  135OSM   H15G14715   7.777   6.358   8.352  0.0212 -0.7187  1.0569
  135OSM   C16F14716   7.920   6.202   8.421 -0.4874 -0.1051 -0.0511
  135OSM   H16F14717   7.865   6.195   8.517 -1.8716 -0.3342 -0.8246
  135OSM   H16G14718   8.002   6.277   8.420  0.1622 -0.8012 -0.9298
  135OSM   C17F14719   7.969   6.060   8.391 -0.3613 -0.1225 -0.6844
  135OSM   H17F14720   8.019   6.058   8.292  0.7054  2.5421 -0.2833
  135OSM   H17G14721   7.884   5.989   8.383  0.3672 -1.6091  2.9829
  135OSM   C18F14722   8.063   6.011   8.502 -0.2342  0.5911  0.7842
  135OSM   H18F14723   8.162   6.061   8.492  0.9215 -1.7892 -0.6079
  135OSM   H18G14724   8.081   5.902   8.491 -0.3134  0.5781  0.7833
  135OSM   H18H14725   8.016   6.026   8.601 -0.0683  0.0757  0.9490
  136OSM      N14726   2.963   0.225   6.001 -0.1838  0.3685 -0.2169
  136OSM    C1514727   2.839   0.286   5.952 -0.5699 -0.0263 -0.4037
  136OSM   H15A14728   2.790   0.352   6.022 -0.6059  2.5836 -2.6768
  136OSM   H15B14729   2.762   0.213   5.933 -0.0947  0.0321 -2.8410
  136OSM   H15C14730   2.866   0.345   5.865  0.0650  1.4682  0.7498
  136OSM    C1414731   3.014   0.125   5.902 -0.4521 -0.5106  0.8596
  136OSM   H14A14732   3.024   0.174   5.806 -3.4690 -0.8831  0.2679
  136OSM   H14B14733   2.950   0.039   5.897 -3.2830  1.5191  0.0148
  136OSM   H14C14734   3.109   0.091   5.941 -1.3079 -1.9069  1.8196
  136OSM    C1314735   3.054   0.342   5.995 -0.1849 -1.2084  0.7402
  136OSM   H13A14736   3.049   0.393   5.901  0.0754 -2.6842 -0.1045
  136OSM   H13B14737   3.158   0.320   6.012 -0.4792 -0.9870  3.2951
  136OSM   H13C14738   3.030   0.412   6.074  2.7592  0.2266  0.4886
  136OSM    C1214739   2.956   0.172   6.142 -0.0106  0.1494 -0.1910
  136OSM   H12A14740   2.875   0.101   6.144  0.2434 -0.1315  0.3547
  136OSM   H12B14741   2.919   0.257   6.198  2.9788 -0.3862  2.9318
  136OSM    C1114742   3.077   0.111   6.215  0.1903 -0.5175  0.6906
  136OSM   H11A14743   3.053   0.092   6.322  1.3594 -1.4438  0.8078
  136OSM   H11B14744   3.163   0.180   6.227  0.4208 -0.4099 -1.2980
  136OSM      P14745   3.045  -0.148   6.179 -0.3242  0.4164  0.0930
  136OSM    O1314746   2.902  -0.131   6.158  0.1684 -0.5488  0.0411
  136OSM    O1414747   3.109  -0.258   6.105  0.2327 -0.0290 -0.3948
  136OSM    O1114748   3.084  -0.171   6.328 -0.1700 -0.2617 -0.1018
  136OSM    O1214749   3.114  -0.010   6.147  0.3497  0.1084 -0.4017
  136OSM    C1S14750   3.225  -0.155   6.368  0.0420  0.2728  0.2098
  136OSM    H1S14751   3.261  -0.052   6.348  1.7720  0.2304  2.6594
  136OSM    H1T14752   3.292  -0.219   6.307 -2.5040 -1.0807 -1.3539
  136OSM     NF14753   3.397  -0.166   6.536  0.6175  0.5958  0.4417
  136OSM    HNF14754   3.452  -0.249   6.525  0.6200  0.6939 -0.3216
  136OSM    C2S14755   3.253  -0.180   6.522 -0.0235  0.5994 -0.0368
  136OSM    H2S14756   3.211  -0.104   6.591 -0.7332 -0.7507  1.0590
  136OSM    C3S14757   3.195  -0.319   6.575 -0.2966 -0.1079  0.0711
  136OSM    H3S14758   3.237  -0.411   6.529 -0.9473 -0.5782  0.4097
  136OSM     O314759   3.055  -0.334   6.568 -0.1011  0.0603 -0.0902
  136OSM    HO314760   3.036  -0.269   6.499 -0.5737 -1.2784 -1.2887
  136OSM    C4S14761   3.240  -0.334   6.719  0.7447 -0.4903  0.1304
  136OSM    H4S14762   3.349  -0.346   6.728  1.3051  2.0047 -1.9870
  136OSM    C5S14763   3.163  -0.345   6.826  0.1203 -0.6547 -0.4354
  136OSM    H5S14764   3.053  -0.350   6.816 -0.0418 -0.4610  1.0881
  136OSM    C6S14765   3.206  -0.347   6.969 -0.8002 -0.3804  0.2469
  136OSM    H6S14766   3.316  -0.355   6.978 -0.5299  2.1212 -0.3074
  136OSM    H6T14767   3.165  -0.437   7.021  0.4405 -0.5101  1.0260
  136OSM    C7S14768   3.169  -0.224   7.059  0.0878  0.1342  0.2115
  136OSM    H7S14769   3.059  -0.224   7.077  0.3954 -2.0525  2.5371
  136OSM    H7T14770   3.201  -0.136   6.999  1.9699 -1.7813 -1.7866
  136OSM    C8S14771   3.231  -0.231   7.197  0.0337 -0.6444 -0.0043
  136OSM    H8S14772   3.342  -0.223   7.187  0.1913  1.1089  2.2897
  136OSM    H8T14773   3.209  -0.329   7.245  1.1449 -0.8386  0.1428
  136OSM    C9S14774   3.186  -0.119   7.293 -0.1949  0.8445 -0.3709
  136OSM    H9S14775   3.076  -0.104   7.292 -0.5212 -1.1459  0.9893
  136OSM    H9T14776   3.230  -0.023   7.257  1.1303  0.2124 -0.4772
  136OSM   C10S14777   3.246  -0.138   7.435 -0.6561 -0.0889 -0.0882
  136OSM   H10S14778   3.357  -0.140   7.425 -0.6205 -0.7574  0.3969
  136OSM   H10T14779   3.224  -0.241   7.468  2.4523 -1.0830 -0.7501
  136OSM   C11S14780   3.216  -0.030   7.542 -0.2400  0.2019  0.0780
  136OSM   H11S14781   3.106  -0.018   7.547 -0.1786  1.5428 -1.1248
  136OSM   H11T14782   3.255   0.065   7.499 -0.4625  0.1119 -0.3372
  136OSM   C12S14783   3.265  -0.062   7.682  0.0210 -0.5482  0.6773
  136OSM   H12S14784   3.375  -0.062   7.695 -0.0673 -1.3893  1.5078
  136OSM   H12T14785   3.237  -0.169   7.692  0.6723 -0.8747 -0.7384
  136OSM   C13S14786   3.209   0.033   7.786 -0.0391 -0.3501 -0.3320
  136OSM   H13S14787   3.104   0.068   7.780 -1.1495 -3.1208  1.2954
  136OSM   H13T14788   3.263   0.130   7.782 -3.8080  1.9839  0.7810
  136OSM   C14S14789   3.219  -0.029   7.924 -0.0124  0.2159  0.4669
  136OSM   H14S14790   3.185   0.044   8.001  0.5481  0.7086  0.2627
  136OSM   H14T14791   3.325  -0.060   7.939  0.0319 -1.1830 -2.1560
  136OSM   C15S14792   3.137  -0.158   7.923 -0.2574 -0.2677 -0.1987
  136OSM   H15S14793   3.194  -0.240   7.874  0.8370  0.8498 -0.8526
  136OSM   H15T14794   3.039  -0.143   7.871  0.0646  0.5757 -0.5774
  136OSM   C16S14795   3.101  -0.215   8.067 -0.7076 -0.0530  0.2248
  136OSM   H16S14796   3.052  -0.135   8.127  3.0341  0.9423  2.2816
  136OSM   H16T14797   3.201  -0.233   8.112  0.3148  2.6817 -0.7394
  136OSM   C17S14798   3.001  -0.329   8.070 -1.2173 -0.4132  0.1262
  136OSM   H17S14799   3.022  -0.386   8.163 -1.0389  0.1420  0.4322
  136OSM   H17T14800   3.030  -0.391   7.983  1.2492  0.8680 -0.0655
  136OSM   C18S14801   2.861  -0.290   8.062 -0.3569 -0.0776  0.2533
  136OSM   H18S14802   2.826  -0.264   8.164  1.6167 -0.1702  0.9847
  136OSM   H18T14803   2.810  -0.385   8.035  2.1429 -1.3345 -0.4027
  136OSM   H18U14804   2.845  -0.209   7.987 -1.0868  1.0951  1.6408
  136OSM    C1F14805   3.459  -0.053   6.531  0.3294 -0.3696  0.5010
  136OSM     OF14806   3.398   0.058   6.518 -0.3756  0.3237 -0.1125
  136OSM    C2F14807   3.610  -0.056   6.516  0.1326 -0.4627  0.1520
  136OSM    H2F14808   3.637  -0.103   6.419  1.1607  2.4533 -1.0935
  136OSM    H2G14809   3.642  -0.133   6.590 -2.8121  0.2044  2.3081
  136OSM    C3F14810   3.685   0.076   6.526 -0.4319 -0.0638 -0.1199
  136OSM    H3F14811   3.645   0.150   6.454  1.1526  0.4609 -0.4932
  136OSM    H3G14812   3.788   0.044   6.499 -1.2267 -0.2327 -3.3691
  136OSM    C4F14813   3.697   0.144   6.662 -1.2087 -0.4621 -0.4033
  136OSM    H4F14814   3.714   0.057   6.729  0.2643  0.5892  0.6342
  136OSM    H4G14815   3.599   0.191   6.687 -0.2764  0.6679  1.3426
  136OSM    C5F14816   3.811   0.234   6.672 -0.3076 -0.1983 -0.3369
  136OSM    H5F14817   3.810   0.307   6.589  0.1803 -0.0816 -0.2453
  136OSM    H5G14818   3.908   0.183   6.651  0.3071  0.7325  0.1763
  136OSM    C6F14819   3.825   0.300   6.804 -0.3583 -0.0492 -0.0558
  136OSM    H6F14820   3.723   0.328   6.838 -0.2831 -0.4348  0.4945
  136OSM    H6G14821   3.885   0.393   6.794 -0.9918  0.2358 -1.5254
  136OSM    C7F14822   3.895   0.224   6.915 -0.2134  0.4655 -0.1564
  136OSM    H7F14823   3.981   0.174   6.866  0.5641  1.0150  0.6201
  136OSM    H7G14824   3.838   0.141   6.962 -2.0842  2.0084  0.3898
  136OSM    C8F14825   3.954   0.315   7.017 -0.7745 -0.0778 -0.5412
  136OSM    H8F14826   3.875   0.376   7.067 -1.2578  0.8555 -2.3489
  136OSM    H8G14827   4.018   0.383   6.957  1.0078  0.5216  1.8580
  136OSM    C9F14828   4.039   0.239   7.115  0.4827 -0.2917 -0.8721
  136OSM    H9F14829   4.142   0.215   7.083  1.5939  2.4457  0.3731
  136OSM   C10F14830   3.996   0.205   7.242 -0.7598 -0.5194 -0.3914
  136OSM   H10F14831   4.055   0.135   7.303 -0.6789  0.2416  0.4215
  136OSM   C11F14832   3.871   0.242   7.306  0.2935  0.3231 -0.3274
  136OSM   H11F14833   3.803   0.160   7.274  1.8689 -0.7053 -1.2100
  136OSM   H11G14834   3.823   0.337   7.274 -0.5503  1.3606  3.4748
  136OSM   C12F14835   3.890   0.266   7.456 -0.1916 -0.5545 -0.0674
  136OSM   H12F14836   3.796   0.311   7.493  0.4210  0.8115 -0.1100
  136OSM   H12G14837   3.963   0.347   7.477  0.0564 -0.2361 -1.9973
  136OSM   C13F14838   3.931   0.142   7.534 -0.2276  0.0557  0.9460
  136OSM   H13F14839   4.041   0.124   7.528 -0.4929 -1.3937 -2.1742
  136OSM   H13G14840   3.886   0.050   7.490 -1.4478  1.7035 -1.4658
  136OSM   C14F14841   3.879   0.139   7.677  0.3497 -0.1690  0.4528
  136OSM   H14F14842   3.887   0.035   7.713  0.5569 -0.8125 -1.3447
  136OSM   H14G14843   3.775   0.178   7.677  1.2945  2.8665 -1.9880
  136OSM   C15F14844   3.955   0.232   7.771  0.1789  0.9155  0.6757
  136OSM   H15F14845   3.940   0.340   7.750 -1.3021  1.1530  2.7575
  136OSM   H15G14846   4.062   0.202   7.768 -0.4292 -1.4352 -0.4468
  136OSM   C16F14847   3.907   0.200   7.919  0.1549  0.0470 -0.6114
  136OSM   H16F14848   3.960   0.264   7.993 -2.1620  1.5322 -0.1281
  136OSM   H16G14849   3.938   0.095   7.937  2.3185  0.8123  0.4489
  136OSM   C17F14850   3.756   0.219   7.946 -0.0338 -0.3463  0.3847
  136OSM   H17F14851   3.700   0.139   7.894 -2.0269  1.3614 -0.2506
  136OSM   H17G14852   3.726   0.320   7.909  1.2048 -0.4210 -0.8863
  136OSM   C18F14853   3.721   0.213   8.095  0.6008 -0.2116 -0.0597
  136OSM   H18F14854   3.610   0.218   8.107  0.7331  1.7486  0.7568
  136OSM   H18G14855   3.765   0.304   8.141  2.4988 -0.5381 -1.1194
  136OSM   H18H14856   3.757   0.120   8.144 -0.5180 -1.3697 -1.3449
  137OSM      N14857   2.932   5.884   5.874  0.1596  0.0221 -0.0145
  137OSM    C1514858   2.821   5.795   5.907 -0.2997 -0.3396 -0.5734
  137OSM   H15A14859   2.736   5.861   5.899  0.3233  0.3731 -1.6213
  137OSM   H15B14860   2.822   5.758   6.009  3.0205  0.8528 -0.0219
  137OSM   H15C14861   2.811   5.716   5.834  2.2661 -1.4998  0.2045
  137OSM    C1414862   3.059   5.807   5.874  0.4049  0.1058 -0.1038
  137OSM   H14A14863   3.047   5.715   5.818 -0.7597  0.2785 -0.1588
  137OSM   H14B14864   3.088   5.777   5.974  0.2944  0.3072 -0.0109
  137OSM   H14C14865   3.141   5.867   5.837 -0.3817  0.0863 -1.9575
  137OSM    C1314866   2.912   5.924   5.734 -0.0615  0.3464 -0.5314
  137OSM   H13A14867   2.896   5.841   5.666  1.7277  0.1558 -0.7574
  137OSM   H13B14868   2.995   5.980   5.694 -0.0672  0.2106 -0.7391
  137OSM   H13C14869   2.818   5.976   5.723 -0.1401  0.9871  2.3956
  137OSM    C1214870   2.944   6.007   5.968 -0.0563 -0.2238 -0.2260
  137OSM   H12A14871   3.040   6.054   5.954  0.5469 -1.4027 -0.1298
  137OSM   H12B14872   2.950   5.977   6.072  2.5839  0.3128 -0.1410
  137OSM    C1114873   2.854   6.133   5.944 -0.3836  0.0210 -0.4816
  137OSM   H11A14874   2.869   6.168   5.840 -1.1756  0.4270 -0.4644
  137OSM   H11B14875   2.882   6.210   6.019  0.3824  1.4098 -2.1256
  137OSM      P14876   2.620   6.121   6.063 -0.0641  0.1463  0.1427
  137OSM    O1314877   2.553   6.249   6.055  0.4402 -0.4335  0.0459
  137OSM    O1414878   2.543   5.994   6.064  0.1543  0.2491 -0.8124
  137OSM    O1114879   2.713   6.117   6.191 -0.4732  0.2218 -0.2577
  137OSM    O1214880   2.718   6.105   5.946 -0.2302  0.2702  0.7923
  137OSM    C1S14881   2.739   6.221   6.275  0.7232 -0.4863 -0.0567
  137OSM    H1S14882   2.657   6.289   6.307  1.4748 -0.5654  2.2294
  137OSM    H1T14883   2.802   6.294   6.221  0.7344 -1.1325 -0.9311
  137OSM     NF14884   2.792   6.283   6.518 -0.3491  0.0289 -0.3825
  137OSM    HNF14885   2.868   6.327   6.566 -1.3094 -1.1341  2.4042
  137OSM    C2S14886   2.812   6.186   6.406 -0.1198 -0.4908  0.6139
  137OSM    H2S14887   2.756   6.096   6.440 -0.0475 -0.7850 -0.0412
  137OSM    C3S14888   2.957   6.127   6.382 -0.2100 -0.3346 -0.6506
  137OSM    H3S14889   3.027   6.211   6.363 -1.1677  0.8439  0.7921
  137OSM     O314890   2.961   6.029   6.283  0.5505 -0.3483  0.2663
  137OSM    HO314891   2.873   6.024   6.245  0.8993 -0.3464 -0.5662
  137OSM    C4S14892   3.001   6.082   6.522 -0.5046 -0.0157  1.0086
  137OSM    H4S14893   3.076   6.146   6.571  0.5174 -0.8140  0.5291
  137OSM    C5S14894   2.975   5.961   6.574  0.0177 -0.0951  0.0224
  137OSM    H5S14895   2.915   5.891   6.515  0.5272 -0.5690  0.0507
  137OSM    C6S14896   3.026   5.897   6.700 -0.2392 -0.6280  0.6272
  137OSM    H6S14897   3.127   5.855   6.679 -1.4221 -2.3421 -2.1593
  137OSM    H6T14898   2.961   5.810   6.725  0.8037 -1.5224  0.3473
  137OSM    C7S14899   3.023   6.002   6.813  0.0131  0.8080  0.2684
  137OSM    H7S14900   2.932   6.065   6.812  0.8598  2.0972  0.6007
  137OSM    H7T14901   3.104   6.073   6.784  0.4616 -0.2330 -1.0899
  137OSM    C8S14902   3.057   5.930   6.953 -0.2999 -0.6308  0.0253
  137OSM    H8S14903   3.144   5.861   6.959 -1.0724 -1.6291 -0.0660
  137OSM    H8T14904   2.967   5.868   6.972 -0.9380  0.1014 -0.5153
  137OSM    C9S14905   3.061   6.047   7.056 -0.2412  0.1042 -0.3779
  137OSM    H9S14906   2.988   6.129   7.045  0.9757  1.2036 -0.4637
  137OSM    H9T14907   3.164   6.085   7.037 -0.4648  0.6076 -0.5789
  137OSM   C10S14908   3.055   5.990   7.196 -0.4239 -0.2519  0.1505
  137OSM   H10S14909   3.126   5.905   7.202 -0.4583 -0.3056 -0.1827
  137OSM   H10T14910   2.962   5.930   7.205  0.2910 -2.1725 -3.4284
  137OSM   C11S14911   3.072   6.090   7.312  0.3737  0.2588 -0.9778
  137OSM   H11S14912   2.983   6.154   7.333 -1.8749 -2.9111 -0.0256
  137OSM   H11T14913   3.157   6.161   7.301 -0.7297  2.0057  0.9738
  137OSM   C12S14914   3.086   6.000   7.435  0.1363  0.2325 -0.2688
  137OSM   H12S14915   3.162   5.924   7.407 -1.2444 -1.1890 -0.3341
  137OSM   H12T14916   2.994   5.942   7.459  0.2201  0.8791  1.8117
  137OSM   C13S14917   3.122   6.076   7.564  0.3571  0.1963  0.9813
  137OSM   H13S14918   3.202   6.152   7.549  0.1904  0.5205  1.6801
  137OSM   H13T14919   3.156   6.002   7.639  0.4570 -1.4093 -0.5847
  137OSM   C14S14920   2.996   6.147   7.622 -0.2027 -0.6075 -0.7524
  137OSM   H14S14921   2.902   6.096   7.593 -2.0610  0.8668  2.2209
  137OSM   H14T14922   2.986   6.251   7.585 -1.2736 -1.0997 -1.8855
  137OSM   C15S14923   2.979   6.161   7.777 -0.2458 -0.1815  0.3264
  137OSM   H15S14924   2.910   6.246   7.796 -0.6178 -0.4311  0.1058
  137OSM   H15T14925   3.072   6.192   7.829 -0.1388 -0.7587  0.4923
  137OSM   C16S14926   2.923   6.027   7.838  0.4528 -0.1322 -0.1512
  137OSM   H16S14927   2.987   5.941   7.809 -0.6270 -0.8900 -0.3587
  137OSM   H16T14928   2.821   6.020   7.795  0.3852  0.0619 -0.0243
  137OSM   C17S14929   2.923   6.035   7.994 -0.2659  0.0348 -0.0374
  137OSM   H17S14930   2.831   6.092   8.017  0.1231  0.0045  1.7160
  137OSM   H17T14931   3.007   6.087   8.044  0.2326  1.2224 -2.0175
  137OSM   C18S14932   2.903   5.899   8.058  0.5104  0.5179  0.1658
  137OSM   H18S14933   2.866   5.915   8.161 -1.3261 -1.5442 -0.0999
  137OSM   H18T14934   2.987   5.827   8.051  0.8507  1.0275 -1.4352
  137OSM   H18U14935   2.823   5.850   8.000 -1.3435 -0.2912  3.1859
  137OSM    C1F14936   2.675   6.321   6.574  0.9924 -0.7037 -0.5344
  137OSM     OF14937   2.562   6.269   6.539 -0.4866 -0.1633  0.4023
  137OSM    C2F14938   2.679   6.435   6.674 -0.1041  0.1373 -0.7799
  137OSM    H2F14939   2.581   6.485   6.690 -0.6373 -1.6971  2.6292
  137OSM    H2G14940   2.758   6.507   6.644 -0.0936 -0.4232 -2.1346
  137OSM    C3F14941   2.698   6.380   6.821  0.1185 -0.7108  0.2872
  137OSM    H3F14942   2.803   6.344   6.826  0.0294 -1.1323 -0.6805
  137OSM    H3G14943   2.638   6.287   6.821  0.8656 -1.2928 -2.6716
  137OSM    C4F14944   2.671   6.469   6.943 -0.1674  0.1906 -0.0609
  137OSM    H4F14945   2.567   6.506   6.941  0.1368  1.0473 -0.6186
  137OSM    H4G14946   2.731   6.561   6.931  0.5550 -0.4140 -1.3593
  137OSM    C5F14947   2.715   6.389   7.067  0.2588 -0.3474  0.0775
  137OSM    H5F14948   2.819   6.349   7.059  0.2350 -0.8247  1.7820
  137OSM    H5G14949   2.639   6.309   7.082  1.3479 -1.5096 -0.3613
  137OSM    C6F14950   2.714   6.491   7.184 -0.0208  1.0162  0.4023
  137OSM    H6F14951   2.615   6.540   7.191 -0.3899  0.9748 -2.9573
  137OSM    H6G14952   2.786   6.570   7.152 -1.1038  1.8298 -0.1185
  137OSM    C7F14953   2.742   6.441   7.324  0.1831  0.4327  0.1304
  137OSM    H7F14954   2.798   6.345   7.318 -1.9117 -0.9375  1.4225
  137OSM    H7G14955   2.650   6.403   7.373 -0.2232 -1.3528 -1.8279
  137OSM    C8F14956   2.810   6.533   7.426 -0.9490 -0.6992 -0.1141
  137OSM    H8F14957   2.899   6.565   7.367 -0.7480  0.6496  0.8905
  137OSM    H8G14958   2.852   6.480   7.514 -1.8519  2.6205  2.4648
  137OSM    C9F14959   2.725   6.647   7.472 -0.3475  0.2259  0.2667
  137OSM    H9F14960   2.725   6.741   7.415 -0.0345  0.4942  0.7087
  137OSM   C10F14961   2.656   6.641   7.586 -0.4677 -0.4391 -0.1214
  137OSM   H10F14962   2.602   6.734   7.611 -1.2701 -0.6635 -0.9764
  137OSM   C11F14963   2.646   6.536   7.688 -0.3026 -0.2882 -0.0640
  137OSM   H11F14964   2.736   6.549   7.752 -0.0546  1.7809 -0.7510
  137OSM   H11G14965   2.647   6.435   7.642 -2.2983 -0.3241 -0.1247
  137OSM   C12F14966   2.524   6.551   7.783  0.0600 -0.0886 -0.1602
  137OSM   H12F14967   2.511   6.460   7.845 -2.4020  2.3899  3.4114
  137OSM   H12G14968   2.434   6.571   7.721 -0.4163 -0.9789  0.2220
  137OSM   C13F14969   2.527   6.660   7.889 -0.4870  0.0793 -0.2650
  137OSM   H13F14970   2.512   6.766   7.861  2.0399  1.1059  1.8311
  137OSM   H13G14971   2.626   6.656   7.939 -0.0312  0.0359 -1.1558
  137OSM   C14F14972   2.413   6.648   7.985 -0.9631 -0.2835  0.0817
  137OSM   H14F14973   2.430   6.561   8.052  1.0836 -0.7548 -0.9890
  137OSM   H14G14974   2.319   6.620   7.932 -0.9923 -0.4234  0.2070
  137OSM   C15F14975   2.400   6.778   8.064 -0.7460 -0.7997 -0.4494
  137OSM   H15F14976   2.301   6.782   8.114  0.0314  0.9283  1.0554
  137OSM   H15G14977   2.400   6.873   8.006 -2.3501 -0.2475  0.3952
  137OSM   C16F14978   2.506   6.785   8.176  0.0601  0.0800  0.3845
  137OSM   H16F14979   2.609   6.781   8.134  0.2193  1.1825  0.6367
  137OSM   H16G14980   2.498   6.696   8.243  0.6507  0.8448  1.5026
  137OSM   C17F14981   2.493   6.899   8.278  0.1491 -0.3349  0.4554
  137OSM   H17F14982   2.398   6.881   8.332  0.1037 -1.8605 -0.0837
  137OSM   H17G14983   2.479   6.996   8.225 -0.5526 -0.0778  1.0998
  137OSM   C18F14984   2.612   6.884   8.372 -0.3526  0.3835  0.1635
  137OSM   H18F14985   2.709   6.905   8.322 -1.1326  0.0008 -1.5857
  137OSM   H18G14986   2.612   6.786   8.425  3.6805  0.0559 -0.1606
  137OSM   H18H14987   2.607   6.956   8.456  0.1606 -1.9956  2.3788
  138OSM      N14988   2.602   0.799   5.660 -0.2661  0.5612  0.2911
  138OSM    C1514989   2.621   0.685   5.752 -0.2042 -0.3669  0.3378
  138OSM   H15A14990   2.709   0.694   5.814  1.3300  1.4586 -1.9197
  138OSM   H15B14991   2.634   0.592   5.700 -2.5922 -2.3279  2.9044
  138OSM   H15C14992   2.529   0.677   5.808 -1.2030 -1.4203 -1.3849
  138OSM    C1414993   2.696   0.787   5.543 -0.3438  0.4113  1.2716
  138OSM   H14A14994   2.801   0.794   5.566  0.6023 -2.3240 -1.5149
  138OSM   H14B14995   2.666   0.851   5.462 -0.3338  2.0413  2.5011
  138OSM   H14C14996   2.686   0.691   5.495  0.7671  1.8128 -2.0471
  138OSM    C1314997   2.464   0.796   5.608 -0.4989 -0.3100  0.8300
  138OSM   H13A14998   2.446   0.716   5.538 -0.3600  0.9648 -0.7204
  138OSM   H13B14999   2.446   0.878   5.540  3.6077 -0.7470 -1.1091
  138OSM   H13C15000   2.394   0.775   5.688 -2.6743 -1.3188 -1.1965
  138OSM    C1215001   2.638   0.930   5.724  0.5532  0.7906 -0.1193
  138OSM   H12A15002   2.639   1.014   5.657 -1.4445  0.7226 -0.2966
  138OSM   H12B15003   2.736   0.936   5.767  0.0444  0.7859  1.0878
  138OSM    C1115004   2.538   0.985   5.830  0.3140 -0.1969 -0.3465
  138OSM   H11A15005   2.529   0.911   5.912 -1.7062  0.2094 -0.1656
  138OSM   H11B15006   2.446   1.011   5.774  1.8688 -0.1012 -3.0610
  138OSM      P15007   2.526   1.252   5.872  0.1025 -0.1879  0.3180
  138OSM    O1315008   2.620   1.348   5.933 -0.5767  0.2020 -0.3762
  138OSM    O1415009   2.481   1.278   5.733 -0.1638  0.0382 -0.5228
  138OSM    O1115010   2.394   1.244   5.965  0.3941 -0.6224 -0.1416
  138OSM    O1215011   2.593   1.106   5.878  0.3414  0.1070  0.2535
  138OSM    C1S15012   2.422   1.209   6.107  0.1919 -0.1401 -0.2806
  138OSM    H1S15013   2.513   1.146   6.115  0.3258 -0.1289 -1.5214
  138OSM    H1T15014   2.337   1.156   6.156 -0.0579  0.1582 -0.3874
  138OSM     NF15015   2.504   1.320   6.325 -0.0443 -0.0812 -0.1925
  138OSM    HNF15016   2.451   1.319   6.409  1.4090  2.9245  0.8971
  138OSM    C2S15017   2.436   1.339   6.195  0.0563  0.8804 -0.0074
  138OSM    H2S15018   2.500   1.405   6.132  0.0807  0.6431 -0.2303
  138OSM    C3S15019   2.300   1.423   6.200 -0.1088 -0.4853  0.4398
  138OSM    H3S15020   2.236   1.361   6.267 -0.5450 -1.9195 -1.2284
  138OSM     O315021   2.219   1.413   6.081  0.1732  0.4137 -0.7318
  138OSM    HO315022   2.267   1.356   6.021 -1.7243 -0.9412 -1.0712
  138OSM    C4S15023   2.325   1.559   6.266 -0.4255  0.1461 -0.2744
  138OSM    H4S15024   2.342   1.546   6.374 -0.0461 -1.0108 -0.4599
  138OSM    C5S15025   2.323   1.673   6.196 -0.7162  0.5586  0.5891
  138OSM    H5S15026   2.285   1.674   6.093 -0.6174 -1.3587  0.4864
  138OSM    C6S15027   2.337   1.801   6.264 -0.2198  0.1001  0.1053
  138OSM    H6S15028   2.336   1.883   6.189  0.2764  0.3327  0.3452
  138OSM    H6T15029   2.427   1.813   6.328  0.3828  1.5582 -0.9557
  138OSM    C7S15030   2.206   1.817   6.340  1.0038  0.1010 -1.3053
  138OSM    H7S15031   2.171   1.723   6.388  1.4786  0.4168 -0.2991
  138OSM    H7T15032   2.116   1.842   6.280  0.9725  3.9440  0.0430
  138OSM    C8S15033   2.211   1.924   6.450 -0.8791 -0.0449  0.1163
  138OSM    H8S15034   2.195   2.023   6.402 -0.4873  1.0372  2.1306
  138OSM    H8T15035   2.311   1.923   6.497 -0.7747 -0.1633 -0.1087
  138OSM    C9S15036   2.097   1.888   6.546 -0.3210  0.4948 -0.2178
  138OSM    H9S15037   2.112   1.787   6.588  1.8273  0.5850 -0.6568
  138OSM    H9T15038   1.999   1.891   6.494 -1.2194  0.2824  1.4082
  138OSM   C10S15039   2.087   1.978   6.673  0.2697 -0.4442  0.0271
  138OSM   H10S15040   2.135   2.077   6.659  2.0486 -1.3092 -0.2657
  138OSM   H10T15041   2.145   1.926   6.752 -1.0010 -2.7365 -0.4478
  138OSM   C11S15042   1.940   1.983   6.726  0.0331  0.0662  0.6639
  138OSM   H11S15043   1.891   1.886   6.753  2.0298 -0.6025  2.0595
  138OSM   H11T15044   1.877   2.019   6.642 -3.1684 -3.0714  1.4310
  138OSM   C12S15045   1.939   2.068   6.851  1.2932 -0.4446 -0.2473
  138OSM   H12S15046   1.843   2.121   6.863  1.0673 -0.9383  0.1200
  138OSM   H12T15047   2.010   2.153   6.841  1.4660 -0.6259 -0.5861
  138OSM   C13S15048   1.980   1.984   6.970 -0.3444 -0.2035  0.2756
  138OSM   H13S15049   2.064   1.911   6.972 -2.0639 -2.2765  1.2288
  138OSM   H13T15050   1.898   1.916   7.002  0.7732 -1.8743 -0.2584
  138OSM   C14S15051   2.006   2.074   7.098  0.3312  0.8085  0.3214
  138OSM   H14S15052   1.923   2.140   7.128  1.2273  1.5188  1.3008
  138OSM   H14T15053   2.081   2.153   7.078  2.7704 -1.4062  0.1828
  138OSM   C15S15054   2.046   1.990   7.224  0.2692  0.5477  0.3536
  138OSM   H15S15055   2.126   1.918   7.198 -0.1746 -0.5701  1.8977
  138OSM   H15T15056   1.960   1.924   7.246  2.1778 -1.6728  1.5967
  138OSM   C16S15057   2.097   2.074   7.338 -0.1702  0.4522 -0.5338
  138OSM   H16S15058   2.018   2.149   7.359 -0.0918  0.9489 -1.9426
  138OSM   H16T15059   2.190   2.127   7.308  0.5259 -0.0285  0.7003
  138OSM   C17S15060   2.133   1.999   7.466 -0.2698 -0.6861  0.0795
  138OSM   H17S15061   2.202   1.918   7.434  2.1740  0.7192  1.5226
  138OSM   H17T15062   2.042   1.956   7.514  0.3494  0.1683  2.1212
  138OSM   C18S15063   2.207   2.099   7.563  0.0126 -0.0772  0.8522
  138OSM   H18S15064   2.195   2.061   7.667 -2.2714 -0.6044  0.4359
  138OSM   H18T15065   2.175   2.205   7.560  0.1141 -0.0644  0.1349
  138OSM   H18U15066   2.316   2.084   7.547  0.0059  1.6771 -1.3398
  138OSM    C1F15067   2.624   1.275   6.336  0.2648  0.5013 -0.0168
  138OSM     OF15068   2.696   1.261   6.243 -0.3154  0.1551  0.9687
  138OSM    C2F15069   2.660   1.235   6.474 -0.7662  0.1279  0.2685
  138OSM    H2F15070   2.577   1.190   6.533  0.6258 -0.1914  2.0787
  138OSM    H2G15071   2.688   1.331   6.523  1.8201  0.4129 -1.5717
  138OSM    C3F15072   2.774   1.137   6.479 -0.8611  0.0451 -0.0910
  138OSM    H3F15073   2.866   1.194   6.453 -0.6623 -0.5510 -0.7213
  138OSM    H3G15074   2.760   1.056   6.404  0.5008 -0.7146  0.4368
  138OSM    C4F15075   2.806   1.095   6.623  0.3095 -0.3785  0.3011
  138OSM    H4F15076   2.880   1.013   6.612  1.8801  1.1285 -1.0630
  138OSM    H4G15077   2.715   1.062   6.677 -0.8879  2.7022  0.3358
  138OSM    C5F15078   2.862   1.211   6.705  0.5329 -0.9583  0.1262
  138OSM    H5F15079   2.780   1.282   6.730  0.0652 -1.3341 -0.3076
  138OSM    H5G15080   2.939   1.258   6.641  2.4721 -0.5822  2.5616
  138OSM    C6F15081   2.944   1.160   6.834  1.1211  0.3668  0.3422
  138OSM    H6F15082   3.000   1.073   6.793  2.0617  0.7689  0.7541
  138OSM    H6G15083   2.875   1.114   6.909 -0.8943  1.8445 -0.5095
  138OSM    C7F15084   3.045   1.264   6.883 -0.1261  0.5769  0.6164
  138OSM    H7F15085   3.095   1.306   6.793 -1.1418 -2.6487 -1.6498
  138OSM    H7G15086   3.116   1.202   6.941 -0.9250  0.2485  1.2797
  138OSM    C8F15087   2.985   1.375   6.968 -0.8676 -0.2647 -0.4388
  138OSM    H8F15088   2.891   1.420   6.931 -1.5790 -1.5680 -0.2896
  138OSM    H8G15089   3.058   1.459   6.970  0.7588 -1.4689 -2.8789
  138OSM    C9F15090   2.949   1.318   7.099  1.0865  0.2518 -0.3175
  138OSM    H9F15091   2.857   1.259   7.091  1.0186  0.2665  0.2602
  138OSM   C10F15092   3.005   1.315   7.222 -0.4015  0.3140  0.6271
  138OSM   H10F15093   2.946   1.261   7.297 -1.5564 -0.8929 -1.0801
  138OSM   C11F15094   3.134   1.386   7.252  0.7214  0.9112  0.3254
  138OSM   H11F15095   3.152   1.469   7.181  0.3830  0.5360 -0.2048
  138OSM   H11G15096   3.216   1.315   7.227  0.4696  1.1960 -1.4040
  138OSM   C12F15097   3.148   1.404   7.401  0.3506  0.4656 -0.8799
  138OSM   H12F15098   3.250   1.444   7.421  0.3838  0.7320 -1.5683
  138OSM   H12G15099   3.149   1.302   7.445  3.4223  0.1575 -1.4518
  138OSM   C13F15100   3.042   1.501   7.465 -0.2542  0.0817  1.0636
  138OSM   H13F15101   2.937   1.464   7.467 -0.5540  0.9207  1.0693
  138OSM   H13G15102   3.044   1.593   7.404  0.0277  2.0736  3.9035
  138OSM   C14F15103   3.094   1.534   7.606  0.2787 -0.5340 -0.0773
  138OSM   H14F15104   3.202   1.562   7.605 -0.0298  0.9376  1.8756
  138OSM   H14G15105   3.093   1.448   7.677  3.1920 -0.1259  0.6283
  138OSM   C15F15106   3.010   1.656   7.662 -0.1235  0.2800  0.1224
  138OSM   H15F15107   2.910   1.627   7.701  0.7356 -0.4853  1.8640
  138OSM   H15G15108   3.001   1.735   7.585  0.3474  1.7749  1.5247
  138OSM   C16F15109   3.096   1.721   7.780  0.4176 -0.0131  0.1765
  138OSM   H16F15110   3.181   1.778   7.737  0.6977  1.5592  2.6245
  138OSM   H16G15111   3.128   1.647   7.857  0.4894  1.9984  2.1763
  138OSM   C17F15112   3.019   1.834   7.864 -0.2809  0.1836  0.3664
  138OSM   H17F15113   2.951   1.767   7.921 -1.5497 -1.1908 -2.5069
  138OSM   H17G15114   2.964   1.893   7.788 -0.2119  0.9969  0.9445
  138OSM   C18F15115   3.103   1.905   7.966  0.1736 -0.3734  0.0945
  138OSM   H18F15116   3.019   1.952   8.023 -1.5328 -2.4490 -0.6034
  138OSM   H18G15117   3.168   1.976   7.910  1.1913  1.6632  3.4982
  138OSM   H18H15118   3.161   1.836   8.030 -0.1510 -1.5368 -0.8384
  139OSM      N15119   1.247   2.082   5.785 -0.5680  0.2823  0.5785
  139OSM    C1515120   1.354   2.081   5.677  0.2563 -0.2869 -0.4753
  139OSM   H15A15121   1.314   2.028   5.592 -2.1410 -2.0802  1.6129
  139OSM   H15B15122   1.448   2.038   5.710 -0.6169 -4.2293 -2.5451
  139OSM   H15C15123   1.372   2.184   5.650  0.1031 -0.3215 -0.7079
  139OSM    C1415124   1.112   2.129   5.735 -0.6043  0.6523  0.1543
  139OSM   H14A15125   1.093   2.058   5.656  1.7958 -0.9936  0.9384
  139OSM   H14B15126   1.121   2.227   5.690 -0.3000  1.5239  2.0381
  139OSM   H14C15127   1.041   2.138   5.816 -1.1901 -1.6573 -0.0184
  139OSM    C1315128   1.226   1.943   5.837  0.6312  0.0428 -0.2013
  139OSM   H13A15129   1.159   1.952   5.921  1.1149 -0.2840  0.2262
  139OSM   H13B15130   1.321   1.900   5.867  0.3068 -0.3897  0.2171
  139OSM   H13C15131   1.187   1.879   5.760  1.1737 -0.4516 -0.0769
  139OSM    C1215132   1.297   2.168   5.897  0.4669  0.7215  0.8061
  139OSM   H12A15133   1.326   2.261   5.851  0.6366 -1.0385 -3.0766
  139OSM   H12B15134   1.392   2.129   5.931 -0.1589 -0.7570  0.9275
  139OSM    C1115135   1.199   2.191   6.017 -0.1202 -0.4574 -0.0197
  139OSM   H11A15136   1.197   2.096   6.075 -0.2422  0.2633  1.1716
  139OSM   H11B15137   1.094   2.195   5.980 -0.3565 -1.0904  0.5489
  139OSM      P15138   1.368   2.275   6.199 -0.2923 -0.0896 -0.0545
  139OSM    O1315139   1.492   2.235   6.130  0.0839  0.7766  0.2831
  139OSM    O1415140   1.377   2.393   6.285 -1.0498 -0.5375  0.0715
  139OSM    O1115141   1.317   2.150   6.282 -0.8733 -0.0108  0.1709
  139OSM    O1215142   1.249   2.300   6.094  0.4749 -0.2344  0.0938
  139OSM    C1S15143   1.396   2.108   6.393 -0.0092  0.6791 -0.3696
  139OSM    H1S15144   1.423   2.200   6.451 -0.0724  0.9557 -0.7768
  139OSM    H1T15145   1.493   2.062   6.366 -0.0299  0.4618 -0.0833
  139OSM     NF15146   1.407   1.967   6.605 -0.5709  0.5232  0.7193
  139OSM    HNF15147   1.425   1.871   6.621 -2.1270 -0.1049 -0.8605
  139OSM    C2S15148   1.321   2.007   6.494 -0.5819  0.5017 -0.1276
  139OSM    H2S15149   1.245   2.068   6.547 -0.9120 -0.5568  0.6559
  139OSM    C3S15150   1.243   1.887   6.428 -0.0092  0.1145  0.6429
  139OSM    H3S15151   1.323   1.814   6.404  0.4596  0.5185  0.9593
  139OSM     O315152   1.190   1.912   6.293 -0.3390 -0.1324 -0.3000
  139OSM    HO315153   1.226   1.997   6.264 -0.5671  0.9516  2.3646
  139OSM    C4S15154   1.144   1.810   6.518 -0.4117 -0.2467  0.0505
  139OSM    H4S15155   1.192   1.769   6.608 -0.4947  1.6025  1.0015
  139OSM    C5S15156   1.010   1.814   6.517 -0.0394 -0.1709 -0.2209
  139OSM    H5S15157   0.962   1.880   6.443  2.0617 -2.0285 -3.4709
  139OSM    C6S15158   0.919   1.749   6.614  0.2055 -0.4673 -0.2671
  139OSM    H6S15159   0.845   1.684   6.563  0.6714 -1.5777  0.4481
  139OSM    H6T15160   0.853   1.822   6.665  0.4429 -0.6446  0.3009
  139OSM    C7S15161   0.983   1.666   6.733  0.7836  0.6529  0.5068
  139OSM    H7S15162   1.059   1.595   6.692  1.1936  2.3248 -1.8113
  139OSM    H7T15163   0.897   1.608   6.772 -1.9600  2.0664 -2.8878
  139OSM    C8S15164   1.039   1.750   6.846  0.0456  0.3713 -0.2372
  139OSM    H8S15165   0.960   1.810   6.896 -2.0028  1.9739 -4.8574
  139OSM    H8T15166   1.116   1.815   6.799 -1.9197  0.1581 -4.0753
  139OSM    C9S15167   1.098   1.661   6.955  0.6498 -0.2303  0.0694
  139OSM    H9S15168   1.174   1.590   6.917  0.3657 -1.8748  2.3634
  139OSM    H9T15169   1.009   1.598   6.975 -0.3193  0.6207 -1.3788
  139OSM   C10S15170   1.141   1.729   7.083 -0.3338 -0.0638 -0.2951
  139OSM   H10S15171   1.067   1.807   7.112  0.1220 -0.4412  2.0868
  139OSM   H10T15172   1.237   1.783   7.070 -0.8340  0.6889 -0.9579
  139OSM   C11S15173   1.178   1.623   7.188  0.3379 -0.4858  0.0101
  139OSM   H11S15174   1.242   1.548   7.138  0.4604 -0.9454  0.8403
  139OSM   H11T15175   1.091   1.564   7.224  2.2592 -2.3340  1.8347
  139OSM   C12S15176   1.256   1.685   7.299 -0.1622 -0.0451  0.1812
  139OSM   H12S15177   1.202   1.780   7.322 -0.8630 -0.2195 -0.6645
  139OSM   H12T15178   1.358   1.716   7.269  0.9836 -0.9104  2.9289
  139OSM   C13S15179   1.263   1.598   7.427  0.5025 -0.4108 -0.5794
  139OSM   H13S15180   1.311   1.498   7.416  2.0401  0.3221 -0.8874
  139OSM   H13T15181   1.157   1.572   7.447  0.0146  0.5811 -1.7409
  139OSM   C14S15182   1.339   1.671   7.534  0.8739 -0.2022 -0.6241
  139OSM   H14S15183   1.310   1.778   7.534  3.0967  0.4722  0.7307
  139OSM   H14T15184   1.449   1.670   7.522  1.0033 -2.8530  0.0982
  139OSM   C15S15185   1.296   1.616   7.670 -0.1958  0.3169  0.3548
  139OSM   H15S15186   1.275   1.507   7.673 -1.3483  0.4678 -0.8966
  139OSM   H15T15187   1.196   1.664   7.676 -0.2359  0.2368  0.3354
  139OSM   C16S15188   1.384   1.666   7.776 -0.1868 -1.0159  0.0934
  139OSM   H16S15189   1.423   1.763   7.740  2.5645 -1.9861  0.1671
  139OSM   H16T15190   1.475   1.606   7.800  0.7312  0.3440  0.1152
  139OSM   C17S15191   1.309   1.687   7.909  0.8237 -0.2951 -0.3302
  139OSM   H17S15192   1.307   1.597   7.973  0.6294 -0.1916 -0.1904
  139OSM   H17T15193   1.205   1.722   7.894  0.9160  0.3509  0.4978
  139OSM   C18S15194   1.377   1.794   8.003  0.4337 -0.4497 -0.0546
  139OSM   H18S15195   1.326   1.825   8.097 -0.4209  0.3806 -0.7786
  139OSM   H18T15196   1.390   1.886   7.944  1.6360  0.3836  1.4292
  139OSM   H18U15197   1.474   1.752   8.037  0.3290 -1.0151 -0.4329
  139OSM    C1F15198   1.476   2.056   6.679  0.1829  0.3742 -0.0512
  139OSM     OF15199   1.462   2.179   6.663 -0.4040 -0.7292 -0.7932
  139OSM    C2F15200   1.571   2.005   6.779 -0.2593  0.6609  0.8281
  139OSM    H2F15201   1.657   2.074   6.779  0.5663 -0.3351  1.9886
  139OSM    H2G15202   1.619   1.914   6.738  0.9069  1.2857  0.7841
  139OSM    C3F15203   1.506   1.996   6.916  1.0116  0.1804  0.0744
  139OSM    H3F15204   1.464   1.894   6.906  0.8917  0.1754  0.6305
  139OSM    H3G15205   1.429   2.073   6.938 -0.3137 -1.0952  0.0484
  139OSM    C4F15206   1.606   1.990   7.033  1.1155 -0.1616  0.2715
  139OSM    H4F15207   1.661   2.086   7.035  0.7307  0.0494  0.9706
  139OSM    H4G15208   1.689   1.918   7.018  0.8100 -0.4930  0.1475
  139OSM    C5F15209   1.548   1.965   7.173  0.0619 -0.4506 -0.1644
  139OSM    H5F15210   1.490   1.870   7.171 -0.4995 -0.1261  0.4844
  139OSM    H5G15211   1.486   2.055   7.190 -1.0817 -0.4856 -3.3514
  139OSM    C6F15212   1.661   1.963   7.279 -0.3201 -0.1615  0.4915
  139OSM    H6F15213   1.708   2.061   7.257  0.5303 -0.4869  0.8319
  139OSM    H6G15214   1.740   1.893   7.244 -0.0708  0.5334 -0.3781
  139OSM    C7F15215   1.614   1.942   7.427 -0.0584  1.0202 -0.4768
  139OSM    H7F15216   1.574   1.839   7.435 -0.2464  1.0598 -0.8287
  139OSM    H7G15217   1.538   2.019   7.454  0.2458  1.6119 -1.2479
  139OSM    C8F15218   1.739   1.938   7.516 -0.7187  0.8251 -0.6909
  139OSM    H8F15219   1.780   2.040   7.530  2.5447 -0.6458  1.7585
  139OSM    H8G15220   1.819   1.875   7.471 -1.7777 -0.8977 -0.2740
  139OSM    C9F15221   1.713   1.881   7.653 -0.6650 -0.6454 -0.2821
  139OSM    H9F15222   1.705   1.772   7.661 -0.5334 -0.6187  0.2732
  139OSM   C10F15223   1.694   1.949   7.762  0.1663  0.1169 -1.0990
  139OSM   H10F15224   1.669   1.890   7.851  1.0377 -1.4886 -1.8601
  139OSM   C11F15225   1.686   2.092   7.787 -0.5951 -0.3447 -0.6416
  139OSM   H11F15226   1.585   2.119   7.823  0.0178  1.3097 -0.0291
  139OSM   H11G15227   1.702   2.155   7.697 -0.2662  0.6271  0.0621
  139OSM   C12F15228   1.793   2.146   7.887  0.5145 -0.6448 -0.3617
  139OSM   H12F15229   1.779   2.103   7.989 -0.9249  2.8608  1.0479
  139OSM   H12G15230   1.754   2.248   7.905 -0.1841 -1.5115  4.0576
  139OSM   C13F15231   1.939   2.143   7.837  0.0724  0.3857  0.3097
  139OSM   H13F15232   1.934   2.217   7.753 -1.2306  1.3180  1.1612
  139OSM   H13G15233   1.979   2.044   7.807 -1.0010 -0.5450  1.8175
  139OSM   C14F15234   2.036   2.179   7.946  0.5264 -0.4368  0.5182
  139OSM   H14F15235   2.132   2.184   7.890  0.5816  1.3459  0.6937
  139OSM   H14G15236   2.045   2.093   8.015 -0.6250 -0.7021  0.3573
  139OSM   C15F15237   2.005   2.311   8.012  0.3634  0.6817  0.3763
  139OSM   H15F15238   1.910   2.310   8.069 -0.1659 -0.8918 -0.4707
  139OSM   H15G15239   1.989   2.392   7.938  2.4675 -0.2665 -1.2256
  139OSM   C16F15240   2.121   2.348   8.102  0.0018 -0.3927  0.6964
  139OSM   H16F15241   2.220   2.366   8.055  0.1229 -1.9013  0.3410
  139OSM   H16G15242   2.146   2.264   8.170  0.5147  0.5981  1.7770
  139OSM   C17F15243   2.096   2.482   8.184 -0.4399  0.1947  0.1163
  139OSM   H17F15244   1.986   2.491   8.201 -0.4085  0.6787  0.0841
  139OSM   H17G15245   2.119   2.571   8.122 -0.7085  0.1829 -0.0040
  139OSM   C18F15246   2.162   2.491   8.320 -0.2242  0.1917 -0.2219
  139OSM   H18F15247   2.270   2.466   8.310  0.0053  0.4336  1.3961
  139OSM   H18G15248   2.118   2.402   8.370  0.9174 -0.5436 -0.4832
  139OSM   H18H15249   2.144   2.586   8.374  0.7735 -0.2363  0.9140
  140OSM      N15250   2.885   4.112   5.902  0.2291  0.4793  0.1857
  140OSM    C1515251   2.750   4.050   5.875 -0.3124 -0.4251  0.3349
  140OSM   H15A15252   2.767   3.955   5.827 -0.4711 -0.2571 -0.0594
  140OSM   H15B15253   2.695   4.117   5.809 -1.0175  0.6161  1.9118
  140OSM   H15C15254   2.696   4.030   5.966  1.3262  0.1020  1.4572
  140OSM    C1415255   2.954   4.017   5.998  0.3582  0.0274  0.3447
  140OSM   H14A15256   3.060   4.039   5.998  0.5693 -0.8609  1.6960
  140OSM   H14B15257   2.930   3.912   5.996 -2.2084  0.4965  2.0820
  140OSM   H14C15258   2.928   4.055   6.096  1.2960  0.2725  0.5154
  140OSM    C1315259   2.954   4.109   5.778 -0.0675 -0.4456  0.1128
  140OSM   H13A15260   3.054   4.148   5.791 -0.3560  1.1579 -1.9242
  140OSM   H13B15261   2.890   4.162   5.709 -1.4193 -1.5697  0.4598
  140OSM   H13C15262   2.962   4.007   5.746  1.5450  0.0780 -1.2965
  140OSM    C1215263   2.882   4.260   5.954 -0.4150 -0.1859  0.1670
  140OSM   H12A15264   2.803   4.266   6.027 -0.7744 -0.9224 -0.1361
  140OSM   H12B15265   2.856   4.327   5.873  0.6523 -0.9291 -0.8317
  140OSM    C1115266   3.009   4.316   6.027 -0.5749  0.5784 -0.2789
  140OSM   H11A15267   3.008   4.257   6.121 -1.7192  1.1976  0.1166
  140OSM   H11B15268   3.000   4.421   6.063  2.6315  1.3659 -1.4399
  140OSM      P15269   3.265   4.244   6.002  0.1222 -0.0111 -0.1390
  140OSM    O1315270   3.254   4.113   6.067  0.4738  0.2388  0.8413
  140OSM    O1415271   3.374   4.257   5.905  0.1235  0.3863  0.2997
  140OSM    O1115272   3.280   4.352   6.114 -0.8954  0.0061 -0.7912
  140OSM    O1215273   3.126   4.296   5.935  0.9790  0.5847  0.1006
  140OSM    C1S15274   3.257   4.321   6.254  0.3035  0.0460  0.1768
  140OSM    H1S15275   3.173   4.250   6.269  0.7467 -1.4048 -3.1713
  140OSM    H1T15276   3.235   4.415   6.310  3.9395  2.5034 -2.0768
  140OSM     NF15277   3.348   4.217   6.456 -0.0574  0.1389 -0.3898
  140OSM    HNF15278   3.374   4.264   6.540  2.1200  0.7429 -1.3318
  140OSM    C2S15279   3.386   4.267   6.324  0.4684  0.8513 -0.0357
  140OSM    H2S15280   3.419   4.172   6.277  1.0390  1.6095 -1.2083
  140OSM    C3S15281   3.506   4.361   6.307 -0.5888  0.2739 -0.1260
  140OSM    H3S15282   3.481   4.460   6.350  1.5745  0.5205  0.6724
  140OSM     O315283   3.532   4.403   6.170 -0.1740 -0.5476 -0.4245
  140OSM    HO315284   3.454   4.388   6.115  0.2545  1.9726 -1.9187
  140OSM    C4S15285   3.629   4.300   6.364 -0.0338  0.2401 -0.3774
  140OSM    H4S15286   3.672   4.219   6.304  1.7547  0.5679  0.4053
  140OSM    C5S15287   3.711   4.362   6.451  0.7555 -0.5122 -0.2163
  140OSM    H5S15288   3.678   4.458   6.492  0.4813 -0.1295 -1.3055
  140OSM    C6S15289   3.846   4.318   6.484  0.2341  0.6155  0.7812
  140OSM    H6S15290   3.905   4.410   6.506 -0.3000  1.2901 -0.4791
  140OSM    H6T15291   3.893   4.263   6.399  2.0837 -0.8364  2.6407
  140OSM    C7S15292   3.843   4.235   6.609  0.4510  0.1155  0.4105
  140OSM    H7S15293   3.797   4.137   6.584 -0.1619  0.5951 -0.3739
  140OSM    H7T15294   3.778   4.273   6.690 -0.9828 -1.6004  0.1169
  140OSM    C8S15295   3.980   4.199   6.651  0.2525  0.8490 -0.2206
  140OSM    H8S15296   4.045   4.289   6.657  0.1078  0.8925  0.8033
  140OSM    H8T15297   4.027   4.128   6.580  1.5225 -0.6415  1.9750
  140OSM    C9S15298   3.973   4.125   6.785  0.1818 -0.0370 -0.4411
  140OSM    H9S15299   4.065   4.066   6.806  0.6551  0.7396 -0.2954
  140OSM    H9T15300   3.894   4.048   6.770  0.1779  0.3925 -2.9604
  140OSM   C10S15301   3.935   4.201   6.910  0.3245 -0.0010 -0.5001
  140OSM   H10S15302   3.826   4.221   6.899  0.4471  0.5685 -0.6672
  140OSM   H10T15303   3.991   4.297   6.916  0.8119 -0.3138  0.0948
  140OSM   C11S15304   3.974   4.124   7.036  0.1109 -0.3035  0.1538
  140OSM   H11S15305   4.081   4.092   7.033  0.5060  0.9615  0.0515
  140OSM   H11T15306   3.917   4.031   7.055  0.2470 -0.2942  0.6141
  140OSM   C12S15307   3.961   4.219   7.153  0.5917  0.1734  0.1327
  140OSM   H12S15308   3.859   4.262   7.149 -0.1306 -1.3126  1.5307
  140OSM   H12T15309   4.042   4.295   7.140  1.0325 -0.2994  0.1007
  140OSM   C13S15310   3.970   4.151   7.287 -0.0708  0.1216  0.9119
  140OSM   H13S15311   4.064   4.092   7.296 -0.3269 -0.5071 -0.4222
  140OSM   H13T15312   3.896   4.070   7.299 -0.8664  0.7740  0.4869
  140OSM   C14S15313   3.977   4.253   7.402  0.9870 -0.2897  0.5051
  140OSM   H14S15314   3.899   4.331   7.402  0.7652 -0.5073  0.8283
  140OSM   H14T15315   4.074   4.305   7.385  1.9000 -1.6532  1.3242
  140OSM   C15S15316   3.984   4.187   7.543  0.3735  0.2096  0.8184
  140OSM   H15S15317   4.066   4.113   7.540 -0.6581 -0.9578  0.6711
  140OSM   H15T15318   3.887   4.136   7.563 -1.6072  3.5670  0.5942
  140OSM   C16S15319   4.037   4.288   7.644 -0.1249 -0.5221  0.0736
  140OSM   H16S15320   3.957   4.361   7.667 -1.0452 -1.3438 -0.4473
  140OSM   H16T15321   4.128   4.342   7.609  0.5185 -2.4051 -1.3122
  140OSM   C17S15322   4.067   4.219   7.778 -0.0909  0.0157 -0.1877
  140OSM   H17S15323   4.144   4.140   7.766  1.9069  1.6729  1.1668
  140OSM   H17T15324   3.974   4.162   7.801  0.0995 -0.7615 -1.2470
  140OSM   C18S15325   4.120   4.301   7.891  0.1431 -0.1585  0.4291
  140OSM   H18S15326   4.043   4.371   7.931 -0.5204 -0.6083 -0.0456
  140OSM   H18T15327   4.211   4.353   7.854 -1.3101  1.0837 -1.5954
  140OSM   H18U15328   4.138   4.247   7.987  0.3227 -0.8033  0.0351
  140OSM    C1F15329   3.288   4.098   6.475  0.2583  0.2759 -0.2397
  140OSM     OF15330   3.256   4.027   6.378  0.5500 -0.1122 -0.1760
  140OSM    C2F15331   3.258   4.051   6.614  0.8280  0.5696  0.0628
  140OSM    H2F15332   3.176   4.113   6.655  0.1445 -0.8431  0.9321
  140OSM    H2G15333   3.351   4.052   6.675  1.0046 -0.3559 -0.1652
  140OSM    C3F15334   3.211   3.910   6.614 -0.0067  0.6463 -0.3153
  140OSM    H3F15335   3.281   3.843   6.562  0.3311  0.7880 -0.0469
  140OSM    H3G15336   3.125   3.906   6.544  0.0136  1.9486 -0.4491
  140OSM    C4F15337   3.155   3.850   6.750  0.1724  0.7994  0.3501
  140OSM    H4F15338   3.074   3.915   6.789 -0.3030  0.0444  0.6571
  140OSM    H4G15339   3.229   3.859   6.832  0.0948  0.6151  0.4419
  140OSM    C5F15340   3.093   3.716   6.742 -0.1734 -0.4090  0.4980
  140OSM    H5F15341   3.179   3.646   6.739 -1.4886 -2.0615  0.0160
  140OSM    H5G15342   3.031   3.713   6.649  1.4708 -0.0734 -0.6670
  140OSM    C6F15343   3.013   3.683   6.867 -0.5788 -0.1140 -0.6575
  140OSM    H6F15344   2.931   3.757   6.878 -0.1125  0.0600  2.7244
  140OSM    H6G15345   3.080   3.684   6.957 -0.7841 -0.8181 -0.4921
  140OSM    C7F15346   2.933   3.551   6.849  0.0130 -0.2009  0.3957
  140OSM    H7F15347   3.002   3.464   6.849 -0.7869 -0.9505 -2.5287
  140OSM    H7G15348   2.892   3.559   6.746  0.5209  2.3559  0.3096
  140OSM    C8F15349   2.822   3.545   6.953  0.8912  1.1594  0.0712
  140OSM    H8F15350   2.741   3.616   6.925  0.9276  0.3397 -2.3409
  140OSM    H8G15351   2.861   3.567   7.055  0.3293 -0.6971  0.7289
  140OSM    C9F15352   2.752   3.407   6.943  0.2789 -0.1538  0.7837
  140OSM    H9F15353   2.714   3.383   6.842 -1.9729 -2.0951  1.9821
  140OSM   C10F15354   2.726   3.322   7.039 -0.0259 -0.1544 -0.2709
  140OSM   H10F15355   2.685   3.224   7.010 -2.0920  0.9486 -1.3682
  140OSM   C11F15356   2.770   3.334   7.183 -1.0908  0.1066 -0.2730
  140OSM   H11F15357   2.752   3.441   7.208  1.3768 -0.0238  2.6241
  140OSM   H11G15358   2.877   3.318   7.208 -0.6680 -0.7320 -2.4092
  140OSM   C12F15359   2.678   3.251   7.276  0.1171  0.8087  1.4097
  140OSM   H12F15360   2.681   3.144   7.247 -1.4200  0.9682  0.5172
  140OSM   H12G15361   2.577   3.295   7.261 -1.3290 -1.8934  2.6023
  140OSM   C13F15362   2.705   3.277   7.420 -0.4146  0.2287 -0.6281
  140OSM   H13F15363   2.693   3.384   7.448 -0.2971  0.8565 -2.8326
  140OSM   H13G15364   2.802   3.228   7.443 -0.3164  1.2496  1.3108
  140OSM   C14F15365   2.613   3.192   7.505  0.4208  0.0541 -0.0933
  140OSM   H14F15366   2.628   3.084   7.482 -0.2706  0.0246 -0.4363
  140OSM   H14G15367   2.514   3.234   7.477  0.6075  0.2575 -0.4439
  140OSM   C15F15368   2.643   3.225   7.651 -0.1608 -0.2496 -0.4298
  140OSM   H15F15369   2.593   3.321   7.675 -0.1759  0.2576 -2.3284
  140OSM   H15G15370   2.750   3.239   7.680 -0.6354  1.3982  0.6400
  140OSM   C16F15371   2.594   3.118   7.749  0.0034 -0.2768  0.0269
  140OSM   H16F15372   2.635   3.132   7.851  1.6017 -2.1698 -0.2876
  140OSM   H16G15373   2.630   3.018   7.716 -0.8760 -1.3346  2.0938
  140OSM   C17F15374   2.445   3.107   7.769 -0.1772 -0.2681 -0.1221
  140OSM   H17F15375   2.446   3.041   7.859 -1.0443 -0.5339 -0.2911
  140OSM   H17G15376   2.394   3.055   7.685 -1.9418  0.9029  0.1646
  140OSM   C18F15377   2.370   3.232   7.802 -0.1369 -0.1323 -0.2075
  140OSM   H18F15378   2.437   3.301   7.857 -1.4107  1.2368 -0.2927
  140OSM   H18G15379   2.285   3.213   7.871 -0.2215 -0.6652 -0.4466
  140OSM   H18H15380   2.326   3.278   7.711 -0.0698 -0.1057 -0.2261
  141OSM      N15381   0.820   5.977   6.602 -0.5274  0.3067  0.1716
  141OSM    C1515382   0.924   5.881   6.542  0.3296  0.4037 -0.0370
  141OSM   H15A15383   1.010   5.929   6.497 -0.0979 -0.2812 -1.6619
  141OSM   H15B15384   0.879   5.833   6.456  0.1408  0.6918 -0.1000
  141OSM   H15C15385   0.961   5.799   6.602 -0.5075  0.1119  0.1006
  141OSM    C1415386   0.889   6.031   6.721 -0.6433 -1.1135 -0.3268
  141OSM   H14A15387   0.985   6.064   6.685  0.8453 -3.3835  1.3268
  141OSM   H14B15388   0.898   5.966   6.806 -3.5538  1.0664  1.8602
  141OSM   H14C15389   0.842   6.124   6.751 -2.2689 -2.2709  0.8886
  141OSM    C1315390   0.795   6.087   6.499 -0.4139 -0.4737 -0.6515
  141OSM   H13A15391   0.704   6.133   6.534  0.7329  1.6080 -0.2204
  141OSM   H13B15392   0.754   6.050   6.406  2.1558 -1.6817 -1.3776
  141OSM   H13C15393   0.871   6.161   6.478  0.0170 -1.0839 -1.3019
  141OSM    C1215394   0.690   5.901   6.639  0.3298 -0.2423  0.2080
  141OSM   H12A15395   0.665   5.833   6.558  1.9988 -1.6608  0.8252
  141OSM   H12B15396   0.615   5.979   6.646  0.6445  0.2609 -1.5412
  141OSM    C1115397   0.681   5.816   6.775 -0.3129  0.1238 -0.3203
  141OSM   H11A15398   0.574   5.794   6.795 -0.1389 -0.8630 -0.4395
  141OSM   H11B15399   0.716   5.880   6.859  2.0875  0.4384 -1.4804
  141OSM      P15400   0.726   5.568   6.760  0.1017  0.3010  0.3418
  141OSM    O1315401   0.641   5.570   6.639 -0.4730  0.3681 -0.2802
  141OSM    O1415402   0.839   5.472   6.764  0.0011  0.3346 -0.3449
  141OSM    O1115403   0.623   5.556   6.878 -0.1801  0.1254 -0.3678
  141OSM    O1215404   0.776   5.709   6.776  0.4199 -0.1005  0.4007
  141OSM    C1S15405   0.670   5.579   7.014  0.2238  0.8671  0.1190
  141OSM    H1S15406   0.724   5.676   7.027  0.6334  0.5776  0.6203
  141OSM    H1T15407   0.730   5.494   7.053 -1.8802 -0.2913  0.9466
  141OSM     NF15408   0.581   5.611   7.250  0.1485 -0.3745  0.2721
  141OSM    HNF15409   0.587   5.538   7.318  1.2420 -0.5259  0.0248
  141OSM    C2S15410   0.543   5.585   7.110  0.6401 -0.6085 -0.5467
  141OSM    H2S15411   0.483   5.667   7.064  3.7867  1.0913 -1.8940
  141OSM    C3S15412   0.444   5.462   7.091 -0.0072 -0.5865  0.0165
  141OSM    H3S15413   0.505   5.375   7.121  1.1926  0.2602  0.1062
  141OSM     O315414   0.416   5.427   6.959  0.5957 -0.1616  0.4918
  141OSM    HO315415   0.482   5.474   6.909  1.5292 -0.7320  1.1543
  141OSM    C4S15416   0.318   5.483   7.173  1.9449  0.6704  0.4461
  141OSM    H4S15417   0.257   5.572   7.151  0.1702 -0.2925  1.2855
  141OSM    C5S15418   0.279   5.398   7.275  0.2604  0.0315  0.0227
  141OSM    H5S15419   0.349   5.318   7.308 -0.1835 -1.2828 -2.0555
  141OSM    C6S15420   0.166   5.411   7.377 -1.1416  0.0729  0.2067
  141OSM    H6S15421   0.114   5.313   7.382  1.2985 -1.2330  3.0930
  141OSM    H6T15422   0.099   5.495   7.349 -1.1435  0.3709  1.0811
  141OSM    C7S15423   0.214   5.437   7.523 -0.0850  0.2040  0.3569
  141OSM    H7S15424   0.251   5.541   7.538  1.1194  0.0335 -1.1677
  141OSM    H7T15425   0.305   5.376   7.539 -0.4386 -0.1571  1.0206
  141OSM    C8S15426   0.108   5.407   7.631  0.6961 -0.3620 -0.1433
  141OSM    H8S15427   0.076   5.300   7.627 -0.5367  0.0341 -3.3356
  141OSM    H8T15428   0.020   5.473   7.623  1.3557  0.6714  0.8482
  141OSM    C9S15429   0.165   5.438   7.766  0.1720 -0.0614 -0.9959
  141OSM    H9S15430   0.169   5.547   7.785  0.6754 -0.3892  0.9851
  141OSM    H9T15431   0.262   5.386   7.781 -0.0537  0.1983  1.9636
  141OSM   C10S15432   0.082   5.386   7.887  0.1784  0.0371  0.5455
  141OSM   H10S15433   0.092   5.276   7.880 -0.0906  0.1151 -1.8555
  141OSM   H10T15434  -0.022   5.406   7.854  0.0267 -0.3246  0.8054
  141OSM   C11S15435   0.119   5.442   8.017 -1.0033  0.1191 -0.3478
  141OSM   H11S15436   0.087   5.547   8.036  0.5482  0.4922  0.3927
  141OSM   H11T15437   0.229   5.437   8.034 -1.2595 -1.2775  1.1890
  141OSM   C12S15438   0.067   5.350   8.125 -0.6601  0.7520 -0.6762
  141OSM   H12S15439   0.099   5.251   8.086 -1.3775  0.0714  0.4322
  141OSM   H12T15440  -0.043   5.357   8.130 -0.7023 -0.6523  1.5464
  141OSM   C13S15441   0.129   5.382   8.263 -0.0974  0.4399  0.1372
  141OSM   H13S15442   0.079   5.467   8.316 -0.7957  1.3257 -1.8442
  141OSM   H13T15443   0.232   5.421   8.250 -0.2976  0.4574 -1.6170
  141OSM   C14S15444   0.139   5.259   8.351 -0.0823  0.4085  0.2731
  141OSM   H14S15445   0.237   5.207   8.343 -0.3320 -0.2685  1.4220
  141OSM   H14T15446   0.056   5.192   8.320 -0.3132  1.0568 -0.5465
  141OSM   C15S15447   0.107   5.297   8.497  0.3024  0.4572 -0.0566
  141OSM   H15S15448   0.007   5.346   8.501 -0.8521 -1.7754  1.0455
  141OSM   H15T15449   0.187   5.368   8.528 -0.9864  2.3907 -1.0113
  141OSM   C16S15450   0.106   5.167   8.593  0.3167 -0.2680 -0.3614
  141OSM   H16S15451   0.201   5.111   8.580 -0.2315 -2.0548  2.4658
  141OSM   H16T15452   0.018   5.103   8.571  1.1472 -0.7794 -2.4311
  141OSM   C17S15453   0.109   5.215   8.738  0.1097  0.5895 -0.3417
  141OSM   H17S15454   0.022   5.284   8.752  1.0811  1.5435  1.4075
  141OSM   H17T15455   0.199   5.278   8.754  0.8472 -0.6887  0.8140
  141OSM   C18S15456   0.096   5.105   8.846 -0.6366 -0.3707 -0.3464
  141OSM   H18S15457   0.069   5.151   8.944  1.6119  1.1324 -0.3761
  141OSM   H18T15458   0.191   5.051   8.863 -0.6578 -0.5491 -0.7894
  141OSM   H18U15459   0.021   5.030   8.813 -0.8948  0.1679 -1.0171
  141OSM    C1F15460   0.634   5.726   7.280  0.3457  0.4318 -0.0061
  141OSM     OF15461   0.612   5.824   7.216  0.5306 -0.2837  0.0007
  141OSM    C2F15462   0.723   5.731   7.397 -0.3182 -0.1232 -0.5989
  141OSM    H2F15463   0.763   5.835   7.393  0.9206 -0.5840 -0.9338
  141OSM    H2G15464   0.808   5.664   7.370 -2.6960 -2.1304 -3.6755
  141OSM    C3F15465   0.652   5.694   7.530  0.5931 -0.4801  0.7220
  141OSM    H3F15466   0.714   5.743   7.609  1.0600 -1.0139  0.6919
  141OSM    H3G15467   0.647   5.583   7.537  0.0021 -0.5744 -0.7889
  141OSM    C4F15468   0.502   5.732   7.548 -0.1744 -0.0238  0.0386
  141OSM    H4F15469   0.442   5.685   7.468 -0.5479 -1.7522  1.2611
  141OSM    H4G15470   0.492   5.843   7.552 -1.4877 -0.1441  2.5964
  141OSM    C5F15471   0.456   5.689   7.687 -0.3471 -0.4044 -0.0790
  141OSM    H5F15472   0.501   5.590   7.708 -0.0726 -0.6486 -1.7015
  141OSM    H5G15473   0.347   5.670   7.671 -0.2051  0.8089 -3.2468
  141OSM    C6F15474   0.501   5.765   7.813  0.3681  0.4831 -0.1671
  141OSM    H6F15475   0.612   5.756   7.818  0.2181 -1.1977  3.3206
  141OSM    H6G15476   0.459   5.711   7.901 -3.6125 -0.5460 -2.5009
  141OSM    C7F15477   0.460   5.909   7.815 -0.1149 -0.5874 -0.1369
  141OSM    H7F15478   0.351   5.895   7.796  0.2254 -1.4547 -1.5709
  141OSM    H7G15479   0.498   5.973   7.732  1.9213 -1.6484 -0.0713
  141OSM    C8F15480   0.480   5.985   7.953  0.5414 -0.3466  0.0993
  141OSM    H8F15481   0.401   5.948   8.023 -1.1150  0.3911 -1.3074
  141OSM    H8G15482   0.458   6.092   7.937 -1.0320 -0.5054  0.9721
  141OSM    C9F15483   0.613   5.960   8.017  0.5543  0.3500  0.3113
  141OSM    H9F15484   0.675   5.902   7.947 -0.6481 -1.2492  0.5070
  141OSM   C10F15485   0.650   5.984   8.144  0.2452  0.4406  0.2064
  141OSM   H10F15486   0.757   5.965   8.163 -0.1458 -0.5701  1.5393
  141OSM   C11F15487   0.567   6.062   8.247 -0.3657 -0.2828  0.1052
  141OSM   H11F15488   0.459   6.064   8.222 -0.6336 -4.7790  0.0289
  141OSM   H11G15489   0.596   6.168   8.233 -0.7039 -0.2031 -0.0024
  141OSM   C12F15490   0.582   6.019   8.391  0.1588  0.9088 -0.7625
  141OSM   H12F15491   0.567   5.909   8.397  3.7023  0.3779  0.5754
  141OSM   H12G15492   0.503   6.064   8.456  0.8988 -1.1624  1.7066
  141OSM   C13F15493   0.724   6.045   8.440 -0.3940  0.0694 -0.1185
  141OSM   H13F15494   0.746   6.154   8.432 -0.1954  0.0232 -0.1870
  141OSM   H13G15495   0.797   6.000   8.370 -2.1063 -0.0813 -1.9077
  141OSM   C14F15496   0.743   5.986   8.582 -0.5989  0.3452  0.2994
  141OSM   H14F15497   0.728   5.876   8.585  0.7436  0.1486  0.6609
  141OSM   H14G15498   0.668   6.041   8.642 -0.5215 -1.3423  2.0527
  141OSM   C15F15499   0.888   6.007   8.632  0.2032 -1.0447  0.2476
  141OSM   H15F15500   0.890   6.114   8.662  1.8024 -0.2232 -2.4323
  141OSM   H15G15501   0.953   5.985   8.544 -0.8010  0.7356 -1.0075
  141OSM   C16F15502   0.919   5.925   8.748 -0.5045 -0.1854  0.1835
  141OSM   H16F15503   0.925   5.817   8.724 -1.2405 -0.6448  1.8722
  141OSM   H16G15504   0.837   5.918   8.823  0.2135 -0.1437  0.9885
  141OSM   C17F15505   1.056   5.970   8.814 -0.2455 -0.8998 -1.0740
  141OSM   H17F15506   1.037   6.073   8.850  0.5822 -0.7840 -0.9620
  141OSM   H17G15507   1.139   5.974   8.740  2.1533 -1.5727  1.4208
  141OSM   C18F15508   1.105   5.873   8.921  0.1498 -0.2230 -0.0428
  141OSM   H18F15509   1.120   5.773   8.876  1.0204  1.1445 -3.0331
  141OSM   H18G15510   1.037   5.878   9.010  2.3253  1.8875  1.6263
  141OSM   H18H15511   1.201   5.911   8.962  1.2196 -1.1280 -1.6078
  142OSM      N15512   0.637   6.481   6.468  0.3352 -0.3169  0.4183
  142OSM    C1515513   0.587   6.391   6.351  0.5195  0.5606 -0.2847
  142OSM   H15A15514   0.655   6.373   6.269  1.3234  1.0040  0.2740
  142OSM   H15B15515   0.492   6.427   6.314 -0.2606 -0.3706  0.7435
  142OSM   H15C15516   0.568   6.295   6.398  0.4357  1.2186  1.0824
  142OSM    C1415517   0.774   6.430   6.512 -0.3574  0.1047  0.3313
  142OSM   H14A15518   0.762   6.326   6.540 -1.4337  0.3026  0.6487
  142OSM   H14B15519   0.817   6.500   6.581  0.4725  0.4278 -0.4935
  142OSM   H14C15520   0.845   6.437   6.431 -0.7333  2.5615  0.1466
  142OSM    C1315521   0.666   6.616   6.408 -0.2881 -0.3021 -0.5104
  142OSM   H13A15522   0.574   6.668   6.386 -0.2077  0.4418  0.8543
  142OSM   H13B15523   0.729   6.611   6.320  1.9666 -2.5216  1.0680
  142OSM   H13C15524   0.724   6.683   6.469 -0.9865  1.8838 -2.1423
  142OSM    C1215525   0.540   6.503   6.576 -0.4263 -0.0418  0.0942
  142OSM   H12A15526   0.455   6.546   6.526  0.9564 -0.0270 -2.3774
  142OSM   H12B15527   0.587   6.577   6.638 -0.1107  1.0340 -1.3815
  142OSM    C1115528   0.492   6.380   6.660 -0.6726 -0.3441 -0.6749
  142OSM   H11A15529   0.415   6.426   6.725  2.4357  1.9284  1.7119
  142OSM   H11B15530   0.576   6.355   6.728 -0.7919  0.7980 -0.0733
  142OSM      P15531   0.366   6.149   6.641  0.1063  0.4480 -0.0438
  142OSM    O1315532   0.231   6.167   6.585 -0.2022 -0.0765 -0.2411
  142OSM    O1415533   0.425   6.018   6.605  0.4360  0.2135 -0.8008
  142OSM    O1115534   0.368   6.160   6.802  0.5889 -0.5733  0.1080
  142OSM    O1215535   0.453   6.266   6.583  0.1683  0.0371 -0.2706
  142OSM    C1S15536   0.479   6.098   6.875  0.4535 -0.8224 -0.2368
  142OSM    H1S15537   0.572   6.136   6.829  0.6204 -0.0777  0.6965
  142OSM    H1T15538   0.476   5.987   6.863  0.6463 -0.7790 -0.6876
  142OSM     NF15539   0.599   6.074   7.084  0.6238  0.1772 -0.3670
  142OSM    HNF15540   0.588   5.992   7.140 -1.1221 -0.2313 -1.2242
  142OSM    C2S15541   0.485   6.139   7.023 -0.2760 -0.0096  0.6194
  142OSM    H2S15542   0.511   6.246   7.037  0.3679 -0.3931  2.7556
  142OSM    C3S15543   0.357   6.111   7.102 -0.5773 -0.0106  0.9189
  142OSM    H3S15544   0.340   6.002   7.098 -0.8796  0.0423  0.6919
  142OSM     O315545   0.245   6.175   7.038 -0.2735  0.3704  0.1041
  142OSM    HO315546   0.282   6.187   6.950  0.5386 -1.2416  0.1866
  142OSM    C4S15547   0.364   6.158   7.243  0.0066  0.3247 -0.4017
  142OSM    H4S15548   0.372   6.266   7.261  0.8025  0.3492 -0.8658
  142OSM    C5S15549   0.352   6.079   7.346 -0.8021 -0.3854  0.5035
  142OSM    H5S15550   0.332   5.972   7.331 -1.0283 -0.1900 -0.6998
  142OSM    C6S15551   0.351   6.124   7.490  0.2812 -1.6002  0.0698
  142OSM    H6S15552   0.365   6.042   7.564  1.6442  0.8525  2.7587
  142OSM    H6T15553   0.256   6.179   7.503  1.6139  1.0684 -0.6990
  142OSM    C7S15554   0.465   6.220   7.527  0.7539  0.4311  0.4170
  142OSM    H7S15555   0.477   6.306   7.457  0.0326 -1.1672 -1.7598
  142OSM    H7T15556   0.564   6.171   7.519  0.3940 -0.0539 -1.5291
  142OSM    C8S15557   0.432   6.279   7.668  0.0957  0.3358 -0.8560
  142OSM    H8S15558   0.419   6.193   7.738  0.7333 -1.0486 -2.3621
  142OSM    H8T15559   0.342   6.343   7.660  1.8482  2.8732 -1.5768
  142OSM    C9S15560   0.541   6.371   7.729 -0.2766  0.0745  0.0321
  142OSM    H9S15561   0.544   6.465   7.669  0.9867 -0.6802 -1.1482
  142OSM    H9T15562   0.641   6.329   7.704  0.8119  2.3640  0.2571
  142OSM   C10S15563   0.526   6.422   7.871 -0.7092 -0.0710  0.2315
  142OSM   H10S15564   0.561   6.336   7.932 -0.0900  1.5054  2.2322
  142OSM   H10T15565   0.420   6.452   7.884 -0.6256  1.5475 -2.2101
  142OSM   C11S15566   0.611   6.541   7.907 -0.4582 -0.5367 -0.0414
  142OSM   H11S15567   0.592   6.624   7.837  0.4834 -0.8602 -0.7075
  142OSM   H11T15568   0.716   6.505   7.899 -1.3593 -3.2547 -0.6044
  142OSM   C12S15569   0.602   6.605   8.046  0.1030 -0.2407  0.0258
  142OSM   H12S15570   0.519   6.679   8.037 -0.8075 -1.2816 -0.2874
  142OSM   H12T15571   0.695   6.662   8.069  1.4626 -2.6817  0.8993
  142OSM   C13S15572   0.561   6.507   8.153  0.0190 -0.0079 -0.2472
  142OSM   H13S15573   0.650   6.441   8.157 -0.4217 -0.8782 -2.7601
  142OSM   H13T15574   0.470   6.449   8.127 -2.2023  2.2067  2.0644
  142OSM   C14S15575   0.543   6.548   8.298 -0.0594 -0.2025  1.2685
  142OSM   H14S15576   0.440   6.589   8.307 -0.6798 -1.2040 -0.6725
  142OSM   H14T15577   0.622   6.618   8.333  0.1789  1.1894 -1.6932
  142OSM   C15S15578   0.557   6.423   8.395  0.3735 -0.6892  0.1841
  142OSM   H15S15579   0.659   6.382   8.387  0.6443 -0.3371  1.5226
  142OSM   H15T15580   0.483   6.347   8.362  0.9257 -1.3450  0.4306
  142OSM   C16S15581   0.540   6.469   8.546 -0.4763  0.7216 -0.6600
  142OSM   H16S15582   0.452   6.536   8.536 -3.2079 -2.6198 -1.2390
  142OSM   H16T15583   0.632   6.521   8.579 -1.2466  1.2061  0.8596
  142OSM   C17S15584   0.509   6.341   8.628  0.0186 -0.3228  0.1349
  142OSM   H17S15585   0.580   6.261   8.596  0.7881  0.9708 -1.5682
  142OSM   H17T15586   0.409   6.297   8.611  0.0468 -0.3615  0.0669
  142OSM   C18S15587   0.524   6.378   8.770 -0.0348 -0.1733 -0.0038
  142OSM   H18S15588   0.448   6.445   8.816 -0.5349 -1.3146  0.8683
  142OSM   H18T15589   0.627   6.417   8.785  0.3662 -0.4677 -1.8420
  142OSM   H18U15590   0.510   6.282   8.824 -3.7030  0.8349  1.1412
  142OSM    C1F15591   0.725   6.106   7.046  0.2366 -0.1595  0.1000
  142OSM     OF15592   0.738   6.192   6.963 -0.7711  0.2250 -0.5930
  142OSM    C2F15593   0.840   6.025   7.094 -0.3890 -0.2527  0.1214
  142OSM    H2F15594   0.885   5.991   6.998 -0.9750 -1.5229  0.2715
  142OSM    H2G15595   0.810   5.943   7.163  0.9491  0.6740  1.8768
  142OSM    C3F15596   0.950   6.113   7.154  0.5121 -0.5200  0.1272
  142OSM    H3F15597   0.985   6.196   7.089  1.2911  0.4297  1.6814
  142OSM    H3G15598   1.035   6.042   7.170 -0.6452 -1.6862  1.3980
  142OSM    C4F15599   0.929   6.191   7.292  0.8263  0.8410 -0.7651
  142OSM    H4F15600   0.851   6.270   7.284  0.3956  0.4493 -0.4741
  142OSM    H4G15601   1.023   6.225   7.341  0.6238 -1.2238  1.2287
  142OSM    C5F15602   0.886   6.084   7.398  0.0884 -0.2363  0.0678
  142OSM    H5F15603   0.973   6.018   7.418  0.5623  0.2122 -0.4839
  142OSM    H5G15604   0.794   6.038   7.357  1.2748  0.2999 -3.5555
  142OSM    C6F15605   0.845   6.146   7.534  0.7183 -0.7397  0.8557
  142OSM    H6F15606   0.772   6.225   7.508  0.6836 -0.6624  1.1795
  142OSM    H6G15607   0.937   6.193   7.576  1.1364  0.4874 -1.2985
  142OSM    C7F15608   0.789   6.054   7.644  0.2183 -0.3815 -0.2426
  142OSM    H7F15609   0.707   5.989   7.604 -1.3925  1.3018  0.2113
  142OSM    H7G15610   0.756   6.127   7.720  2.8953  1.8721 -1.0979
  142OSM    C8F15611   0.899   5.970   7.710 -0.0070 -0.6028 -0.3017
  142OSM    H8F15612   0.959   5.908   7.641  0.0976 -3.6738  2.3452
  142OSM    H8G15613   0.856   5.905   7.789 -0.9259  1.7011  1.2120
  142OSM    C9F15614   1.005   6.056   7.777 -0.6137 -0.3098  0.2500
  142OSM    H9F15615   1.041   6.131   7.705 -0.4688 -2.5669 -2.1816
  142OSM   C10F15616   1.059   6.047   7.897  0.1919  0.0654 -0.2798
  142OSM   H10F15617   1.155   6.095   7.922  1.8803 -3.2478  0.1824
  142OSM   C11F15618   1.021   5.942   8.006 -0.2245  0.8520  0.2772
  142OSM   H11F15619   0.949   5.865   7.969  2.9106 -2.2279  0.0657
  142OSM   H11G15620   0.977   5.992   8.095  1.3324  1.6099  0.6565
  142OSM   C12F15621   1.143   5.866   8.055 -0.8578  0.5650  0.6664
  142OSM   H12F15622   1.208   5.930   8.118 -1.2047 -1.2451  3.0027
  142OSM   H12G15623   1.201   5.836   7.965 -0.2861 -0.7557  1.4443
  142OSM   C13F15624   1.111   5.754   8.155  0.1283 -0.1549 -0.0132
  142OSM   H13F15625   1.083   5.658   8.107  1.3651 -0.4789 -0.1166
  142OSM   H13G15626   1.015   5.770   8.208  0.1168 -1.6357  0.4722
  142OSM   C14F15627   1.215   5.721   8.263 -0.1142 -0.2280  0.1396
  142OSM   H14F15628   1.235   5.820   8.311 -1.9051  1.4133 -2.2292
  142OSM   H14G15629   1.313   5.689   8.222 -0.0632 -0.9707  0.8312
  142OSM   C15F15630   1.170   5.618   8.371 -0.0964  0.2419  0.8748
  142OSM   H15F15631   1.250   5.615   8.448  2.9645 -2.9108 -2.0451
  142OSM   H15G15632   1.187   5.520   8.321  1.8639  0.8189  0.3018
  142OSM   C16F15633   1.036   5.641   8.435  0.3053 -0.4515 -0.7919
  142OSM   H16F15634   0.954   5.624   8.362 -1.0585 -1.1427  0.8190
  142OSM   H16G15635   1.026   5.744   8.477 -1.2083 -0.4116 -1.2084
  142OSM   C17F15636   1.011   5.538   8.557 -0.3768 -0.9298 -0.6321
  142OSM   H17F15637   0.925   5.567   8.622  1.1917 -0.6653  1.4195
  142OSM   H17G15638   1.094   5.555   8.628 -2.8941 -0.0577  2.3449
  142OSM   C18F15639   1.013   5.395   8.497 -0.4724  0.6154 -0.4656
  142OSM   H18F15640   1.002   5.323   8.581  1.1076 -0.9135 -1.4996
  142OSM   H18G15641   1.115   5.371   8.458 -0.5639 -0.1675 -0.2244
  142OSM   H18H15642   0.939   5.381   8.416 -0.7823 -4.1243  0.3496
  143OSM      N15643   4.297   2.560   5.710 -0.0547  0.4270 -0.3676
  143OSM    C1515644   4.160   2.503   5.715  0.1984 -0.7584  0.0915
  143OSM   H15A15645   4.098   2.548   5.792  1.1143 -1.0603  1.0159
  143OSM   H15B15646   4.175   2.402   5.750 -1.7887 -0.8281  0.9093
  143OSM   H15C15647   4.102   2.499   5.624 -1.2445 -3.4531  1.0140
  143OSM    C1415648   4.383   2.484   5.615  0.3931 -0.1759  0.0650
  143OSM   H14A15649   4.473   2.539   5.595  1.0807 -1.6530 -1.1212
  143OSM   H14B15650   4.332   2.460   5.523  0.2229 -1.0130  0.3647
  143OSM   H14C15651   4.408   2.387   5.655 -0.1865 -0.5319 -0.4144
  143OSM    C1315652   4.296   2.705   5.664 -0.1837 -0.1568  0.4272
  143OSM   H13A15653   4.270   2.715   5.560  0.7227  0.9736  0.2813
  143OSM   H13B15654   4.390   2.756   5.680  0.2451 -0.5689 -0.7240
  143OSM   H13C15655   4.228   2.761   5.726 -1.0756  1.8681 -2.1995
  143OSM    C1215656   4.364   2.553   5.841  0.1418 -0.0581 -0.3652
  143OSM   H12A15657   4.464   2.590   5.821 -0.2502 -0.7776 -4.5592
  143OSM   H12B15658   4.370   2.451   5.876 -0.8639 -0.5589 -1.6068
  143OSM    C1115659   4.309   2.631   5.962 -0.1838  0.2827 -0.5622
  143OSM   H11A15660   4.384   2.606   6.041  1.7935  2.1813 -1.6881
  143OSM   H11B15661   4.214   2.600   6.009  0.1085 -2.3808 -1.5813
  143OSM      P15662   4.415   2.866   5.966 -0.2944 -0.2366  0.1144
  143OSM    O1315663   4.538   2.797   5.923  0.6541 -0.2344 -0.3061
  143OSM    O1415664   4.393   2.992   5.899  0.8677  0.1066 -0.2736
  143OSM    O1115665   4.417   2.890   6.117 -0.0247  0.2354 -0.3605
  143OSM    O1215666   4.297   2.774   5.938 -0.1525 -0.2431 -0.0911
  143OSM    C1S15667   4.359   2.819   6.223 -0.1076  0.3523  0.4469
  143OSM    H1S15668   4.422   2.729   6.238 -1.4326 -0.7144 -0.1418
  143OSM    H1T15669   4.262   2.772   6.196  0.6585 -0.6293 -0.7336
  143OSM     NF15670   4.303   2.829   6.467 -0.1887 -0.1225 -0.3952
  143OSM    HNF15671   4.211   2.843   6.503 -0.7879 -1.1799 -1.4547
  143OSM    C2S15672   4.344   2.903   6.348 -0.0736  0.1060  0.0357
  143OSM    H2S15673   4.442   2.947   6.375 -0.1993  1.3237 -1.3363
  143OSM    C3S15674   4.268   3.034   6.315 -0.3164 -0.0568  0.0914
  143OSM    H3S15675   4.164   3.013   6.284 -0.5976  3.6921 -1.9268
  143OSM     O315676   4.317   3.116   6.211  0.5811 -0.2015  0.7057
  143OSM    HO315677   4.348   3.051   6.148 -3.0595  0.3235 -1.9778
  143OSM    C4S15678   4.254   3.116   6.443  0.0562 -0.1097  0.0921
  143OSM    H4S15679   4.155   3.095   6.484 -0.8647  0.3227 -1.7677
  143OSM    C5S15680   4.348   3.201   6.497 -0.7094 -0.4007 -0.5201
  143OSM    H5S15681   4.444   3.223   6.449 -0.6823  0.2846 -0.1658
  143OSM    C6S15682   4.326   3.268   6.631  0.2868 -0.2015 -0.5989
  143OSM    H6S15683   4.225   3.314   6.639  1.2520  2.2829 -1.3987
  143OSM    H6T15684   4.391   3.358   6.632 -0.1236  0.1000 -0.5442
  143OSM    C7S15685   4.339   3.177   6.757  0.1623 -0.2699  0.3581
  143OSM    H7S15686   4.442   3.137   6.754  0.7272  1.1707 -1.3751
  143OSM    H7T15687   4.262   3.097   6.765  1.9002 -1.9611  0.9963
  143OSM    C8S15688   4.335   3.259   6.886 -0.7509  0.1734  0.4783
  143OSM    H8S15689   4.229   3.285   6.906 -0.1314  1.7226  1.9736
  143OSM    H8T15690   4.392   3.354   6.873  0.7759 -0.7963 -0.2143
  143OSM    C9S15691   4.393   3.188   7.004 -0.2746  0.2411  0.5203
  143OSM    H9S15692   4.502   3.184   6.987 -0.4416 -1.7162 -0.3661
  143OSM    H9T15693   4.349   3.088   7.029  0.6735 -0.5785 -0.9520
  143OSM   C10S15694   4.364   3.271   7.138  0.0410 -0.0873 -0.1804
  143OSM   H10S15695   4.255   3.252   7.147  0.1396 -0.8017 -0.4342
  143OSM   H10T15696   4.384   3.379   7.120  0.9168  0.2239  2.2376
  143OSM   C11S15697   4.456   3.231   7.254 -0.1988  0.2254 -0.0053
  143OSM   H11S15698   4.558   3.228   7.209 -0.0594  0.1529  0.3133
  143OSM   H11T15699   4.423   3.130   7.285  0.3417 -0.8843 -2.7205
  143OSM   C12S15700   4.455   3.336   7.369  0.3441 -0.3119  0.6833
  143OSM   H12S15701   4.501   3.433   7.341  0.3066 -0.3507  0.4820
  143OSM   H12T15702   4.504   3.292   7.459 -1.5553 -1.2519  1.3158
  143OSM   C13S15703   4.316   3.369   7.416  0.3225  0.0626 -0.4510
  143OSM   H13S15704   4.260   3.273   7.419 -0.3594  0.4754  0.5653
  143OSM   H13T15705   4.274   3.431   7.334 -0.7900 -1.2922 -0.9376
  143OSM   C14S15706   4.311   3.450   7.545 -0.0252  0.2731  0.1714
  143OSM   H14S15707   4.225   3.520   7.551 -0.6797 -0.5328  0.4818
  143OSM   H14T15708   4.396   3.521   7.549 -1.2009  1.8477 -1.4234
  143OSM   C15S15709   4.300   3.366   7.672 -0.3174 -0.7337  0.4942
  143OSM   H15S15710   4.395   3.311   7.689 -0.6632 -0.9482  1.8791
  143OSM   H15T15711   4.226   3.287   7.647  0.0565 -1.8108  2.5437
  143OSM   C16S15712   4.281   3.454   7.804  0.2029 -0.3495  0.3199
  143OSM   H16S15713   4.288   3.380   7.887 -0.0972  0.9021  1.4937
  143OSM   H16T15714   4.184   3.508   7.801  0.1743  0.2516  4.7837
  143OSM   C17S15715   4.398   3.552   7.830 -0.4632 -0.0051  0.2212
  143OSM   H17S15716   4.390   3.642   7.767  1.2701  0.3794  0.5216
  143OSM   H17T15717   4.492   3.503   7.799 -1.5324 -2.3830  0.4615
  143OSM   C18S15718   4.407   3.570   7.982  0.7858  0.3647  0.4639
  143OSM   H18S15719   4.307   3.613   8.006  1.0815  2.6409 -1.9324
  143OSM   H18T15720   4.485   3.643   8.012 -0.3373  1.5666  0.5572
  143OSM   H18U15721   4.425   3.477   8.039 -0.2449 -0.5934 -0.7074
  143OSM    C1F15722   4.366   2.730   6.533  0.1306  0.0282  0.4486
  143OSM     OF15723   4.472   2.696   6.482 -0.3951 -0.4389 -0.0353
  143OSM    C2F15724   4.298   2.670   6.651 -0.0971 -0.5095 -0.0328
  143OSM    H2F15725   4.276   2.567   6.615  1.4807 -0.2659 -1.7883
  143OSM    H2G15726   4.203   2.728   6.656  0.8977  1.2871 -1.0591
  143OSM    C3F15727   4.387   2.670   6.780  0.0889  0.2183 -0.3074
  143OSM    H3F15728   4.477   2.609   6.758  0.4776  1.2044 -1.5728
  143OSM    H3G15729   4.335   2.622   6.865 -1.1454  2.5838  0.3699
  143OSM    C4F15730   4.444   2.805   6.833 -0.3608  0.0300 -0.5663
  143OSM    H4F15731   4.365   2.880   6.816 -0.2223  0.0376 -1.1762
  143OSM    H4G15732   4.530   2.834   6.768 -1.9405  1.3340 -2.1574
  143OSM    C5F15733   4.500   2.788   6.973 -0.4537  0.1204 -0.5258
  143OSM    H5F15734   4.437   2.741   7.052 -0.9382 -1.5990 -1.8834
  143OSM    H5G15735   4.524   2.889   7.015 -0.2097 -0.4042  0.6342
  143OSM    C6F15736   4.629   2.712   6.987 -0.0814 -0.0284  0.5038
  143OSM    H6F15737   4.721   2.771   6.964  0.6313 -1.4046 -0.3413
  143OSM    H6G15738   4.630   2.637   6.904  0.9959  0.5325 -0.0139
  143OSM    C7F15739   4.641   2.642   7.121  0.5974  0.1935 -0.2258
  143OSM    H7F15740   4.552   2.576   7.130  1.1785 -0.6504 -0.5716
  143OSM    H7G15741   4.616   2.733   7.180  0.0022 -0.6308  0.8326
  143OSM    C8F15742   4.773   2.573   7.152  0.0371 -0.2377  0.1548
  143OSM    H8F15743   4.808   2.595   7.255 -0.8258 -0.1911  0.4484
  143OSM    H8G15744   4.860   2.621   7.102  0.4078  0.1566  1.1653
  143OSM    C9F15745   4.764   2.425   7.132 -0.2765  0.4453  0.8109
  143OSM    H9F15746   4.731   2.392   7.032  1.5135 -0.3889  0.4549
  143OSM   C10F15747   4.789   2.334   7.216 -1.2610  0.8522 -0.2381
  143OSM   H10F15748   4.759   2.234   7.181 -0.1083  0.8737 -1.3522
  143OSM   C11F15749   4.834   2.335   7.358 -0.2969  0.3218  0.1682
  143OSM   H11F15750   4.759   2.393   7.415  0.6895  1.4103  0.4029
  143OSM   H11G15751   4.924   2.400   7.355 -2.1854  3.0897 -0.2654
  143OSM   C12F15752   4.852   2.203   7.430 -0.3385  0.7182 -0.0358
  143OSM   H12F15753   4.882   2.206   7.537 -1.4525 -0.8374  0.3709
  143OSM   H12G15754   4.929   2.149   7.371 -0.0555  2.5032 -1.3781
  143OSM   C13F15755   4.736   2.096   7.427 -0.5733 -0.0010  0.2554
  143OSM   H13F15756   4.772   2.003   7.476  2.3459  1.7209  1.6304
  143OSM   H13G15757   4.712   2.076   7.321 -0.0016 -0.7641  0.2620
  143OSM   C14F15758   4.612   2.137   7.497 -0.2702 -0.1720 -0.7305
  143OSM   H14F15759   4.551   2.044   7.491  0.7971 -0.8895 -0.6523
  143OSM   H14G15760   4.570   2.219   7.436  0.6713  0.8225 -0.0703
  143OSM   C15F15761   4.636   2.185   7.645  0.5375  0.2547  0.6343
  143OSM   H15F15762   4.534   2.210   7.681 -0.2764  0.0974 -1.4614
  143OSM   H15G15763   4.702   2.275   7.644  0.2439  0.4658 -0.3147
  143OSM   C16F15764   4.689   2.084   7.749 -0.5669  0.4760  0.6346
  143OSM   H16F15765   4.717   2.121   7.849  0.1556  0.8623  0.2953
  143OSM   H16G15766   4.788   2.047   7.717  0.1734  2.4454  0.5024
  143OSM   C17F15767   4.585   1.971   7.763 -0.5070  0.1309  0.4660
  143OSM   H17F15768   4.586   1.911   7.669 -1.2613  2.3030 -0.9882
  143OSM   H17G15769   4.483   2.013   7.778 -0.6527  0.3279 -0.9172
  143OSM   C18F15770   4.615   1.881   7.876 -0.0109 -0.0080  0.3820
  143OSM   H18F15771   4.538   1.802   7.871  0.7544 -0.7135 -1.1889
  143OSM   H18G15772   4.592   1.936   7.970 -0.7932 -0.0615  0.2253
  143OSM   H18H15773   4.715   1.832   7.872  0.3369  0.6339  1.0295
  144OSM      N15774   2.844   1.742   5.884  0.3563 -0.2091  0.2283
  144OSM    C1515775   2.702   1.680   5.904 -0.0675  0.1325  0.5052
  144OSM   H15A15776   2.717   1.575   5.919  0.8811  0.2126  0.1584
  144OSM   H15B15777   2.652   1.699   5.811  1.6284  0.2692 -0.4153
  144OSM   H15C15778   2.653   1.721   5.992 -3.7383  0.5444 -1.5187
  144OSM    C1415779   2.934   1.717   5.996  0.3866  0.8800 -0.3764
  144OSM   H14A15780   3.037   1.725   5.965  0.6825 -1.5396 -0.1575
  144OSM   H14B15781   2.917   1.616   6.029 -1.7791  0.4294 -2.5850
  144OSM   H14C15782   2.916   1.778   6.084 -1.7227 -0.5985  0.2990
  144OSM    C1315783   2.909   1.674   5.763  0.8133  0.6103  0.2198
  144OSM   H13A15784   3.013   1.700   5.749  1.4541 -1.1814  1.2931
  144OSM   H13B15785   2.854   1.697   5.672 -1.0290 -1.6936  0.6538
  144OSM   H13C15786   2.913   1.569   5.789 -0.6541  0.7495  1.1197
  144OSM    C1215787   2.830   1.893   5.858 -0.7711  0.2497  0.1180
  144OSM   H12A15788   2.746   1.919   5.922 -0.7423  0.5156  0.0499
  144OSM   H12B15789   2.805   1.916   5.756 -0.0650  2.1001  0.3191
  144OSM    C1115790   2.954   1.986   5.879  0.3635  0.7025  0.8584
  144OSM   H11A15791   2.985   1.971   5.984 -1.2395  0.1733  1.2820
  144OSM   H11B15792   2.924   2.092   5.869  0.0340  0.6984  1.7793
  144OSM      P15793   3.202   1.895   5.792  0.0352 -0.1167 -0.1567
  144OSM    O1315794   3.227   1.777   5.706  0.1948  0.1851  0.0635
  144OSM    O1415795   3.288   2.011   5.771 -0.5035  0.0858  0.0297
  144OSM    O1115796   3.209   1.854   5.943  0.3233 -0.0427 -0.6427
  144OSM    O1215797   3.052   1.950   5.784  0.0128  0.4779 -0.1166
  144OSM    C1S15798   3.248   1.946   6.046 -0.5179 -0.0901 -0.7741
  144OSM    H1S15799   3.179   2.033   6.056 -0.1182  0.0377  1.7189
  144OSM    H1T15800   3.349   1.989   6.029 -0.5089 -0.2724 -1.1742
  144OSM     NF15801   3.257   1.982   6.294 -0.2854 -0.2321  0.6618
  144OSM    HNF15802   3.346   1.974   6.338 -0.0572 -1.3025  0.0440
  144OSM    C2S15803   3.244   1.886   6.189  0.2507  0.6475  0.2882
  144OSM    H2S15804   3.139   1.852   6.197 -0.9746  4.1831  0.8596
  144OSM    C3S15805   3.336   1.763   6.198 -0.5338  0.6516 -0.5776
  144OSM    H3S15806   3.436   1.812   6.188  0.9018 -1.3931  2.2559
  144OSM     O315807   3.324   1.672   6.092 -0.0053  0.6589  0.4204
  144OSM    HO315808   3.292   1.728   6.021 -0.1587 -1.4631 -1.2940
  144OSM    C4S15809   3.328   1.705   6.333 -0.3689  0.7289  0.1535
  144OSM    H4S15810   3.384   1.754   6.415 -1.1127  1.0718  0.4657
  144OSM    C5S15811   3.256   1.594   6.363 -0.3072 -0.5410 -0.1081
  144OSM    H5S15812   3.199   1.540   6.286  0.3964 -2.2404  0.5206
  144OSM    C6S15813   3.231   1.531   6.497 -0.1888  0.1683 -0.1822
  144OSM    H6S15814   3.257   1.424   6.487  0.4314  0.2867  0.1146
  144OSM    H6T15815   3.123   1.540   6.524 -0.5916 -0.5230 -1.4821
  144OSM    C7S15816   3.323   1.579   6.613 -0.1867  0.8970  0.0667
  144OSM    H7S15817   3.341   1.688   6.620  0.6808  0.7696 -0.0693
  144OSM    H7T15818   3.421   1.546   6.573 -1.0295 -1.4238 -0.2604
  144OSM    C8S15819   3.299   1.514   6.747  0.4033 -0.5909 -0.1183
  144OSM    H8S15820   3.325   1.406   6.748 -1.6990 -1.1284  1.0256
  144OSM    H8T15821   3.193   1.519   6.781  0.6597 -0.8095  0.7487
  144OSM    C9S15822   3.390   1.583   6.858  0.3861 -0.1702 -0.4174
  144OSM    H9S15823   3.355   1.687   6.874  0.2475 -0.4740  1.4833
  144OSM    H9T15824   3.494   1.594   6.820  0.6342  0.0297  0.2943
  144OSM   C10S15825   3.392   1.514   6.989 -0.2359  0.1905 -0.0301
  144OSM   H10S15826   3.398   1.403   6.988  2.0599  0.2530  0.7753
  144OSM   H10T15827   3.295   1.540   7.037 -0.3221 -0.4336  0.1359
  144OSM   C11S15828   3.500   1.573   7.076  0.3592  0.0388 -0.3950
  144OSM   H11S15829   3.510   1.682   7.057 -1.3710  0.8274  2.6607
  144OSM   H11T15830   3.588   1.519   7.035 -0.8047 -2.1043 -0.2176
  144OSM   C12S15831   3.479   1.550   7.223  0.3805 -0.0131 -0.4306
  144OSM   H12S15832   3.451   1.443   7.237  0.1198  0.1529  0.4182
  144OSM   H12T15833   3.399   1.611   7.270  1.2642  0.0115  1.1547
  144OSM   C13S15834   3.603   1.584   7.309  0.1937 -0.2211  0.4924
  144OSM   H13S15835   3.620   1.690   7.280 -1.4548  0.6547  2.4432
  144OSM   H13T15836   3.692   1.526   7.275  1.2723  2.4623 -1.6587
  144OSM   C14S15837   3.571   1.561   7.456  1.2279  0.1355  0.3421
  144OSM   H14S15838   3.549   1.453   7.469 -0.6583  0.2673 -1.2251
  144OSM   H14T15839   3.480   1.618   7.486 -0.8606 -2.1371 -1.1686
  144OSM   C15S15840   3.681   1.605   7.550 -0.3339 -0.7294  0.7998
  144OSM   H15S15841   3.722   1.706   7.531 -1.3885 -0.1919  1.3221
  144OSM   H15T15842   3.774   1.544   7.541 -2.2820 -3.6461 -1.8888
  144OSM   C16S15843   3.634   1.597   7.694 -0.2096 -0.3540 -0.2847
  144OSM   H16S15844   3.592   1.497   7.717 -1.3114  0.2781  0.5145
  144OSM   H16T15845   3.561   1.681   7.700  1.1059  0.8078  0.0223
  144OSM   C17S15846   3.756   1.628   7.792  0.4451  0.2302  0.7707
  144OSM   H17S15847   3.829   1.547   7.770 -0.7240 -1.4452  2.6908
  144OSM   H17T15848   3.733   1.616   7.900 -1.2697  0.0611  0.4205
  144OSM   C18S15849   3.826   1.764   7.784 -0.0357  0.5513 -0.1243
  144OSM   H18S15850   3.755   1.849   7.778 -0.1970  0.3996 -0.3679
  144OSM   H18T15851   3.898   1.772   7.700  1.3173  0.4338  0.9716
  144OSM   H18U15852   3.884   1.785   7.877  1.8955  1.2071 -1.4091
  144OSM    C1F15853   3.175   2.080   6.321  0.1043 -0.2314  0.3023
  144OSM     OF15854   3.070   2.092   6.258  0.1621 -0.1128 -1.0370
  144OSM    C2F15855   3.207   2.179   6.432 -0.4650  0.3751 -0.3632
  144OSM    H2F15856   3.284   2.254   6.401 -1.0796  2.1473  2.0800
  144OSM    H2G15857   3.245   2.123   6.520 -1.7886 -0.8338 -0.5320
  144OSM    C3F15858   3.095   2.258   6.484 -0.0699  0.1270  0.4632
  144OSM    H3F15859   3.020   2.182   6.517  0.2629 -1.1655 -1.5936
  144OSM    H3G15860   3.045   2.320   6.406 -1.2828  0.7118  1.6608
  144OSM    C4F15861   3.126   2.361   6.591  0.0877 -0.1219 -0.4962
  144OSM    H4F15862   3.044   2.428   6.625  0.5845 -0.4988  1.5755
  144OSM    H4G15863   3.210   2.421   6.548 -2.1589  3.1726 -0.6392
  144OSM    C5F15864   3.171   2.301   6.722  0.0440  0.0553 -0.8502
  144OSM    H5F15865   3.260   2.237   6.705 -0.3054 -0.4332 -0.8593
  144OSM    H5G15866   3.083   2.237   6.743 -1.3093  1.0052 -3.1891
  144OSM    C6F15867   3.213   2.406   6.827  0.4436  0.5420 -0.0519
  144OSM    H6F15868   3.259   2.494   6.778  0.8199  1.1835  1.3999
  144OSM    H6G15869   3.297   2.366   6.888 -0.7207 -1.8990  0.0436
  144OSM    C7F15870   3.096   2.448   6.922 -0.0757  0.3301  0.2528
  144OSM    H7F15871   3.040   2.353   6.935  0.5630  0.0171  0.7830
  144OSM    H7G15872   3.033   2.516   6.860  0.9842 -1.1318 -2.6300
  144OSM    C8F15873   3.150   2.508   7.051  0.4643 -0.4402 -0.0186
  144OSM    H8F15874   3.197   2.606   7.027  0.0009  0.1517  1.3943
  144OSM    H8G15875   3.232   2.443   7.089 -0.1195 -1.2357 -0.1003
  144OSM    C9F15876   3.046   2.533   7.163 -0.1790  0.3207  0.1499
  144OSM    H9F15877   2.948   2.549   7.115 -0.1011  1.6354  0.4053
  144OSM   C10F15878   3.065   2.530   7.297 -0.3854  0.7527  0.7142
  144OSM   H10F15879   2.981   2.556   7.364 -0.3435 -0.7375  1.3856
  144OSM   C11F15880   3.205   2.530   7.348 -0.7813 -0.2865 -0.5903
  144OSM   H11F15881   3.240   2.634   7.367  2.0235 -1.1527 -0.4439
  144OSM   H11G15882   3.276   2.490   7.273 -1.3414  0.1391 -1.3580
  144OSM   C12F15883   3.216   2.442   7.476 -0.4951 -0.6700  0.1566
  144OSM   H12F15884   3.325   2.437   7.498 -0.4180  2.1309  0.7415
  144OSM   H12G15885   3.169   2.341   7.467 -1.1067 -0.4315  0.6149
  144OSM   C13F15886   3.139   2.512   7.592  0.5861 -0.7979  0.4354
  144OSM   H13F15887   3.029   2.519   7.574  0.7261 -0.1389 -0.1775
  144OSM   H13G15888   3.172   2.617   7.603  0.1841 -0.8090  2.0030
  144OSM   C14F15889   3.160   2.447   7.731  0.2673 -0.4218 -0.0019
  144OSM   H14F15890   3.271   2.447   7.745  0.4071  0.8966 -0.9441
  144OSM   H14G15891   3.129   2.341   7.721 -0.6428  0.0065 -2.0736
  144OSM   C15F15892   3.081   2.519   7.851 -0.3106 -0.1091  0.1952
  144OSM   H15F15893   2.973   2.502   7.835 -0.8920  2.3651  1.0267
  144OSM   H15G15894   3.090   2.630   7.842 -1.9023 -0.0706 -1.5343
  144OSM   C16F15895   3.115   2.477   7.994 -0.5071 -0.2651  0.2702
  144OSM   H16F15896   3.222   2.492   8.018 -0.2421  2.7595 -2.1293
  144OSM   H16G15897   3.098   2.368   7.992  1.0498 -0.5603 -2.6909
  144OSM   C17F15898   3.030   2.545   8.103  0.0207  0.1868  0.1931
  144OSM   H17F15899   2.923   2.523   8.085  0.2815 -2.0767  0.9970
  144OSM   H17G15900   3.051   2.653   8.088 -1.0602  0.4725  0.6504
  144OSM   C18F15901   3.069   2.498   8.238 -0.8416 -0.6666 -0.5777
  144OSM   H18F15902   3.003   2.548   8.312 -1.3125  0.9770 -2.0647
  144OSM   H18G15903   3.173   2.511   8.275 -1.2139 -0.0110  0.2946
  144OSM   H18H15904   3.055   2.388   8.237  0.3365 -0.8389  0.1888
  145SAPE     N15905   3.766   1.505  10.419  0.9026 -0.4467  0.2821
  145SAPE   HN115906   3.785   1.458  10.328  1.1832  0.1732  0.0104
  145SAPE   HN215907   3.709   1.589  10.400  1.1459 -0.8173 -2.5056
  145SAPE   HN315908   3.858   1.536  10.456  0.7315  1.6189 -0.8726
  145SAPE   C1215909   3.703   1.410  10.513 -0.3278  0.5403  0.3102
  145SAPE  H12A15910   3.601   1.388  10.477 -0.1978  0.6304 -0.1132
  145SAPE  H12B15911   3.706   1.463  10.611 -3.8096 -0.5925  1.1497
  145SAPE   C1115912   3.780   1.276  10.528  0.5486 -0.8712  0.0610
  145SAPE  H11A15913   3.722   1.215  10.600  1.1905  0.6745  1.9665
  145SAPE  H11B15914   3.879   1.294  10.575 -0.0705  3.4351  0.0856
  145SAPE     P15915   3.768   1.051  10.369 -0.4603  0.1115  0.0469
  145SAPE   O1315916   3.828   0.978  10.488  0.3231 -0.2704  0.4396
  145SAPE   O1415917   3.627   1.021  10.341 -0.0623 -0.1497  0.5117
  145SAPE   O1215918   3.789   1.210  10.396  0.4652 -0.0716  0.2557
  145SAPE   O1115919   3.858   1.028  10.241  0.7916  0.3057  0.3194
  145SAPE    C115920   3.824   1.091  10.116 -0.6008 -1.1160 -0.2023
  145SAPE    HA15921   3.741   1.164  10.114 -0.5518 -1.0480  0.1768
  145SAPE    HB15922   3.916   1.145  10.084 -1.2461  1.4541  1.9296
  145SAPE    C215923   3.786   0.990  10.005 -0.2690  0.8325 -0.2486
  145SAPE    HS15924   3.803   1.043   9.909  0.0832  1.9197  0.3930
  145SAPE   O2115925   3.656   0.928  10.011  0.0654  0.1757 -0.2912
  145SAPE   C2115926   3.588   0.941   9.898  0.1403 -0.1614 -0.4447
  145SAPE   O2215927   3.610   1.016   9.807  0.0814 -0.5678  0.0317
  145SAPE   C2215928   3.464   0.847   9.903 -0.6026  0.0559 -0.0870
  145SAPE   H2R15929   3.467   0.782   9.993 -1.0311  0.5587  0.2992
  145SAPE   H2S15930   3.371   0.908   9.896 -0.2395  0.6035 -0.2128
  145SAPE    C315931   3.879   0.870  10.003 -0.0395  0.3753 -0.1812
  145SAPE    HX15932   3.853   0.808  10.092  1.7740 -3.6856 -2.2366
  145SAPE    HY15933   3.986   0.899  10.006  0.4072 -0.6955 -3.0540
  145SAPE   O3115934   3.858   0.783   9.891 -0.1748  0.2612 -0.2717
  145SAPE   C3115935   3.937   0.793   9.781  0.3957 -0.0555  0.0734
  145SAPE   O3215936   4.036   0.863   9.774 -0.0656 -0.1951 -0.1240
  145SAPE   C3215937   3.887   0.705   9.660 -0.5305  0.3869 -0.4887
  145SAPE   H2X15938   3.793   0.651   9.687  0.7942 -0.9983  1.7011
  145SAPE   H2Y15939   3.973   0.636   9.644  0.7548  1.8637 -0.2256
  145SAPE   C2315940   3.459   0.752   9.783  0.4403 -0.0808 -0.7840
  145SAPE   H3R15941   3.409   0.658   9.815  1.4007 -0.8176 -1.3993
  145SAPE   H3S15942   3.566   0.728   9.762  0.8562  0.6862  0.3525
  145SAPE   C2415943   3.390   0.812   9.661 -0.2119 -0.1993  0.5680
  145SAPE   H4R15944   3.413   0.753   9.570  1.8612  2.1749 -0.5469
  145SAPE   H4S15945   3.435   0.910   9.637 -0.0040 -0.4421 -0.0346
  145SAPE   C2515946   3.237   0.823   9.669  0.2243 -0.2513 -0.1399
  145SAPE   H5R15947   3.205   0.786   9.767  0.4378 -1.2210 -0.4222
  145SAPE   C2615948   3.155   0.898   9.591 -0.0980  0.1840  0.2468
  145SAPE   H6R15949   3.047   0.899   9.613 -0.4153 -0.6502 -1.1172
  145SAPE   C2715950   3.198   0.981   9.467 -0.5998  0.2397 -0.1264
  145SAPE   H7R15951   3.163   0.928   9.376 -1.0946  0.0392  0.1760
  145SAPE   H7S15952   3.309   0.984   9.467 -0.5876 -0.1493  0.0916
  145SAPE   C2815953   3.139   1.116   9.470  0.1028 -0.7617  0.0756
  145SAPE   H8R15954   3.214   1.183   9.515  0.8218 -1.0116 -0.7178
  145SAPE   C2915955   3.019   1.165   9.431  0.8590  0.0795 -0.3932
  145SAPE   H9R15956   3.008   1.274   9.440  1.9177  0.2100 -0.5946
  145SAPE  C21015957   2.897   1.087   9.372 -0.2385  0.1626 -0.0598
  145SAPE  H10R15958   2.815   1.081   9.446 -0.7886 -0.7762 -0.7176
  145SAPE  H10S15959   2.937   0.987   9.345  0.3212  0.0242  1.2378
  145SAPE  C21115960   2.849   1.147   9.241 -0.4521  0.1398  0.4314
  145SAPE  H11R15961   2.751   1.196   9.252 -1.2857 -1.6714  1.5037
  145SAPE  C21215962   2.903   1.133   9.115  0.3458 -0.5298 -0.7877
  145SAPE  H12R15963   2.857   1.192   9.034  0.2021  3.4124  1.8690
  145SAPE  C21315964   3.027   1.052   9.075 -0.2182 -0.4238 -0.7515
  145SAPE  H13R15965   3.004   0.992   8.985 -2.8578  0.0959 -0.5005
  145SAPE  H13S15966   3.041   0.977   9.155 -0.9018  2.0634  1.8783
  145SAPE  C21415967   3.149   1.146   9.069  0.2047 -0.1257  0.1075
  145SAPE  H14R15968   3.141   1.237   9.129  1.2727 -0.1677  0.3386
  145SAPE  C21515969   3.273   1.112   9.030  0.3529  0.0851  0.8757
  145SAPE  H15R15970   3.361   1.177   9.019  1.2942 -1.4412 -1.8179
  145SAPE  C21615971   3.300   0.992   8.946 -0.7939 -1.5140 -0.4675
  145SAPE  H16R15972   3.210   0.932   8.922  0.5770 -3.3737 -1.1976
  145SAPE  H16S15973   3.370   0.923   8.998  0.3473 -0.8562 -1.0729
  145SAPE  C21715974   3.355   1.038   8.811 -0.4011  0.3865 -0.1799
  145SAPE  H17R15975   3.394   0.943   8.768 -1.8988 -0.2721 -0.1640
  145SAPE  H17S15976   3.442   1.107   8.812  0.2695 -0.3799 -1.7620
  145SAPE  C21815977   3.251   1.099   8.714  0.1614  0.5851 -0.4862
  145SAPE  H18R15978   3.215   1.201   8.741 -0.0226  0.3518  0.1813
  145SAPE  H18S15979   3.164   1.030   8.707  0.7568 -0.1936 -0.3449
  145SAPE  C21915980   3.297   1.109   8.563  0.4505  0.6470 -0.8865
  145SAPE  H19R15981   3.227   1.175   8.507  1.4252  3.8592  1.3958
  145SAPE  H19S15982   3.288   1.004   8.527 -1.8010  0.0187  1.2499
  145SAPE  C22015983   3.440   1.142   8.544 -0.4688  0.3280 -0.2421
  145SAPE  H20R15984   3.458   1.144   8.434 -0.5779  0.4018 -0.2579
  145SAPE  H20S15985   3.503   1.059   8.582  0.8909  0.9697 -1.0180
  145SAPE  H20T15986   3.460   1.235   8.601  2.5524 -0.5453  0.3144
  145SAPE   C3315987   3.866   0.800   9.537  0.5442 -0.3793 -0.2553
  145SAPE   H3X15988   3.863   0.746   9.440  1.1407  0.9116 -1.0199
  145SAPE   H3Y15989   3.956   0.864   9.526 -0.3261  0.9569  0.2517
  145SAPE   C3415990   3.736   0.883   9.547  0.2055 -0.5014  0.7436
  145SAPE   H4X15991   3.744   0.957   9.630  1.6888 -0.3795  0.5337
  145SAPE   H4Y15992   3.646   0.820   9.561  0.8754 -1.7914 -0.5732
  145SAPE   C3515993   3.710   0.964   9.417  0.0676 -0.0003  0.3902
  145SAPE   H5X15994   3.789   1.032   9.379  0.9313 -0.7931  0.7313
  145SAPE   H5Y15995   3.621   1.025   9.445 -0.8336 -1.3482  0.5613
  145SAPE   C3615996   3.671   0.875   9.293  0.0136 -0.0427  0.4934
  145SAPE   H6X15997   3.584   0.821   9.337 -1.2814  1.1292 -0.5222
  145SAPE   H6Y15998   3.740   0.793   9.265 -0.3053 -0.0595 -0.2572
  145SAPE   C3715999   3.627   0.959   9.161  0.2482  0.2873  0.3080
  145SAPE   H7X16000   3.550   1.035   9.187  0.6103  0.6029  0.4796
  145SAPE   H7Y16001   3.579   0.882   9.097 -1.8623  1.8478 -0.1015
  145SAPE   C3816002   3.749   1.020   9.085 -0.0162 -0.0477 -0.0423
  145SAPE   H8X16003   3.834   0.948   9.085 -0.1420 -0.2039 -1.1205
  145SAPE   H8Y16004   3.783   1.116   9.130 -0.7559  0.8699 -1.4046
  145SAPE   C3916005   3.706   1.042   8.943  0.0031  0.0662  0.0914
  145SAPE   H9X16006   3.608   1.092   8.958 -0.5544 -0.0767 -2.5781
  145SAPE   H9Y16007   3.674   0.951   8.888 -0.9361 -1.0307  2.3335
  145SAPE  C31016008   3.809   1.129   8.867 -0.2764  0.3107  0.5040
  145SAPE  H10X16009   3.897   1.064   8.852 -1.1677 -0.9128  0.3753
  145SAPE  H10Y16010   3.845   1.206   8.939  3.4136 -1.0543  0.3160
  145SAPE  C31116011   3.765   1.169   8.729  0.1713 -0.4444  0.3699
  145SAPE  H11X16012   3.680   1.240   8.736  0.4461 -0.1242  0.5035
  145SAPE  H11Y16013   3.750   1.083   8.660  2.5326 -1.7260  1.3471
  145SAPE  C31216014   3.873   1.259   8.655  0.2159 -0.0230 -0.5955
  145SAPE  H12X16015   3.904   1.345   8.717 -0.2218 -2.1468  2.8163
  145SAPE  H12Y16016   3.814   1.297   8.568 -2.3511 -0.8320  0.6836
  145SAPE  C31316017   3.996   1.175   8.605  0.1915  0.1967  0.0728
  145SAPE  H13X16018   3.969   1.083   8.550  1.4189 -0.6129  0.7805
  145SAPE  H13Y16019   4.036   1.125   8.696 -0.3883  1.0472  0.8099
  145SAPE  C31416020   4.100   1.242   8.518 -0.3363 -0.2455 -0.6490
  145SAPE  H14X16021   4.137   1.333   8.571 -1.2373 -0.5115  0.4675
  145SAPE  H14Y16022   4.033   1.285   8.441 -1.6181 -2.3430 -0.7502
  145SAPE  C31516023   4.207   1.149   8.474 -0.5371  0.6315  0.6246
  145SAPE  H15X16024   4.271   1.213   8.410 -0.5264 -1.4977 -1.6606
  145SAPE  H15Y16025   4.167   1.067   8.410  0.9479 -0.0923  0.5928
  145SAPE  C31616026   4.291   1.074   8.582  0.1527  0.5324 -0.3622
  145SAPE  H16X16027   4.230   1.008   8.647 -1.2841  1.6199 -0.5589
  145SAPE  H16Y16028   4.328   1.156   8.648 -1.8537  1.9480 -0.8987
  145SAPE  C31716029   4.419   1.007   8.530 -0.1925 -0.2150 -0.3121
  145SAPE  H17X16030   4.498   0.984   8.605  0.1541 -3.1612 -1.4522
  145SAPE  H17Y16031   4.464   1.073   8.453  0.3857 -2.8385 -2.3581
  145SAPE  C31816032   4.390   0.871   8.466  0.2670 -0.2099  0.1580
  145SAPE  H18X16033   4.318   0.864   8.382 -0.4239  1.4996  0.5603
  145SAPE  H18Y16034   4.340   0.814   8.548 -3.2005  1.0311 -0.9016
  145SAPE  H18Z16035   4.487   0.824   8.441  0.2390 -0.8563  1.1862
  146SAPE     N16036   2.457   2.583  10.502  0.3988 -0.3218  0.0707
  146SAPE   HN116037   2.532   2.573  10.574 -1.4092  1.5596  2.3865
  146SAPE   HN216038   2.391   2.659  10.528  0.5886 -0.5304  1.2230
  146SAPE   HN316039   2.410   2.490  10.497 -1.3261  0.5225  0.1093
  146SAPE   C1216040   2.499   2.625  10.363 -0.3397  0.0760 -0.2486
  146SAPE  H12A16041   2.562   2.543  10.323  1.2590  0.3182  1.6042
  146SAPE  H12B16042   2.565   2.715  10.361 -0.6048  0.3094  0.8780
  146SAPE   C1116043   2.366   2.635  10.286 -0.3879  0.1949  0.0240
  146SAPE  H11A16044   2.315   2.536  10.293 -1.7792  0.8187 -0.7759
  146SAPE  H11B16045   2.399   2.657  10.182 -2.5020  0.3999 -0.6671
  146SAPE     P16046   2.271   2.886  10.270  0.1676  0.2511 -0.1444
  146SAPE   O1316047   2.230   2.987  10.373 -0.6695  0.0250  0.4092
  146SAPE   O1416048   2.401   2.910  10.195  0.3479  0.4959  0.0107
  146SAPE   O1216049   2.275   2.738  10.332  0.0043 -0.2709 -0.7908
  146SAPE   O1116050   2.163   2.866  10.157  0.0386  0.2876  0.2722
  146SAPE    C116051   2.092   2.983  10.117  0.3381 -0.1102 -0.6864
  146SAPE    HA16052   2.014   3.013  10.189 -0.0348 -0.1478 -1.0683
  146SAPE    HB16053   2.162   3.067  10.097  0.9423 -0.7682 -1.4232
  146SAPE    C216054   2.017   2.956   9.987  0.3749 -0.0122 -0.0160
  146SAPE    HS16055   2.076   2.877   9.935  1.6235 -0.2397  1.6855
  146SAPE   O2116056   2.004   3.074   9.914  0.4464  0.1136  0.2793
  146SAPE   C2116057   2.104   3.108   9.848 -0.3398 -0.0731 -0.8246
  146SAPE   O2216058   2.218   3.057   9.852 -0.0314 -0.1822 -0.0767
  146SAPE   C2216059   2.064   3.242   9.780  0.1516  0.0636  0.1510
  146SAPE   H2R16060   1.972   3.213   9.725  1.2324 -1.6538 -0.8490
  146SAPE   H2S16061   2.053   3.330   9.847  2.4139  1.2119 -0.8559
  146SAPE    C316062   1.877   2.892  10.006 -0.7129  0.3962  0.7034
  146SAPE    HX16063   1.807   2.971  10.041 -0.2139  1.3833 -0.4670
  146SAPE    HY16064   1.884   2.812  10.082 -2.5535  1.8130  2.4980
  146SAPE   O3116065   1.823   2.834   9.884  0.3202  0.2960 -0.4091
  146SAPE   C3116066   1.693   2.802   9.895 -0.1157  0.4700  0.1497
  146SAPE   O3216067   1.625   2.811   9.993  0.5500  0.2517 -0.2013
  146SAPE   C3216068   1.644   2.753   9.759 -0.4025 -0.0682 -0.5259
  146SAPE   H2X16069   1.649   2.643   9.744 -1.3448 -0.1327 -0.4650
  146SAPE   H2Y16070   1.707   2.801   9.682  0.4490  0.8988  0.7319
  146SAPE   C2316071   2.167   3.286   9.673  0.2020  0.1725 -1.0517
  146SAPE   H3R16072   2.192   3.203   9.604  0.5735  1.2331 -2.2271
  146SAPE   H3S16073   2.258   3.322   9.726  0.1813 -0.0258 -0.8788
  146SAPE   C2416074   2.118   3.414   9.594 -0.0817 -0.3766 -0.1151
  146SAPE   H4R16075   2.213   3.465   9.566  0.2397 -0.6940  0.3674
  146SAPE   H4S16076   2.066   3.470   9.674 -2.6297 -0.8965 -1.3312
  146SAPE   C2516077   2.025   3.383   9.488  0.7548 -0.2088 -0.2334
  146SAPE   H5R16078   1.956   3.300   9.510  0.2808  0.3573  0.4668
  146SAPE   C2616079   2.023   3.436   9.358  0.7936 -0.1903  0.2614
  146SAPE   H6R16080   1.963   3.388   9.279  0.5894  3.1315 -1.8219
  146SAPE   C2716081   2.097   3.554   9.305  0.0893  0.6123 -0.5447
  146SAPE   H7R16082   2.189   3.535   9.247  1.1335  1.0456  0.9304
  146SAPE   H7S16083   2.141   3.608   9.391  1.5999 -1.3084 -0.0346
  146SAPE   C2816084   2.013   3.647   9.224 -0.3517 -0.4486  0.7377
  146SAPE   H8R16085   1.981   3.737   9.278  1.4724  0.5901  0.1567
  146SAPE   C2916086   1.955   3.628   9.098  0.0013 -0.2030  0.7637
  146SAPE   H9R16087   1.902   3.713   9.053  2.4498  1.1738  0.2805
  146SAPE  C21016088   1.971   3.506   9.008  0.2861 -0.1230 -0.1236
  146SAPE  H10R16089   1.870   3.477   8.972  0.5922 -1.5870  0.1234
  146SAPE  H10S16090   2.012   3.419   9.063 -0.4342  0.2162  0.9984
  146SAPE  C21116091   2.061   3.537   8.898 -0.5282 -0.1650 -0.2362
  146SAPE  H11R16092   2.160   3.505   8.934 -1.9849 -0.7142  3.6915
  146SAPE  C21216093   2.027   3.593   8.776 -0.1872 -1.1882  0.6032
  146SAPE  H12R16094   2.104   3.622   8.703 -0.0833  2.6791  1.9851
  146SAPE  C21316095   1.889   3.623   8.723 -0.4297  0.4844 -0.2128
  146SAPE  H13R16096   1.816   3.614   8.806  0.7451  1.5367  0.9664
  146SAPE  H13S16097   1.860   3.537   8.659 -0.7414  0.3836  0.0597
  146SAPE  C21416098   1.893   3.758   8.655  0.6281  0.2843  0.6997
  146SAPE  H14R16099   1.913   3.844   8.720 -0.1098  0.3205  0.8890
  146SAPE  C21516100   1.854   3.781   8.523 -0.1234 -0.4019 -0.0484
  146SAPE  H15R16101   1.843   3.883   8.483  0.2328 -0.4985 -0.3994
  146SAPE  C21616102   1.802   3.683   8.421 -0.8217  0.7373 -0.4769
  146SAPE  H16R16103   1.773   3.594   8.481 -1.3940  1.9262  1.0636
  146SAPE  H16S16104   1.889   3.650   8.360 -0.9366 -1.0455  0.2607
  146SAPE  C21716105   1.691   3.739   8.320 -0.5498  0.2776  0.2411
  146SAPE  H17R16106   1.716   3.837   8.273 -3.1175  0.6109 -0.5666
  146SAPE  H17S16107   1.602   3.765   8.381 -0.9480 -0.5029  0.0042
  146SAPE  C21816108   1.645   3.620   8.228 -1.1675  0.5839  0.3403
  146SAPE  H18R16109   1.600   3.537   8.287 -1.6931  1.6368  1.4821
  146SAPE  H18S16110   1.730   3.579   8.170 -3.8681 -1.6259 -2.3914
  146SAPE  C21916111   1.528   3.627   8.124  0.0351 -0.1795 -0.3447
  146SAPE  H19R16112   1.457   3.694   8.175  0.6885 -0.9370  1.6618
  146SAPE  H19S16113   1.479   3.527   8.114  1.4951 -0.8161 -1.6581
  146SAPE  C22016114   1.568   3.689   7.987  0.4296  0.2508 -0.3695
  146SAPE  H20R16115   1.615   3.789   7.988 -0.0942  0.4960  0.1066
  146SAPE  H20S16116   1.477   3.707   7.926 -1.1169 -1.6333  1.2351
  146SAPE  H20T16117   1.641   3.621   7.939  0.6401 -0.1254  0.4658
  146SAPE   C3316118   1.495   2.781   9.737  0.2599 -0.5639 -0.1637
  146SAPE   H3X16119   1.472   2.881   9.778 -0.1592 -1.5799  2.2822
  146SAPE   H3Y16120   1.434   2.725   9.812  0.4218 -0.5884 -0.0492
  146SAPE   C3416121   1.437   2.755   9.608 -0.5095 -0.2849 -0.4998
  146SAPE   H4X16122   1.326   2.764   9.597 -0.3516 -0.5072 -2.9685
  146SAPE   H4Y16123   1.458   2.650   9.578 -1.0952 -0.9232  1.2085
  146SAPE   C3516124   1.499   2.859   9.512 -0.0874  0.0599  0.1665
  146SAPE   H5X16125   1.610   2.863   9.513 -0.0625 -0.4588 -0.1774
  146SAPE   H5Y16126   1.460   2.960   9.536 -1.8654 -0.1496 -1.5166
  146SAPE   C3616127   1.465   2.839   9.367 -0.2911 -0.5562  0.3478
  146SAPE   H6X16128   1.356   2.831   9.350 -0.2097  0.9608 -1.1610
  146SAPE   H6Y16129   1.522   2.748   9.336 -0.7141 -0.1879 -1.6561
  146SAPE   C3716130   1.513   2.953   9.277 -0.1102 -0.3920  0.2890
  146SAPE   H7X16131   1.622   2.973   9.284 -0.1127 -0.7192  1.5641
  146SAPE   H7Y16132   1.443   3.037   9.295 -0.1413 -0.0261 -1.4114
  146SAPE   C3816133   1.481   2.925   9.129 -0.1871  0.4284 -0.5869
  146SAPE   H8X16134   1.531   2.995   9.059  0.4488  1.2206  0.6187
  146SAPE   H8Y16135   1.371   2.925   9.117 -0.4430 -0.4783  1.2526
  146SAPE   C3916136   1.521   2.785   9.076  0.4368  0.5257  0.2298
  146SAPE   H9X16137   1.480   2.698   9.132  2.4143  1.0388  2.6898
  146SAPE   H9Y16138   1.631   2.768   9.084  0.6632  1.8833  0.1771
  146SAPE  C31016139   1.501   2.766   8.919  0.4225  0.1281 -0.7297
  146SAPE  H10X16140   1.582   2.823   8.868  0.8634  0.5029  0.3586
  146SAPE  H10Y16141   1.397   2.804   8.911  0.5278  1.3336  2.3664
  146SAPE  C31116142   1.511   2.616   8.870  0.9409  0.6525  0.0570
  146SAPE  H11X16143   1.421   2.556   8.892  0.6788  1.1499  0.3540
  146SAPE  H11Y16144   1.599   2.570   8.919 -0.0284 -1.2382  0.0950
  146SAPE  C31216145   1.513   2.605   8.715 -0.3344 -0.4537 -0.5805
  146SAPE  H12X16146   1.613   2.637   8.677  0.3193 -0.1941  1.2566
  146SAPE  H12Y16147   1.434   2.674   8.677  1.5218  1.3124 -1.4497
  146SAPE  C31316148   1.480   2.474   8.654  0.1403 -0.2776 -0.5376
  146SAPE  H13X16149   1.479   2.475   8.543 -1.0123  1.0899 -0.5435
  146SAPE  H13Y16150   1.376   2.452   8.686 -0.1486  1.7877  0.1225
  146SAPE  C31416151   1.574   2.357   8.691  0.3480  0.0545  0.4144
  146SAPE  H14X16152   1.542   2.330   8.794 -2.6802  0.5887 -0.2937
  146SAPE  H14Y16153   1.679   2.391   8.684  0.1378  0.3602 -2.7590
  146SAPE  C31516154   1.549   2.241   8.590  0.2991 -0.3223 -0.4258
  146SAPE  H15X16155   1.439   2.226   8.592  0.0393  1.4444  0.2799
  146SAPE  H15Y16156   1.597   2.147   8.628 -0.5031 -0.2560  0.8235
  146SAPE  C31616157   1.603   2.275   8.455  0.2758 -0.3065  0.1041
  146SAPE  H16X16158   1.713   2.274   8.470  0.5530 -0.9764 -1.7878
  146SAPE  H16Y16159   1.579   2.378   8.418 -0.6653 -0.2211  0.9029
  146SAPE  C31716160   1.563   2.171   8.354 -0.4373 -0.2278  0.2140
  146SAPE  H17X16161   1.459   2.192   8.322  0.6825 -1.0033 -4.5753
  146SAPE  H17Y16162   1.580   2.072   8.402  2.0916 -1.3103 -2.6176
  146SAPE  C31816163   1.650   2.188   8.225  0.0812 -0.7979  0.3764
  146SAPE  H18X16164   1.759   2.198   8.242 -0.0690  1.2077  0.3241
  146SAPE  H18Y16165   1.614   2.281   8.177 -0.4153 -0.5071  1.3040
  146SAPE  H18Z16166   1.617   2.110   8.152 -0.8374 -0.1567  0.0927
  147SAPE     N16167   5.707   5.903  10.800 -0.1293  0.8593 -0.6397
  147SAPE   HN116168   5.750   5.937  10.888  1.5421 -0.6842 -0.8102
  147SAPE   HN216169   5.789   5.893  10.736 -1.0804 -2.5895 -1.5352
  147SAPE   HN316170   5.639   5.971  10.760 -1.8645 -0.0948  0.5789
  147SAPE   C1216171   5.636   5.778  10.848  0.0908 -0.1457 -0.6094
  147SAPE  H12A16172   5.535   5.809  10.882  0.2851 -1.1159  0.9869
  147SAPE  H12B16173   5.695   5.737  10.934  0.6197  2.2608  0.2417
  147SAPE   C1116174   5.610   5.673  10.734 -0.5794  0.0894  0.0295
  147SAPE  H11A16175   5.586   5.575  10.782  0.5737  1.3935  3.5850
  147SAPE  H11B16176   5.711   5.668  10.688 -0.8759 -2.0215 -0.5063
  147SAPE     P16177   5.374   5.650  10.622 -0.5417 -0.3244 -0.1897
  147SAPE   O1316178   5.328   5.578  10.745 -0.3094 -0.3214  0.2652
  147SAPE   O1416179   5.284   5.758  10.571 -0.9683 -0.2595 -0.4440
  147SAPE   O1216180   5.519   5.717  10.636  0.1288 -0.1099 -0.1141
  147SAPE   O1116181   5.392   5.552  10.497  0.1874 -0.2959 -0.2211
  147SAPE    C116182   5.510   5.478  10.483 -0.1114 -0.4978 -0.3864
  147SAPE    HA16183   5.595   5.511  10.546  0.5422 -1.9938 -0.4470
  147SAPE    HB16184   5.490   5.371  10.504 -0.1609 -0.7897 -1.8320
  147SAPE    C216185   5.552   5.481  10.333  0.1102  0.3320  0.7636
  147SAPE    HS16186   5.626   5.402  10.305 -0.6774 -0.1455 -0.0383
  147SAPE   O2116187   5.599   5.611  10.288 -0.1125  0.4652  0.9026
  147SAPE   C2116188   5.715   5.652  10.339  1.0294  0.4206 -0.0306
  147SAPE   O2216189   5.777   5.582  10.414 -0.5708  0.3843 -0.3279
  147SAPE   C2216190   5.757   5.783  10.284  0.5885  0.2263 -0.2493
  147SAPE   H2R16191   5.761   5.767  10.174  0.5006  1.5039 -0.4509
  147SAPE   H2S16192   5.697   5.874  10.302  0.3844 -0.2503  1.6853
  147SAPE    C316193   5.428   5.437  10.249 -0.2870 -0.8479  0.6094
  147SAPE    HX16194   5.343   5.503  10.274  0.3862 -0.5134  2.1398
  147SAPE    HY16195   5.393   5.333  10.271  1.2006 -1.1070  1.9971
  147SAPE   O3116196   5.459   5.436  10.102 -0.0185 -0.1715 -0.2518
  147SAPE   C3116197   5.440   5.553  10.041  0.3017 -0.0902  0.9288
  147SAPE   O3216198   5.387   5.649  10.097  0.1249 -0.3447  0.3257
  147SAPE   C3216199   5.503   5.552   9.898 -0.5053 -0.3139 -0.5378
  147SAPE   H2X16200   5.425   5.509   9.832  0.8031 -1.3680 -1.4553
  147SAPE   H2Y16201   5.591   5.484   9.899 -1.8268 -2.1899 -2.4169
  147SAPE   C2316202   5.901   5.816  10.337  0.6164 -0.5517 -0.5963
  147SAPE   H3R16203   5.958   5.721  10.331 -0.4406 -1.3533  1.1898
  147SAPE   H3S16204   5.882   5.851  10.441 -1.5493 -0.9775 -0.7916
  147SAPE   C2416205   5.979   5.912  10.245  0.8184 -0.0217  0.6837
  147SAPE   H4R16206   5.979   5.866  10.144 -2.1138  0.6545  0.2801
  147SAPE   H4S16207   6.086   5.918  10.275  2.4006  0.5066 -4.1991
  147SAPE   C2516208   5.949   6.060  10.264 -0.2039 -0.3749  0.0940
  147SAPE   H5R16209   5.943   6.095  10.368  2.2198  2.5758 -0.6257
  147SAPE   C2616210   5.935   6.156  10.170 -0.3144  0.3763 -0.1803
  147SAPE   H6R16211   5.926   6.260  10.205 -1.3154  0.2603 -0.0662
  147SAPE   C2716212   5.948   6.137  10.020  0.2369 -0.1833 -0.3924
  147SAPE   H7R16213   5.999   6.041   9.997  2.9356  1.4136 -1.6021
  147SAPE   H7S16214   6.017   6.208   9.969 -0.9743  1.2599 -0.0751
  147SAPE   C2816215   5.816   6.148   9.949  0.4170 -0.0648  0.5572
  147SAPE   H8R16216   5.731   6.168  10.015  0.4497  0.5478  0.4164
  147SAPE   C2916217   5.788   6.134   9.821 -0.6231 -0.1991  0.6996
  147SAPE   H9R16218   5.683   6.134   9.789 -0.5176 -1.2941  0.3171
  147SAPE  C21016219   5.886   6.114   9.709 -0.1147  0.3371 -0.5091
  147SAPE  H10R16220   5.971   6.070   9.765 -0.6770 -1.0319 -0.6810
  147SAPE  H10S16221   5.907   6.213   9.663 -2.9970  1.1495 -0.2918
  147SAPE  C21116222   5.835   6.016   9.606 -0.5145 -0.8217 -0.7640
  147SAPE  H11R16223   5.797   5.917   9.637  0.6667 -1.4428 -1.2497
  147SAPE  C21216224   5.830   6.040   9.473 -0.0217  0.1296  0.2160
  147SAPE  H12R16225   5.787   5.958   9.413  0.8713 -1.1138  1.2207
  147SAPE  C21316226   5.869   6.168   9.408 -0.1855  0.2410 -0.1329
  147SAPE  H13R16227   5.957   6.215   9.457 -0.2969 -2.0584  2.5192
  147SAPE  H13S16228   5.787   6.242   9.404  1.6853  2.3668 -2.5050
  147SAPE  C21416229   5.917   6.117   9.271 -0.6228 -0.6786 -0.8051
  147SAPE  H14R16230   6.007   6.054   9.275 -0.7685 -0.9555 -1.6384
  147SAPE  C21516231   5.885   6.158   9.145 -0.4958 -0.2305 -0.1482
  147SAPE  H15R16232   5.932   6.093   9.069 -1.2563 -0.4613 -0.4274
  147SAPE  C21616233   5.777   6.255   9.109  0.3476 -0.1004  0.2864
  147SAPE  H16R16234   5.812   6.316   9.024 -1.3019 -0.7806 -0.9335
  147SAPE  H16S16235   5.750   6.321   9.194 -0.6703  1.0115 -0.8709
  147SAPE  C21716236   5.663   6.167   9.061 -0.3221  0.5107 -0.1132
  147SAPE  H17R16237   5.634   6.093   9.140  0.6425 -1.3848 -1.4714
  147SAPE  H17S16238   5.685   6.126   8.961 -0.8897  0.9097 -0.4130
  147SAPE  C21816239   5.529   6.248   9.041 -0.2707  0.4872 -0.2155
  147SAPE  H18R16240   5.547   6.329   8.967 -0.1991  0.4890 -0.1965
  147SAPE  H18S16241   5.513   6.298   9.139  0.1891 -0.9974  0.6670
  147SAPE  C21916242   5.412   6.160   8.999 -0.1975 -0.4306 -0.5347
  147SAPE  H19R16243   5.324   6.227   8.993  0.2213  0.0303 -1.8894
  147SAPE  H19S16244   5.407   6.090   9.085  1.1829  1.1790  0.9460
  147SAPE  C22016245   5.426   6.101   8.862  0.5486  0.2131  0.3172
  147SAPE  H20R16246   5.514   6.037   8.840  0.1488 -0.4836  0.7207
  147SAPE  H20S16247   5.428   6.187   8.792  0.7588 -1.8420 -2.3317
  147SAPE  H20T16248   5.334   6.048   8.829  0.6802 -0.8865  1.6023
  147SAPE   C3316249   5.525   5.701   9.847  0.0298 -0.7110 -0.2374
  147SAPE   H3X16250   5.588   5.751   9.924 -2.3738  1.0152  0.7546
  147SAPE   H3Y16251   5.427   5.753   9.840  0.0925 -0.4515  0.6519
  147SAPE   C3416252   5.582   5.711   9.710 -0.0047 -0.0291  0.3107
  147SAPE   H4X16253   5.678   5.656   9.719 -1.2460 -2.5984 -0.9911
  147SAPE   H4Y16254   5.600   5.818   9.686 -0.8426  0.0565  0.0456
  147SAPE   C3516255   5.489   5.649   9.598  0.5045  0.3534  0.4942
  147SAPE   H5X16256   5.400   5.716   9.598  1.9592  2.4600 -1.4588
  147SAPE   H5Y16257   5.446   5.549   9.618  0.3793 -0.5377 -3.3823
  147SAPE   C3616258   5.557   5.621   9.463  0.4475 -0.3805 -0.0392
  147SAPE   H6X16259   5.634   5.542   9.461  1.4607  0.4917 -3.7139
  147SAPE   H6Y16260   5.610   5.717   9.441  0.8702 -0.9668 -1.7501
  147SAPE   C3716261   5.470   5.599   9.336 -0.0545  0.4421 -0.8384
  147SAPE   H7X16262   5.376   5.658   9.346 -0.2033  0.0208  0.4511
  147SAPE   H7Y16263   5.448   5.491   9.330 -0.8396  0.5283  0.1793
  147SAPE   C3816264   5.529   5.630   9.195 -0.3211 -0.6230  0.1470
  147SAPE   H8X16265   5.636   5.603   9.177  0.4207  2.2797 -0.3227
  147SAPE   H8Y16266   5.514   5.739   9.181 -0.7551 -0.4291  1.8771
  147SAPE   C3916267   5.430   5.572   9.089 -0.6486  0.4698 -0.2539
  147SAPE   H9X16268   5.334   5.616   9.125 -0.6037  0.3285  0.0385
  147SAPE   H9Y16269   5.432   5.461   9.091 -0.3319  0.4737 -0.3595
  147SAPE  C31016270   5.451   5.634   8.947 -0.0570 -0.2240  0.0533
  147SAPE  H10X16271   5.520   5.718   8.968  0.3067 -0.0802 -1.5827
  147SAPE  H10Y16272   5.357   5.683   8.911  0.0724  0.8474  1.1304
  147SAPE  C31116273   5.519   5.557   8.834 -0.3775  0.2726  0.4898
  147SAPE  H11X16274   5.467   5.463   8.807  4.1045 -2.6293  0.9317
  147SAPE  H11Y16275   5.619   5.525   8.868 -0.1872  1.5800  1.2285
  147SAPE  C31216276   5.549   5.644   8.708  0.2655  0.2886 -0.1276
  147SAPE  H12X16277   5.574   5.749   8.733 -0.0502  0.6702 -1.3447
  147SAPE  H12Y16278   5.460   5.651   8.642 -0.1371  2.6497  0.5713
  147SAPE  C31316279   5.664   5.592   8.609 -0.3222 -0.9284 -0.4060
  147SAPE  H13X16280   5.759   5.595   8.667 -0.2561 -1.0411 -0.5094
  147SAPE  H13Y16281   5.680   5.669   8.531  0.5114 -0.0976  0.5454
  147SAPE  C31416282   5.630   5.460   8.544 -0.7512 -0.5141  0.1261
  147SAPE  H14X16283   5.520   5.465   8.525 -0.7138  0.4279  0.0955
  147SAPE  H14Y16284   5.637   5.366   8.603 -1.1360 -0.2464  0.6125
  147SAPE  C31516285   5.709   5.445   8.415 -0.2865 -0.5481  1.1798
  147SAPE  H15X16286   5.816   5.475   8.424 -0.4161  0.8579 -1.0387
  147SAPE  H15Y16287   5.660   5.502   8.332 -0.4704  0.9112  2.2601
  147SAPE  C31616288   5.715   5.301   8.372  0.0066  0.1052  0.6260
  147SAPE  H16X16289   5.611   5.265   8.389  0.4522 -1.8144 -0.4533
  147SAPE  H16Y16290   5.782   5.243   8.438  2.1733  1.9433  0.1653
  147SAPE  C31716291   5.748   5.272   8.223 -0.2891 -1.2800 -0.4440
  147SAPE  H17X16292   5.833   5.342   8.209 -0.1819 -1.0986  0.9280
  147SAPE  H17Y16293   5.669   5.321   8.163  1.6933  2.2558 -0.4663
  147SAPE  C31816294   5.789   5.135   8.188  0.0334  0.2651  0.5421
  147SAPE  H18X16295   5.707   5.069   8.223 -1.2604  1.3956 -0.2752
  147SAPE  H18Y16296   5.884   5.097   8.233  0.2916 -0.9518 -0.9378
  147SAPE  H18Z16297   5.819   5.127   8.082 -0.5292 -1.4578  0.4734
  148SAPE     N16298   5.839   0.305  11.003 -0.5802 -0.0917  0.2959
  148SAPE   HN116299   5.785   0.356  10.929  1.5104  1.5844 -0.1920
  148SAPE   HN216300   5.837   0.207  10.968 -1.5410 -0.1243  0.4251
  148SAPE   HN316301   5.793   0.309  11.096 -0.2463  0.3016  0.4486
  148SAPE   C1216302   5.984   0.353  10.997 -0.2246  0.1441  0.3542
  148SAPE  H12A16303   6.049   0.266  11.022  1.1300  0.6322 -1.2517
  148SAPE  H12B16304   6.008   0.434  11.068  1.2316  0.4623 -0.4557
  148SAPE   C1116305   6.027   0.389  10.850 -0.3194 -0.0467 -0.4823
  148SAPE  H11A16306   6.013   0.309  10.773 -2.1757  0.6877 -0.9815
  148SAPE  H11B16307   6.138   0.397  10.854  0.1947 -4.5704  0.0248
  148SAPE     P16308   5.842   0.532  10.726  0.4294 -0.1257 -0.0835
  148SAPE   O1316309   5.735   0.467  10.797 -0.3920  0.0596  0.8985
  148SAPE   O1416310   5.824   0.669  10.680 -0.6688  0.2984  0.7830
  148SAPE   O1216311   5.972   0.515  10.814 -0.0934 -0.0151 -0.4257
  148SAPE   O1116312   5.876   0.444  10.603 -0.4229 -0.1573 -0.1125
  148SAPE    C116313   5.977   0.493  10.516  0.2545  0.0078 -0.0273
  148SAPE    HA16314   5.997   0.603  10.519 -1.3792  0.4126 -2.0360
  148SAPE    HB16315   6.072   0.438  10.533  0.3237  0.5098  1.3905
  148SAPE    C216316   5.935   0.452  10.372  0.4615  0.4371  0.0780
  148SAPE    HS16317   6.029   0.445  10.313  0.8014 -1.7042  0.8069
  148SAPE   O2116318   5.847   0.551  10.321  0.2252  0.5433  0.1544
  148SAPE   C2116319   5.897   0.653  10.255  0.0573  0.5067 -0.1682
  148SAPE   O2216320   6.014   0.676  10.238  0.4256  0.2028  0.3514
  148SAPE   C2216321   5.790   0.741  10.200 -0.2771  0.4340 -0.1903
  148SAPE   H2R16322   5.742   0.784  10.291 -0.5252  0.4503 -0.3265
  148SAPE   H2S16323   5.846   0.820  10.145  1.2168 -1.5835 -1.7229
  148SAPE    C316324   5.869   0.309  10.361 -0.8637 -0.2402  0.3556
  148SAPE    HX16325   5.774   0.324  10.417 -1.5538  0.6928 -1.0135
  148SAPE    HY16326   5.933   0.235  10.413  0.9995  0.8581 -0.2485
  148SAPE   O3116327   5.864   0.282  10.219  0.4592  0.4798  0.0764
  148SAPE   C3116328   5.739   0.267  10.164  0.1893 -0.5953 -0.5029
  148SAPE   O3216329   5.638   0.260  10.228 -0.2313 -0.3722  0.2685
  148SAPE   C3216330   5.747   0.293  10.014 -0.2058 -0.3736 -0.2623
  148SAPE   H2X16331   5.819   0.218   9.976 -1.4891 -2.2955  0.8844
  148SAPE   H2Y16332   5.794   0.392   9.995 -1.0689  0.3593  1.1675
  148SAPE   C2316333   5.689   0.675  10.106 -0.0327 -0.1313 -1.1576
  148SAPE   H3R16334   5.590   0.724  10.099  0.4524  1.0525 -0.0331
  148SAPE   H3S16335   5.659   0.573  10.139 -1.9146  0.6277 -0.3475
  148SAPE   C2416336   5.724   0.675   9.960 -0.5058  0.0174  0.0882
  148SAPE   H4R16337   5.651   0.610   9.906  2.0711 -2.1810 -1.0135
  148SAPE   H4S16338   5.814   0.610   9.949 -0.5969 -0.1040  0.0458
  148SAPE   C2516339   5.743   0.814   9.903 -0.2619  0.7190  0.2438
  148SAPE   H5R16340   5.731   0.893   9.979 -2.5721  0.9538 -0.3054
  148SAPE   C2616341   5.745   0.846   9.772 -0.3852 -0.3269 -0.2405
  148SAPE   H6R16342   5.749   0.954   9.749  1.2751 -0.7866 -2.4436
  148SAPE   C2716343   5.731   0.752   9.651 -0.3152  0.1548 -0.0590
  148SAPE   H7R16344   5.756   0.653   9.694  1.4340  0.9710  0.9238
  148SAPE   H7S16345   5.812   0.776   9.579 -1.9060 -0.7404 -2.2713
  148SAPE   C2816346   5.592   0.751   9.581 -0.3301 -0.2330  0.2360
  148SAPE   H8R16347   5.502   0.736   9.643 -0.2530 -0.7779  0.2216
  148SAPE   C2916348   5.575   0.765   9.453 -0.6737 -0.8060  0.0173
  148SAPE   H9R16349   5.470   0.775   9.421 -0.4800 -0.4504 -0.5255
  148SAPE  C21016350   5.680   0.797   9.347  0.7112  0.5927 -0.5374
  148SAPE  H10R16351   5.778   0.832   9.387  0.9235  1.3376 -1.6537
  148SAPE  H10S16352   5.642   0.884   9.288 -0.5374  1.0744  0.9215
  148SAPE  C21116353   5.689   0.670   9.264 -0.0326 -0.5439  0.8223
  148SAPE  H11R16354   5.657   0.574   9.307 -2.3626  0.0101  0.4532
  148SAPE  C21216355   5.725   0.672   9.136 -0.2822  0.3454  0.1274
  148SAPE  H12R16356   5.722   0.578   9.079 -1.1819  2.3420 -3.4340
  148SAPE  C21316357   5.765   0.783   9.048 -0.0604  0.4523  0.2506
  148SAPE  H13R16358   5.787   0.872   9.112 -1.8813  1.7406 -0.8188
  148SAPE  H13S16359   5.694   0.812   8.967  1.6246  0.4083 -1.3226
  148SAPE  C21416360   5.892   0.748   8.965  0.0851  0.3082  0.7333
  148SAPE  H14R16361   5.981   0.785   9.018  1.2779 -2.9363  1.2295
  148SAPE  C21516362   5.892   0.683   8.844  0.6310 -1.5558  0.1659
  148SAPE  H15R16363   5.989   0.663   8.794 -0.3290 -1.9541 -1.6174
  148SAPE  C21616364   5.773   0.620   8.772 -0.9110  0.0313  0.2922
  148SAPE  H16R16365   5.683   0.654   8.828  1.0843  0.4460  3.5143
  148SAPE  H16S16366   5.779   0.509   8.768  0.2605  0.1065 -0.2833
  148SAPE  C21716367   5.750   0.678   8.631  0.0414 -0.4732 -0.5006
  148SAPE  H17R16368   5.705   0.779   8.626  0.1620 -0.3718  0.3799
  148SAPE  H17S16369   5.687   0.604   8.576  0.8222 -0.7177 -1.0868
  148SAPE  C21816370   5.870   0.686   8.541 -0.1042 -0.2839  0.3872
  148SAPE  H18R16371   5.926   0.590   8.542 -0.0560 -0.2810 -0.7224
  148SAPE  H18S16372   5.941   0.765   8.574 -0.6770 -0.1539  1.3195
  148SAPE  C21916373   5.819   0.703   8.400 -0.0671 -0.1653  0.3592
  148SAPE  H19R16374   5.746   0.786   8.403  3.0563  2.7990  3.0677
  148SAPE  H19S16375   5.767   0.610   8.368  0.5674 -0.0257 -1.1792
  148SAPE  C22016376   5.918   0.727   8.286  0.7503  0.2209 -0.3734
  148SAPE  H20R16377   5.872   0.759   8.191  1.8649  0.0269 -0.9917
  148SAPE  H20S16378   5.987   0.641   8.274 -1.1956 -1.4638 -0.0696
  148SAPE  H20T16379   5.983   0.812   8.316  1.0225 -0.3799  0.8337
  148SAPE   C3316380   5.612   0.297   9.942  0.8528 -0.4593  0.4908
  148SAPE   H3X16381   5.561   0.395   9.956 -0.7215 -1.5243  3.0732
  148SAPE   H3Y16382   5.544   0.221   9.988  0.5945 -0.2553  0.4486
  148SAPE   C3416383   5.612   0.267   9.795  0.5351  0.4519  0.1498
  148SAPE   H4X16384   5.508   0.259   9.757  0.7452 -0.2978 -0.2833
  148SAPE   H4Y16385   5.650   0.163   9.789  0.9416  0.3551  3.0408
  148SAPE   C3516386   5.695   0.361   9.709  0.8628  0.3968  0.3744
  148SAPE   H5X16387   5.804   0.340   9.720  1.7656  4.1886  0.1085
  148SAPE   H5Y16388   5.683   0.460   9.759  2.2216  1.4933 -1.3233
  148SAPE   C3616389   5.656   0.363   9.567 -0.0713  0.0350  0.1877
  148SAPE   H6X16390   5.718   0.446   9.527  2.5282 -2.1840 -0.7493
  148SAPE   H6Y16391   5.549   0.392   9.558 -0.5653 -0.8649  2.4622
  148SAPE   C3716392   5.691   0.233   9.480 -0.2721 -0.6774  0.8886
  148SAPE   H7X16393   5.627   0.151   9.518 -1.3182 -0.7158 -0.8362
  148SAPE   H7Y16394   5.798   0.210   9.498 -0.1798 -2.4942 -1.5513
  148SAPE   C3816395   5.667   0.251   9.333 -0.2900  0.1166  0.6323
  148SAPE   H8X16396   5.668   0.147   9.295 -1.5902  0.0202  0.8062
  148SAPE   H8Y16397   5.750   0.309   9.289 -0.4610  0.5652  0.8889
  148SAPE   C3916398   5.534   0.314   9.299 -0.4106  0.1660  0.4586
  148SAPE   H9X16399   5.531   0.424   9.314  1.0094  0.5454 -1.6956
  148SAPE   H9Y16400   5.461   0.270   9.370  0.0557  0.1567  0.9365
  148SAPE  C31016401   5.478   0.268   9.164 -0.9263 -0.1638  0.0347
  148SAPE  H10X16402   5.371   0.285   9.143 -0.3220  0.6378 -2.6899
  148SAPE  H10Y16403   5.480   0.157   9.160  2.9393 -0.2285 -0.2687
  148SAPE  C31116404   5.565   0.314   9.048  0.0320 -0.3791  0.9235
  148SAPE  H11X16405   5.671   0.285   9.065  0.9782  1.5994 -1.0129
  148SAPE  H11Y16406   5.562   0.425   9.044 -2.4589 -0.4054  0.5770
  148SAPE  C31216407   5.520   0.257   8.906 -0.2325 -0.4720 -0.0632
  148SAPE  H12X16408   5.534   0.147   8.898 -0.3690 -0.5543  0.7505
  148SAPE  H12Y16409   5.594   0.307   8.840  0.0485  1.9585  1.9225
  148SAPE  C31316410   5.386   0.291   8.859  0.4599 -0.1309 -0.3720
  148SAPE  H13X16411   5.371   0.401   8.847 -2.3457 -0.3608  0.2282
  148SAPE  H13Y16412   5.300   0.265   8.925  0.0547  2.5549  0.2978
  148SAPE  C31416413   5.351   0.227   8.722 -0.5241  0.7775 -0.1489
  148SAPE  H14X16414   5.255   0.268   8.684  0.0560 -0.4257 -3.2389
  148SAPE  H14Y16415   5.328   0.120   8.738 -0.6353  0.9708  1.0719
  148SAPE  C31516416   5.448   0.257   8.605 -0.9223  0.3394 -0.2001
  148SAPE  H15X16417   5.552   0.232   8.637 -0.3922  1.6051 -0.8376
  148SAPE  H15Y16418   5.456   0.365   8.581 -1.8318  1.1308  2.7671
  148SAPE  C31616419   5.415   0.189   8.474 -0.5600 -0.6159 -0.6338
  148SAPE  H16X16420   5.309   0.215   8.449 -1.1562 -1.2220  1.1437
  148SAPE  H16Y16421   5.399   0.080   8.490 -2.4922 -0.4236 -0.9795
  148SAPE  C31716422   5.520   0.208   8.366 -0.5674  0.6723  0.6097
  148SAPE  H17X16423   5.561   0.312   8.363 -0.1304  0.5795 -4.2845
  148SAPE  H17Y16424   5.463   0.185   8.274 -1.1069 -3.4858  1.7756
  148SAPE  C31816425   5.642   0.116   8.377 -0.8049  0.0199 -0.0301
  148SAPE  H18X16426   5.688   0.132   8.476 -0.4188  0.4152 -0.2709
  148SAPE  H18Y16427   5.715   0.134   8.295  1.9328  2.2080  2.6676
  148SAPE  H18Z16428   5.602   0.013   8.378 -1.3092  0.1503  3.3021
  149SAPE     N16429   5.282   2.662  10.878 -0.3072  0.1638  0.0737
  149SAPE   HN116430   5.284   2.717  10.966 -0.1096  0.5243 -0.1582
  149SAPE   HN216431   5.182   2.657  10.847  0.0272 -0.0942 -1.0027
  149SAPE   HN316432   5.313   2.563  10.889 -4.6156 -1.4114  0.2697
  149SAPE   C1216433   5.357   2.751  10.776 -0.1017  0.4984 -0.0682
  149SAPE  H12A16434   5.303   2.848  10.779 -2.6537 -0.7401 -1.8562
  149SAPE  H12B16435   5.339   2.708  10.675  2.9377  1.1794 -1.0284
  149SAPE   C1116436   5.508   2.766  10.804 -0.0845 -0.4085 -0.4834
  149SAPE  H11A16437   5.521   2.784  10.912  1.1369  0.9871 -0.8384
  149SAPE  H11B16438   5.539   2.852  10.740  1.0145 -1.2906 -1.1693
  149SAPE     P16439   5.641   2.615  10.634  0.3999 -0.1786 -0.2584
  149SAPE   O1316440   5.771   2.691  10.618 -0.1684 -0.0982 -0.1333
  149SAPE   O1416441   5.654   2.472  10.629  0.6006  0.9775 -0.2008
  149SAPE   O1216442   5.570   2.646  10.774  0.3593 -0.2521 -0.4040
  149SAPE   O1116443   5.542   2.655  10.519 -0.1191  0.1251 -0.0120
  149SAPE    C116444   5.572   2.699  10.390  0.3131 -0.2532 -0.0307
  149SAPE    HA16445   5.485   2.751  10.343  0.6744 -1.2770 -1.9379
  149SAPE    HB16446   5.655   2.773  10.380 -0.4139  0.4699 -0.8420
  149SAPE    C216447   5.612   2.579  10.299 -0.3047 -0.6274  1.1173
  149SAPE    HS16448   5.530   2.506  10.314 -2.1383  0.8603 -0.9830
  149SAPE   O2116449   5.740   2.520  10.332 -0.1813  0.1761 -0.3663
  149SAPE   C2116450   5.745   2.386  10.314 -0.4897 -0.0635 -0.2577
  149SAPE   O2216451   5.654   2.322  10.271 -0.2373  0.5293 -0.0597
  149SAPE   C2216452   5.889   2.333  10.348  0.0640  0.0912  0.0100
  149SAPE   H2R16453   5.936   2.389  10.433 -0.3375 -1.7029  1.4795
  149SAPE   H2S16454   5.866   2.231  10.386 -1.0251 -0.1081 -1.1175
  149SAPE    C316455   5.619   2.624  10.146 -0.3838 -0.2314 -0.2320
  149SAPE    HX16456   5.524   2.663  10.103 -0.1639 -2.1176 -2.6617
  149SAPE    HY16457   5.638   2.527  10.096  2.4544  0.6115 -0.9681
  149SAPE   O3116458   5.733   2.718  10.117  0.4582 -0.1800 -0.8334
  149SAPE   C3116459   5.718   2.778  10.003  0.9177  0.4135 -0.0719
  149SAPE   O3216460   5.620   2.768   9.926  0.2385  0.7554  0.2634
  149SAPE   C3216461   5.853   2.847   9.978 -0.0966 -0.1503  0.2901
  149SAPE   H2X16462   5.893   2.887  10.073  1.2955  0.5983 -0.5691
  149SAPE   H2Y16463   5.842   2.935   9.911 -0.6127  1.4541  2.3852
  149SAPE   C2316464   5.986   2.301  10.221 -0.1820  0.6781  0.2198
  149SAPE   H3R16465   5.926   2.248  10.144  1.0892  2.4162 -2.1186
  149SAPE   H3S16466   6.065   2.234  10.261  1.5205  1.3937 -1.7357
  149SAPE   C2416467   6.029   2.430  10.152 -0.9332 -0.5727 -0.0784
  149SAPE   H4R16468   6.097   2.474  10.227  3.1617 -4.1562 -1.2732
  149SAPE   H4S16469   5.948   2.501  10.126 -1.0795 -0.3995  0.8253
  149SAPE   C2516470   6.113   2.392  10.030 -0.3835 -0.1099  0.3581
  149SAPE   H5R16471   6.221   2.391  10.050 -0.2189  0.6247 -0.4328
  149SAPE   C2616472   6.068   2.354   9.907  0.2365 -0.2251 -0.5532
  149SAPE   H6R16473   6.138   2.327   9.826 -1.1914  0.1756 -1.9698
  149SAPE   C2716474   5.925   2.344   9.872  0.0579  0.6388  0.1743
  149SAPE   H7R16475   5.907   2.417   9.790 -0.2235  1.0802  0.6257
  149SAPE   H7S16476   5.859   2.379   9.954  0.1323 -0.0842  0.5487
  149SAPE   C2816477   5.888   2.202   9.841  0.3510  0.2746 -0.4189
  149SAPE   H8R16478   5.867   2.139   9.928 -1.1254  0.0826 -0.8762
  149SAPE   C2916479   5.877   2.144   9.718 -0.2239 -0.1559 -1.0929
  149SAPE   H9R16480   5.849   2.038   9.712  1.2730 -0.8113  1.8993
  149SAPE  C21016481   5.910   2.212   9.590 -0.4246 -0.4599  0.8428
  149SAPE  H10R16482   5.903   2.322   9.606 -1.1011 -0.1838 -1.1362
  149SAPE  H10S16483   5.837   2.185   9.511  3.4321 -1.6390 -2.6487
  149SAPE  C21116484   6.052   2.185   9.551  0.4729 -0.1813 -0.7912
  149SAPE  H11R16485   6.125   2.209   9.630  1.4695 -0.8564 -1.4794
  149SAPE  C21216486   6.104   2.147   9.436  0.2331 -0.1747  0.0789
  149SAPE  H12R16487   6.212   2.134   9.428  0.2527 -1.6072  1.8789
  149SAPE  C21316488   6.026   2.112   9.312  0.2746 -0.0778  0.5007
  149SAPE  H13R16489   5.918   2.091   9.328  0.3241 -0.1113  0.7826
  149SAPE  H13S16490   6.075   2.020   9.271 -0.2434  0.1781 -0.7580
  149SAPE  C21416491   6.029   2.218   9.207  0.6627 -0.9199 -1.0142
  149SAPE  H14R16492   5.968   2.309   9.224 -0.1605 -1.2443 -2.1119
  149SAPE  C21516493   6.112   2.233   9.104  0.2255 -0.2763  0.3262
  149SAPE  H15R16494   6.098   2.319   9.037  1.1717 -0.2690  0.1198
  149SAPE  C21616495   6.203   2.132   9.038 -0.0025 -0.7388 -0.3321
  149SAPE  H16R16496   6.207   2.035   9.090  1.9660  0.6207  2.2877
  149SAPE  H16S16497   6.303   2.181   9.048  0.2172 -1.3511  0.5547
  149SAPE  C21716498   6.184   2.099   8.894 -0.4287 -0.5418  0.3302
  149SAPE  H17R16499   6.169   2.192   8.835 -0.3965 -0.3760  0.5788
  149SAPE  H17S16500   6.088   2.043   8.880 -1.3529  0.8323  0.9387
  149SAPE  C21816501   6.306   2.026   8.829  0.0389  0.1032 -0.4820
  149SAPE  H18R16502   6.340   1.946   8.898  0.2706  1.0714  0.5473
  149SAPE  H18S16503   6.394   2.094   8.830 -0.8929  1.3594 -0.0947
  149SAPE  C21916504   6.286   1.965   8.686 -0.2668  0.3657  0.5419
  149SAPE  H19R16505   6.277   2.052   8.616 -2.0549 -0.5927 -0.5073
  149SAPE  H19S16506   6.183   1.923   8.693  0.3522 -0.9185  3.1215
  149SAPE  C22016507   6.377   1.844   8.641  0.7768 -0.2526 -0.3700
  149SAPE  H20R16508   6.351   1.756   8.703  3.0527  0.0042  1.0682
  149SAPE  H20S16509   6.487   1.862   8.651  0.9106 -1.1397 -0.1810
  149SAPE  H20T16510   6.359   1.830   8.533  1.2972  3.4684 -1.0694
  149SAPE   C3316511   5.955   2.750   9.912  0.2046 -0.2132 -0.1486
  149SAPE   H3X16512   5.958   2.650   9.959 -0.4214 -1.7439 -3.1582
  149SAPE   H3Y16513   6.054   2.800   9.916  0.5294 -0.6617 -1.9447
  149SAPE   C3416514   5.906   2.734   9.767  0.6124  0.0156  0.0131
  149SAPE   H4X16515   5.845   2.821   9.733 -2.4953 -1.9674  0.0894
  149SAPE   H4Y16516   5.837   2.647   9.765  0.7810 -0.2431  2.5989
  149SAPE   C3516517   6.022   2.702   9.666  0.5224 -0.4253 -0.2461
  149SAPE   H5X16518   6.078   2.611   9.696 -1.6522 -2.9121 -3.1425
  149SAPE   H5Y16519   6.096   2.784   9.674  1.5593 -1.1509 -1.9006
  149SAPE   C3616520   5.970   2.670   9.528 -0.0787 -0.3536  0.7308
  149SAPE   H6X16521   5.895   2.747   9.501  0.2044  0.2895  1.7611
  149SAPE   H6Y16522   5.911   2.576   9.536  1.3098 -1.2179  1.1140
  149SAPE   C3716523   6.085   2.649   9.427 -0.4933 -0.6965  0.8259
  149SAPE   H7X16524   6.143   2.561   9.461  1.2597 -0.2111 -0.7035
  149SAPE   H7Y16525   6.157   2.734   9.425  0.4829 -1.5026 -0.5468
  149SAPE   C3816526   6.032   2.636   9.287  0.2548  0.3912 -0.0065
  149SAPE   H8X16527   5.964   2.716   9.251  1.3080  0.3947 -2.1783
  149SAPE   H8Y16528   5.968   2.545   9.281 -0.0637  0.4969  1.5705
  149SAPE   C3916529   6.140   2.633   9.174  1.3571 -0.0434 -0.1156
  149SAPE   H9X16530   6.198   2.540   9.190  0.6585 -0.1017  2.7672
  149SAPE   H9Y16531   6.213   2.715   9.194 -0.2578  0.9193  2.3806
  149SAPE  C31016532   6.082   2.644   9.035 -0.1646  0.3600  0.4119
  149SAPE  H10X16533   6.019   2.736   9.045  1.7172  1.8000 -0.3972
  149SAPE  H10Y16534   6.015   2.561   9.004 -0.2430  0.3115  0.7104
  149SAPE  C31116535   6.184   2.691   8.927  0.0352  0.6598 -0.3808
  149SAPE  H11X16536   6.249   2.775   8.959  0.3488 -0.2468  1.4545
  149SAPE  H11Y16537   6.124   2.715   8.836  0.8083 -1.3106 -1.4551
  149SAPE  C31216538   6.269   2.572   8.895  0.0478  0.0921  0.2956
  149SAPE  H12X16539   6.219   2.474   8.887  1.6092 -0.8684  1.6297
  149SAPE  H12Y16540   6.339   2.570   8.981  0.5766 -0.0374 -0.1327
  149SAPE  C31316541   6.347   2.595   8.768  0.0257  0.6174  0.3466
  149SAPE  H13X16542   6.429   2.670   8.779 -0.5155  1.1506  0.7665
  149SAPE  H13Y16543   6.276   2.612   8.684 -0.6213 -2.0370  0.2661
  149SAPE  C31416544   6.430   2.466   8.715 -0.1252  0.2364 -0.4341
  149SAPE  H14X16545   6.359   2.381   8.712 -2.8672  2.3256  1.2875
  149SAPE  H14Y16546   6.517   2.442   8.780 -0.0491  1.1845 -0.1624
  149SAPE  C31516547   6.473   2.491   8.573  0.1650 -0.8284 -0.2070
  149SAPE  H15X16548   6.563   2.556   8.570 -0.6878  0.3792 -0.4563
  149SAPE  H15Y16549   6.388   2.525   8.510 -1.8930 -1.0782  2.2722
  149SAPE  C31616550   6.504   2.359   8.499 -0.6335  0.4256  0.3001
  149SAPE  H16X16551   6.413   2.296   8.503 -1.2591  1.3606  1.7544
  149SAPE  H16Y16552   6.582   2.309   8.561  0.5392  1.0248 -0.6402
  149SAPE  C31716553   6.563   2.375   8.356 -0.4666 -0.0652  0.0681
  149SAPE  H17X16554   6.665   2.417   8.370 -0.8068  0.3658  1.4704
  149SAPE  H17Y16555   6.500   2.452   8.307  0.1295 -0.2099 -0.9535
  149SAPE  C31816556   6.571   2.242   8.276 -0.9288 -0.2564  0.6322
  149SAPE  H18X16557   6.469   2.200   8.288 -2.4229  2.7238 -0.5833
  149SAPE  H18Y16558   6.639   2.172   8.328  0.0484  0.9891  1.0834
  149SAPE  H18Z16559   6.602   2.248   8.170  2.1967  1.4532  1.5298
  150SAPE     N16560   1.519   2.344  10.433  0.2801  0.4581  0.3222
  150SAPE   HN116561   1.564   2.255  10.403  0.7585  0.9703 -0.5188
  150SAPE   HN216562   1.585   2.386  10.502  1.0986 -1.1611  0.5849
  150SAPE   HN316563   1.425   2.321  10.470  0.0045  0.2010 -0.5064
  150SAPE   C1216564   1.506   2.433  10.314 -0.1891  0.2439  0.0523
  150SAPE  H12A16565   1.449   2.519  10.354  2.6990  1.3842  2.0509
  150SAPE  H12B16566   1.446   2.377  10.239 -0.0356 -0.0660  0.1601
  150SAPE   C1116567   1.641   2.482  10.259 -0.3791 -0.4468  0.3887
  150SAPE  H11A16568   1.645   2.522  10.156  1.1594  0.2511  0.6827
  150SAPE  H11B16569   1.694   2.387  10.239  0.5848 -0.2954  2.0425
  150SAPE     P16570   1.819   2.512  10.449  0.1168 -0.1608 -0.3613
  150SAPE   O1316571   1.888   2.636  10.494 -0.1943  0.5317 -0.4903
  150SAPE   O1416572   1.750   2.445  10.558 -0.1541 -0.0610  0.1530
  150SAPE   O1216573   1.709   2.574  10.347  0.8448  0.3360  0.2216
  150SAPE   O1116574   1.902   2.414  10.359 -0.1842  0.2036  0.2711
  150SAPE    C116575   2.028   2.455  10.294  0.9024  0.4429 -0.0531
  150SAPE    HA16576   2.064   2.545  10.349 -0.5037  1.0917 -0.1462
  150SAPE    HB16577   2.102   2.376  10.316  1.2736  1.0296  0.8959
  150SAPE    C216578   1.998   2.479  10.143  0.1157  0.0716 -0.3573
  150SAPE    HS16579   1.909   2.545  10.142 -0.2808 -0.3406  1.9637
  150SAPE   O2116580   1.965   2.351  10.078  0.2293  0.1664  0.3992
  150SAPE   C2116581   1.861   2.335  10.001  0.2210  0.1567  0.6175
  150SAPE   O2216582   1.776   2.422   9.970  0.3086  0.3828 -0.6225
  150SAPE   C2216583   1.848   2.189   9.955  0.3753  0.0407  0.4292
  150SAPE   H2R16584   1.926   2.129  10.005  0.6994 -0.1966 -0.3576
  150SAPE   H2S16585   1.749   2.148   9.986  0.5204  0.3839  1.3801
  150SAPE    C316586   2.108   2.546  10.065  0.2411 -0.3773  0.4049
  150SAPE    HX16587   2.193   2.474  10.058  1.3911  0.6442  2.6600
  150SAPE    HY16588   2.147   2.630  10.126  0.2639 -0.5297  0.5977
  150SAPE   O3116589   2.061   2.597   9.941  0.4092  0.3216  0.3579
  150SAPE   C3116590   2.107   2.537   9.831  0.3975 -0.5534 -0.2949
  150SAPE   O3216591   2.205   2.469   9.818  0.2759 -0.4607  0.0115
  150SAPE   C3216592   2.017   2.586   9.718  0.1761 -0.0215  0.3292
  150SAPE   H2X16593   1.983   2.689   9.740 -0.5593  0.2282 -1.7670
  150SAPE   H2Y16594   1.924   2.525   9.722  0.8023 -1.2109 -1.7151
  150SAPE   C2316595   1.873   2.177   9.804  0.7734  0.1459  0.6617
  150SAPE   H3R16596   1.910   2.073   9.788  1.5044  0.6207 -1.0092
  150SAPE   H3S16597   1.946   2.254   9.771  2.0991 -0.9263  0.9568
  150SAPE   C2416598   1.750   2.184   9.704 -0.3798  0.2813  0.7838
  150SAPE   H4R16599   1.700   2.283   9.712  1.4100  1.2179  1.0475
  150SAPE   H4S16600   1.675   2.114   9.746 -2.2140  0.7922 -1.4527
  150SAPE   C2516601   1.777   2.161   9.552 -0.4895 -1.5021 -0.1157
  150SAPE   H5R16602   1.796   2.056   9.528  0.9762 -1.0749 -0.9248
  150SAPE   C2616603   1.779   2.248   9.450  0.0162  0.8061  0.4120
  150SAPE   H6R16604   1.804   2.200   9.354  0.8335  2.6990 -0.3649
  150SAPE   C2716605   1.744   2.391   9.444 -1.0891  0.1788 -0.5528
  150SAPE   H7R16606   1.838   2.449   9.445 -0.0974 -1.3511 -0.9025
  150SAPE   H7S16607   1.698   2.421   9.540  1.4135  2.5917 -0.0142
  150SAPE   C2816608   1.646   2.433   9.338 -0.2686  0.3791  0.0095
  150SAPE   H8R16609   1.540   2.421   9.366 -0.4066  0.5677 -0.4359
  150SAPE   C2916610   1.675   2.463   9.210  0.1824 -0.2265 -0.7764
  150SAPE   H9R16611   1.586   2.470   9.146 -2.5507  0.1672  2.7549
  150SAPE  C21016612   1.805   2.467   9.138 -0.2521  0.2773 -0.5616
  150SAPE  H10R16613   1.781   2.434   9.035 -0.9777  1.4743 -0.7975
  150SAPE  H10S16614   1.862   2.384   9.185 -2.9855 -2.0978 -1.1642
  150SAPE  C21116615   1.876   2.602   9.131  0.4521  0.3059  0.2413
  150SAPE  H11R16616   1.853   2.664   9.218 -1.8355  0.1331 -0.1731
  150SAPE  C21216617   1.906   2.667   9.015  0.2600 -0.5224 -0.2294
  150SAPE  H12R16618   1.952   2.767   9.012 -1.2296  0.1991 -0.0518
  150SAPE  C21316619   1.899   2.613   8.881  0.0076 -0.2889  0.1085
  150SAPE  H13R16620   1.833   2.680   8.821 -1.2915  0.7508  2.5601
  150SAPE  H13S16621   1.854   2.512   8.876  1.6840 -1.1313  1.2688
  150SAPE  C21416622   2.031   2.597   8.814  0.3302 -0.3659  0.1542
  150SAPE  H14R16623   2.085   2.516   8.865 -1.4164 -1.6068  0.1371
  150SAPE  C21516624   2.073   2.643   8.694  0.2825 -0.3596  0.4818
  150SAPE  H15R16625   2.171   2.609   8.657 -0.1792 -0.4910 -0.6707
  150SAPE  C21616626   2.000   2.742   8.597 -0.5220  0.6429 -0.8210
  150SAPE  H16R16627   2.066   2.779   8.515  1.6590 -0.9668  0.1022
  150SAPE  H16S16628   1.967   2.829   8.659 -0.6920 -1.3665  2.1206
  150SAPE  C21716629   1.875   2.702   8.520 -0.0740  1.5181  0.4524
  150SAPE  H17R16630   1.814   2.630   8.579  0.5327  1.8022  1.4615
  150SAPE  H17S16631   1.905   2.651   8.426 -0.0376 -1.1344  1.8151
  150SAPE  C21816632   1.794   2.823   8.494  0.3081 -0.2172  0.3147
  150SAPE  H18R16633   1.860   2.909   8.467 -0.4567  0.1368 -0.5040
  150SAPE  H18S16634   1.750   2.858   8.590 -0.2235  0.4443 -0.1546
  150SAPE  C21916635   1.674   2.812   8.401  0.5390  0.1352 -0.3774
  150SAPE  H19R16636   1.621   2.720   8.436 -1.4835  0.8811 -1.3076
  150SAPE  H19S16637   1.719   2.792   8.301  1.3714 -0.6883  0.1539
  150SAPE  C22016638   1.578   2.932   8.390  0.2169  0.7896 -0.2987
  150SAPE  H20R16639   1.649   3.015   8.367  0.4728  0.8294  0.6201
  150SAPE  H20S16640   1.503   2.952   8.470 -0.0470 -0.0151 -0.3386
  150SAPE  H20T16641   1.509   2.916   8.304 -0.5752  0.8865  0.3050
  150SAPE   C3316642   2.076   2.577   9.576 -0.5408 -0.0976  0.2697
  150SAPE   H3X16643   1.996   2.592   9.500  0.6996  0.8431 -0.8880
  150SAPE   H3Y16644   2.105   2.471   9.564  1.6800  0.4203  0.6352
  150SAPE   C3416645   2.187   2.675   9.545  0.2209 -1.0512  0.1390
  150SAPE   H4X16646   2.231   2.672   9.443 -0.5850 -0.0718 -0.2444
  150SAPE   H4Y16647   2.269   2.658   9.618 -1.6387 -2.2055  2.0836
  150SAPE   C3516648   2.135   2.821   9.550 -0.4701  0.4435 -0.3725
  150SAPE   H5X16649   2.218   2.892   9.530 -0.5929  1.1585  1.4680
  150SAPE   H5Y16650   2.105   2.844   9.655  0.3292 -2.8932  0.7092
  150SAPE   C3616651   2.020   2.848   9.449  0.2637 -0.0807 -0.4652
  150SAPE   H6X16652   1.917   2.811   9.468  0.3112  0.7039  1.5710
  150SAPE   H6Y16653   2.040   2.816   9.345  0.8855  1.5880 -0.8887
  150SAPE   C3716654   1.998   3.005   9.431 -0.0460  0.1255 -0.7296
  150SAPE   H7X16655   2.089   3.051   9.386 -0.7772 -0.5277 -3.0413
  150SAPE   H7Y16656   1.988   3.042   9.535  1.3588  0.6759 -0.7691
  150SAPE   C3816657   1.877   3.061   9.341 -0.4870 -0.2491  0.8816
  150SAPE   H8X16658   1.869   3.172   9.341 -0.8238 -0.2720  0.4917
  150SAPE   H8Y16659   1.784   3.018   9.385 -0.9760 -0.8366 -0.6630
  150SAPE   C3916660   1.897   3.017   9.197  0.0132  0.4514 -0.9189
  150SAPE   H9X16661   1.868   2.910   9.186  2.8863 -0.6107  0.8467
  150SAPE   H9Y16662   2.006   3.018   9.179  0.1663  2.7656 -0.2405
  150SAPE  C31016663   1.831   3.111   9.102 -0.0825 -0.0949  0.4266
  150SAPE  H10X16664   1.887   3.207   9.104  1.0784 -0.7519  0.8650
  150SAPE  H10Y16665   1.729   3.135   9.139  0.8317 -0.6420  3.6840
  150SAPE  C31116666   1.829   3.048   8.962 -0.0104 -0.6829 -0.0787
  150SAPE  H11X16667   1.765   3.110   8.896 -0.8015 -2.1370 -0.7178
  150SAPE  H11Y16668   1.779   2.949   8.971  0.9233 -1.1214  0.4201
  150SAPE  C31216669   1.969   3.036   8.903 -1.0973  0.1495 -0.8163
  150SAPE  H12X16670   1.956   2.979   8.808 -1.7935  3.1204 -2.6459
  150SAPE  H12Y16671   2.036   2.968   8.959 -0.9498 -0.2028 -1.4142
  150SAPE  C31316672   2.028   3.172   8.868 -0.3281 -0.8466 -0.6385
  150SAPE  H13X16673   2.066   3.211   8.965  1.1929 -0.1579 -1.4825
  150SAPE  H13Y16674   1.942   3.236   8.838  0.0770  0.7667  1.4075
  150SAPE  C31416675   2.141   3.167   8.758 -0.1268  0.3294  0.1309
  150SAPE  H14X16676   2.218   3.093   8.789  1.1471  1.3806 -0.4298
  150SAPE  H14Y16677   2.198   3.262   8.756  0.0923  0.1802 -1.0160
  150SAPE  C31516678   2.087   3.139   8.619  1.1682 -0.1868 -0.6217
  150SAPE  H15X16679   2.004   3.065   8.623 -0.8743  2.0606  1.5028
  150SAPE  H15Y16680   2.165   3.103   8.549  0.3811  0.8031 -2.0571
  150SAPE  C31616681   2.042   3.274   8.557 -0.0501  0.1509 -0.2072
  150SAPE  H16X16682   2.115   3.355   8.579  0.1374 -0.9926  4.3321
  150SAPE  H16Y16683   1.943   3.308   8.595 -0.2027  1.8388 -1.9344
  150SAPE  C31716684   1.997   3.250   8.407  0.1186 -0.5125 -0.0860
  150SAPE  H17X16685   1.905   3.188   8.403 -0.5482  0.4115  0.5288
  150SAPE  H17Y16686   2.087   3.206   8.359  1.1434  1.9919 -0.6624
  150SAPE  C31816687   1.963   3.382   8.331 -0.0769  0.1971 -0.3969
  150SAPE  H18X16688   2.025   3.459   8.381  1.5606 -1.1924 -0.2203
  150SAPE  H18Y16689   1.859   3.420   8.338 -0.6104 -1.0873 -1.0037
  150SAPE  H18Z16690   1.998   3.385   8.226  1.5450  2.4595  0.1376
  151SAPE     N16691   3.044   5.645  10.977  0.2663  0.0444 -0.0735
  151SAPE   HN116692   3.084   5.622  10.883 -0.6131  0.4319 -0.5526
  151SAPE   HN216693   3.010   5.743  10.969  1.4789  0.5114  0.2413
  151SAPE   HN316694   3.127   5.640  11.039  0.3609  0.8373 -0.1302
  151SAPE   C1216695   2.944   5.546  11.017  0.0368  0.3404  0.0014
  151SAPE  H12A16696   2.934   5.571  11.125  1.4394 -0.6100  0.3851
  151SAPE  H12B16697   2.975   5.440  11.005 -0.1555  0.4101 -1.2035
  151SAPE   C1116698   2.817   5.570  10.934  0.2647  0.3821 -0.5684
  151SAPE  H11A16699   2.794   5.678  10.922 -1.5382 -0.0877 -1.7564
  151SAPE  H11B16700   2.748   5.510  10.998 -0.7802 -0.1437 -2.1357
  151SAPE     P16701   2.765   5.553  10.678  0.3873 -0.0986 -0.1165
  151SAPE   O1316702   2.827   5.477  10.569  0.0103  0.9239 -0.4484
  151SAPE   O1416703   2.625   5.520  10.705  0.7600 -0.1240 -0.2230
  151SAPE   O1216704   2.838   5.509  10.807 -0.0947 -0.4259  0.2268
  151SAPE   O1116705   2.787   5.704  10.656  0.2812 -0.5657  0.3338
  151SAPE    C116706   2.912   5.746  10.605 -1.0497 -0.5180  0.3155
  151SAPE    HA16707   2.980   5.776  10.688  1.4670 -3.8006 -0.3287
  151SAPE    HB16708   2.967   5.670  10.545  0.0641 -0.3774  1.1267
  151SAPE    C216709   2.896   5.868  10.504 -0.2655  0.1255 -0.6371
  151SAPE    HS16710   2.823   5.931  10.559 -0.6633  0.9706 -2.0761
  151SAPE   O2116711   2.851   5.810  10.381  0.6178  0.0081  0.3010
  151SAPE   C2116712   2.784   5.890  10.303  0.4909  0.8813  0.0771
  151SAPE   O2216713   2.740   5.999  10.332 -0.2946 -0.6269  0.7020
  151SAPE   C2216714   2.771   5.829  10.161  0.6243 -0.3442  0.1699
  151SAPE   H2R16715   2.764   5.916  10.092 -1.6059 -1.7377 -1.4964
  151SAPE   H2S16716   2.861   5.771  10.135 -0.0523 -0.4105 -2.2124
  151SAPE    C316717   3.030   5.947  10.488  0.3730  0.7020 -0.0356
  151SAPE    HX16718   3.098   5.876  10.435 -1.4353 -0.3174 -1.1241
  151SAPE    HY16719   3.069   5.974  10.588  1.7450  0.7189 -0.5559
  151SAPE   O3116720   3.020   6.068  10.406 -0.1978 -0.1224  0.0504
  151SAPE   C3116721   2.980   6.176  10.467 -0.2129  0.2395 -0.2590
  151SAPE   O3216722   2.946   6.184  10.582  0.4027 -0.4349  0.1894
  151SAPE   C3216723   2.992   6.299  10.367 -0.0559 -0.0194 -0.0994
  151SAPE   H2X16724   3.096   6.286  10.331 -0.7519 -1.4220 -1.7566
  151SAPE   H2Y16725   2.985   6.399  10.415  0.6992 -0.9752  2.1060
  151SAPE   C2316726   2.666   5.720  10.151 -0.3405 -0.1287  0.0566
  151SAPE   H3R16727   2.564   5.743  10.188 -0.2769 -0.9309  0.7565
  151SAPE   H3S16728   2.698   5.637  10.218  2.3588 -0.0924 -1.0697
  151SAPE   C2416729   2.675   5.676   9.999 -0.1304  0.6123 -0.7134
  151SAPE   H4R16730   2.782   5.654   9.978 -0.0210  1.2432 -0.8303
  151SAPE   H4S16731   2.646   5.765   9.939  0.4329  2.0231  0.9868
  151SAPE   C2516732   2.589   5.557   9.966  0.1983 -0.4033 -0.3511
  151SAPE   H5R16733   2.585   5.492  10.054  1.0061  0.2720  0.1956
  151SAPE   C2616734   2.516   5.537   9.858 -0.0649  0.0754 -0.5683
  151SAPE   H6R16735   2.454   5.446   9.857 -0.1351  0.1088  0.2435
  151SAPE   C2716736   2.518   5.619   9.732  0.6310  0.2660  0.5413
  151SAPE   H7R16737   2.562   5.545   9.662 -2.3375 -0.7711 -0.3909
  151SAPE   H7S16738   2.587   5.705   9.735  0.7108  0.1698  2.2910
  151SAPE   C2816739   2.380   5.660   9.692 -0.0594 -0.0358  0.4542
  151SAPE   H8R16740   2.297   5.670   9.765 -1.8944  1.3964 -1.7115
  151SAPE   C2916741   2.331   5.686   9.572  0.1382 -0.0062 -0.8468
  151SAPE   H9R16742   2.226   5.716   9.571 -0.2381 -1.2237 -0.0343
  151SAPE  C21016743   2.411   5.686   9.445 -0.1963  0.0208  0.2496
  151SAPE  H10R16744   2.515   5.719   9.468  0.3458 -0.5557 -1.2334
  151SAPE  H10S16745   2.383   5.774   9.384  0.3111  1.3150  1.8434
  151SAPE  C21116746   2.415   5.567   9.356  0.7512 -0.0653  0.1429
  151SAPE  H11R16747   2.485   5.487   9.384  1.1586  0.1659 -0.1863
  151SAPE  C21216748   2.349   5.541   9.243 -0.5880 -0.4071  1.1442
  151SAPE  H12R16749   2.374   5.445   9.194  1.8202  0.2738  0.9429
  151SAPE  C21316750   2.264   5.645   9.168 -0.3661  0.2325 -0.9208
  151SAPE  H13R16751   2.241   5.732   9.234  1.3709  1.1553 -1.4760
  151SAPE  H13S16752   2.178   5.592   9.123  0.3822 -0.7981 -1.1628
  151SAPE  C21416753   2.354   5.681   9.055  0.1801  0.1509 -0.1247
  151SAPE  H14R16754   2.458   5.699   9.085  0.8886 -1.3241 -1.5999
  151SAPE  C21516755   2.313   5.686   8.926 -0.4364 -0.0981  0.3384
  151SAPE  H15R16756   2.386   5.726   8.854  0.8266 -0.7651  1.1955
  151SAPE  C21616757   2.173   5.653   8.876 -0.2231  0.4644 -0.5967
  151SAPE  H16R16758   2.147   5.710   8.784 -0.9297  0.2496 -0.5334
  151SAPE  H16S16759   2.104   5.693   8.953  2.0277  1.0503  1.2516
  151SAPE  C21716760   2.154   5.503   8.853  0.4678 -0.0524  0.3362
  151SAPE  H17R16761   2.185   5.454   8.947  0.5475 -2.3492 -0.8081
  151SAPE  H17S16762   2.218   5.469   8.769 -1.7112  0.1738 -1.5135
  151SAPE  C21816763   2.001   5.485   8.823 -0.5260 -0.7530  0.0947
  151SAPE  H18R16764   1.967   5.552   8.741  2.2494 -1.4301 -1.7448
  151SAPE  H18S16765   1.948   5.530   8.910  0.2908 -1.0721  0.7710
  151SAPE  C21916766   1.969   5.336   8.801  0.1827  0.2424  0.0659
  151SAPE  H19R16767   2.009   5.274   8.885  2.3794 -2.7078 -2.9170
  151SAPE  H19S16768   2.030   5.311   8.712  1.4006  2.2240  0.2783
  151SAPE  C22016769   1.824   5.309   8.797 -0.1338  0.2423  0.3657
  151SAPE  H20R16770   1.777   5.383   8.729  0.1616 -0.1479 -0.2825
  151SAPE  H20S16771   1.779   5.318   8.898  0.1048 -2.2643  0.7618
  151SAPE  H20T16772   1.792   5.213   8.751  0.4481  0.1990  0.0380
  151SAPE   C3316773   2.891   6.289  10.247 -1.2485 -0.1740 -0.9498
  151SAPE   H3X16774   2.788   6.311  10.280 -0.8500  0.2580  0.0471
  151SAPE   H3Y16775   2.889   6.184  10.212 -2.2342  0.0927 -1.7624
  151SAPE   C3416776   2.932   6.375  10.130  0.2819 -0.3039 -1.0013
  151SAPE   H4X16777   3.028   6.329  10.098  0.1128 -0.4452 -1.3167
  151SAPE   H4Y16778   2.955   6.478  10.164 -0.9494 -0.2880 -0.1510
  151SAPE   C3516779   2.828   6.369  10.017 -0.1801  0.5191 -0.6208
  151SAPE   H5X16780   2.739   6.422  10.059  0.1818  0.0523  0.7867
  151SAPE   H5Y16781   2.799   6.267   9.983 -0.9279  0.0285  1.3608
  151SAPE   C3616782   2.882   6.438   9.890  0.6544 -0.0912 -0.3233
  151SAPE   H6X16783   2.966   6.378   9.851 -0.7662 -1.4710 -1.3729
  151SAPE   H6Y16784   2.915   6.541   9.915  0.0261 -0.0461  0.3773
  151SAPE   C3716785   2.771   6.459   9.786  0.2790 -0.2677 -0.1670
  151SAPE   H7X16786   2.687   6.525   9.816 -2.2644 -3.1360 -0.4879
  151SAPE   H7Y16787   2.727   6.357   9.785  3.0606 -1.5898  0.7089
  151SAPE   C3816788   2.830   6.478   9.647  0.5082  0.2608  0.4405
  151SAPE   H8X16789   2.938   6.493   9.668  0.3594 -1.3850  2.8405
  151SAPE   H8Y16790   2.802   6.575   9.599 -0.1237  0.6113  1.4675
  151SAPE   C3916791   2.796   6.371   9.540  0.0427  0.0546 -0.8432
  151SAPE   H9X16792   2.688   6.383   9.513 -1.0443 -4.3463  0.7425
  151SAPE   H9Y16793   2.797   6.273   9.591 -0.6750 -0.2748 -1.4311
  151SAPE  C31016794   2.890   6.367   9.422  0.0580 -0.8335  0.1761
  151SAPE  H10X16795   2.860   6.288   9.349 -0.7649 -0.2504 -0.1270
  151SAPE  H10Y16796   2.990   6.326   9.448  0.5319 -1.2231 -2.0574
  151SAPE  C31116797   2.899   6.500   9.340  0.3960 -0.8653  0.3154
  151SAPE  H11X16798   2.975   6.493   9.259 -2.1074  0.1265 -2.3061
  151SAPE  H11Y16799   2.941   6.578   9.406  2.1882  0.2134 -1.9522
  151SAPE  C31216800   2.767   6.555   9.267 -0.2187 -0.3130 -0.5938
  151SAPE  H12X16801   2.795   6.655   9.227  1.6194  0.1755  1.6602
  151SAPE  H12Y16802   2.690   6.570   9.347  0.1545 -2.9656  0.3497
  151SAPE  C31316803   2.708   6.451   9.169 -0.1990  0.2176  0.3726
  151SAPE  H13X16804   2.614   6.494   9.127 -0.2189  0.0558  0.2487
  151SAPE  H13Y16805   2.689   6.356   9.224 -0.3658 -0.3997 -0.7256
  151SAPE  C31416806   2.799   6.422   9.042  0.3709  0.2304  0.0818
  151SAPE  H14X16807   2.897   6.393   9.086 -0.6488 -0.3490  2.0850
  151SAPE  H14Y16808   2.826   6.519   8.995  0.6661  1.8235  3.2738
  151SAPE  C31516809   2.736   6.330   8.938  0.1849 -1.0063  0.4777
  151SAPE  H15X16810   2.737   6.226   8.976 -0.2262 -1.7178 -1.3378
  151SAPE  H15Y16811   2.799   6.327   8.846  1.2109 -1.1458  1.1713
  151SAPE  C31616812   2.600   6.375   8.897 -0.2316  0.0662  0.3180
  151SAPE  H16X16813   2.603   6.482   8.865 -0.4598 -0.2410 -0.7661
  151SAPE  H16Y16814   2.525   6.370   8.979  0.0599  2.6498  0.8329
  151SAPE  C31716815   2.547   6.298   8.775 -0.1745  0.1422 -0.1729
  151SAPE  H17X16816   2.601   6.319   8.681  0.8069  0.4187  0.4417
  151SAPE  H17Y16817   2.443   6.334   8.761 -0.7956 -1.3183  0.4405
  151SAPE  C31816818   2.540   6.150   8.800  0.0613 -0.1079  0.0205
  151SAPE  H18X16819   2.635   6.093   8.800 -1.1000 -2.1767  0.2241
  151SAPE  H18Y16820   2.467   6.101   8.731 -0.8236  1.0609  0.0852
  151SAPE  H18Z16821   2.507   6.113   8.899  0.0172 -0.2944 -0.0617
  152SAPE     N16822   4.188   4.211  10.063 -0.7525 -0.2278  0.0377
  152SAPE   HN116823   4.227   4.300  10.100 -2.5994 -0.0233  1.6622
  152SAPE   HN216824   4.097   4.220  10.014 -0.0917 -0.5219 -1.3057
  152SAPE   HN316825   4.175   4.157  10.151 -2.8537 -0.6339 -0.4518
  152SAPE   C1216826   4.291   4.142   9.983 -0.6953  0.2827  0.2989
  152SAPE  H12A16827   4.376   4.123  10.053 -0.5876 -1.2102 -0.1981
  152SAPE  H12B16828   4.325   4.208   9.901 -1.6809 -0.5213 -0.8019
  152SAPE   C1116829   4.247   4.012   9.914  0.3042  0.4274 -0.0035
  152SAPE  H11A16830   4.320   3.970   9.842  1.3761  1.3445  0.5058
  152SAPE  H11B16831   4.161   4.032   9.847  0.3613  0.6139 -0.0213
  152SAPE     P16832   4.319   3.818  10.082 -0.1074  0.2476  0.3654
  152SAPE   O1316833   4.456   3.849  10.045 -0.3918  0.0811  0.5181
  152SAPE   O1416834   4.285   3.836  10.227  0.0494 -0.5517 -0.6266
  152SAPE   O1216835   4.210   3.909  10.010  0.5282  0.3841 -0.1409
  152SAPE   O1116836   4.283   3.670  10.041  0.4429  0.2808  0.0878
  152SAPE    C116837   4.274   3.637   9.900 -0.4212 -0.9018 -0.4601
  152SAPE    HA16838   4.171   3.599   9.879 -1.3486  2.1647 -2.1878
  152SAPE    HB16839   4.289   3.726   9.834 -1.7467 -0.6347 -0.4456
  152SAPE    C216840   4.365   3.522   9.868  0.5516  0.2818  0.0067
  152SAPE    HS16841   4.350   3.448   9.949 -1.2760  1.0837  0.4448
  152SAPE   O2116842   4.501   3.568   9.863 -0.5010 -0.2408 -0.3262
  152SAPE   C2116843   4.588   3.479   9.911  0.2119  0.4330  0.5020
  152SAPE   O2216844   4.566   3.368   9.957  0.4085 -0.1990 -0.1733
  152SAPE   C2216845   4.727   3.526   9.877 -0.3807 -0.3825 -0.0388
  152SAPE   H2R16846   4.717   3.621   9.819 -0.4687 -0.1004  0.4354
  152SAPE   H2S16847   4.776   3.557   9.971  1.8955 -0.5553 -1.1136
  152SAPE    C316848   4.340   3.472   9.727  0.2193 -0.1155  0.3871
  152SAPE    HX16849   4.363   3.560   9.663 -0.4487  1.2215  1.8950
  152SAPE    HY16850   4.235   3.439   9.712 -0.2967 -0.2137  3.4980
  152SAPE   O3116851   4.427   3.364   9.688 -0.1790 -0.2465 -0.9350
  152SAPE   C3116852   4.369   3.248   9.669  0.5445 -0.2704  0.0086
  152SAPE   O3216853   4.255   3.208   9.700 -0.1055  0.0792 -0.9577
  152SAPE   C3216854   4.467   3.158   9.590 -0.4809 -0.3849  0.1669
  152SAPE   H2X16855   4.548   3.132   9.661  1.9782 -0.9607 -2.6247
  152SAPE   H2Y16856   4.524   3.221   9.518 -1.8219  0.6114 -0.0686
  152SAPE   C2316857   4.815   3.430   9.800 -0.5928  0.7653 -0.4695
  152SAPE   H3R16858   4.812   3.327   9.842  2.1018  0.5802 -0.5188
  152SAPE   H3S16859   4.918   3.471   9.811 -0.6781  0.9502 -0.3498
  152SAPE   C2416860   4.774   3.413   9.650  0.3380 -0.4435  0.0080
  152SAPE   H4R16861   4.673   3.371   9.668  0.2998 -1.1528 -1.6588
  152SAPE   H4S16862   4.836   3.331   9.606  0.0883 -0.0981 -0.9893
  152SAPE   C2516863   4.766   3.527   9.552  0.0720  0.6922  0.4452
  152SAPE   H5R16864   4.738   3.624   9.595  0.9512  0.9313  0.4932
  152SAPE   C2616865   4.806   3.519   9.422 -0.2058 -0.2951  0.2772
  152SAPE   H6R16866   4.785   3.597   9.347 -0.6414 -1.9052 -1.3317
  152SAPE   C2716867   4.852   3.395   9.351 -0.0318 -0.6436  0.0744
  152SAPE   H7R16868   4.845   3.314   9.428  1.1887  1.6650  2.8048
  152SAPE   H7S16869   4.960   3.398   9.325  0.2157  0.8899  1.1639
  152SAPE   C2816870   4.771   3.359   9.236  0.2494 -0.3019  0.0519
  152SAPE   H8R16871   4.675   3.310   9.262 -0.7613  0.8940 -1.2781
  152SAPE   C2916872   4.807   3.366   9.107  0.0474  0.4303 -0.0236
  152SAPE   H9R16873   4.734   3.322   9.037  0.5166  1.1686 -0.9917
  152SAPE  C21016874   4.934   3.412   9.043  0.1739  0.3936 -0.0520
  152SAPE  H10R16875   4.925   3.401   8.933  1.5998 -0.9800 -0.0656
  152SAPE  H10S16876   5.014   3.347   9.084  0.2894  0.6406  0.1169
  152SAPE  C21116877   4.975   3.555   9.071  0.4391  0.4931 -0.7552
  152SAPE  H11R16878   4.954   3.588   9.174 -0.8296 -1.3366 -0.3794
  152SAPE  C21216879   5.014   3.655   8.991  0.0821  0.0232 -0.8532
  152SAPE  H12R16880   5.043   3.754   9.027  2.5301  0.3672 -3.4422
  152SAPE  C21316881   5.034   3.634   8.844 -0.4978  1.0305  0.5012
  152SAPE  H13R16882   5.047   3.524   8.831 -1.1497  1.1272 -1.1950
  152SAPE  H13S16883   5.132   3.663   8.801 -0.8651  0.1890 -0.9836
  152SAPE  C21416884   4.915   3.679   8.763  0.1743  0.4961  0.5953
  152SAPE  H14R16885   4.822   3.708   8.814 -1.5574  0.0074 -2.0900
  152SAPE  C21516886   4.905   3.670   8.630  0.1299  0.1537 -0.1435
  152SAPE  H15R16887   4.813   3.712   8.585 -0.4171 -2.7154 -1.9652
  152SAPE  C21616888   5.010   3.629   8.533  0.3505  0.5831 -0.7588
  152SAPE  H16R16889   5.075   3.553   8.580 -1.0865  0.4781  1.1638
  152SAPE  H16S16890   5.085   3.708   8.509  0.9697  0.5932  1.0579
  152SAPE  C21716891   4.961   3.571   8.402  0.6489  0.8129  0.1612
  152SAPE  H17R16892   5.059   3.548   8.354  0.3737  0.2669 -0.1528
  152SAPE  H17S16893   4.909   3.650   8.343 -1.6446 -1.1230 -0.6101
  152SAPE  C21816894   4.878   3.437   8.412  0.1814  0.1110 -0.0400
  152SAPE  H18R16895   4.864   3.400   8.309  2.2386  0.0569 -0.3313
  152SAPE  H18S16896   4.782   3.461   8.464  0.5410  0.5131  0.4508
  152SAPE  C21916897   4.942   3.317   8.493 -0.2540  0.4027  0.5849
  152SAPE  H19R16898   5.044   3.329   8.535  0.1231 -0.0116 -0.2030
  152SAPE  H19S16899   4.955   3.227   8.430  1.6125  1.5125 -0.7098
  152SAPE  C22016900   4.849   3.280   8.614  0.3672  0.2778 -0.1587
  152SAPE  H20R16901   4.889   3.193   8.671 -0.8204  0.0584  0.3649
  152SAPE  H20S16902   4.749   3.253   8.575  0.2731  0.4777 -0.0604
  152SAPE  H20T16903   4.848   3.375   8.672  1.0415  1.9632 -2.7600
  152SAPE   C3316904   4.396   3.033   9.537 -0.0418  1.1281 -0.2352
  152SAPE   H3X16905   4.306   3.062   9.479 -0.0340 -1.2045 -1.5262
  152SAPE   H3Y16906   4.355   2.970   9.619  1.1173 -1.9748 -1.8819
  152SAPE   C3416907   4.486   2.954   9.447 -0.3254 -0.0506  0.6776
  152SAPE   H4X16908   4.443   2.851   9.438 -0.3789  0.0021  0.3114
  152SAPE   H4Y16909   4.584   2.944   9.497  0.1685  1.2253 -0.0005
  152SAPE   C3516910   4.494   3.026   9.307 -0.3898 -0.9167  0.3101
  152SAPE   H5X16911   4.543   3.125   9.318 -1.0530 -0.5716  0.2258
  152SAPE   H5Y16912   4.390   3.038   9.270 -0.0302 -0.3665 -0.5538
  152SAPE   C3616913   4.560   2.937   9.201 -0.3302 -0.1048  1.4233
  152SAPE   H6X16914   4.506   2.840   9.208 -0.2405 -0.3235 -0.4759
  152SAPE   H6Y16915   4.666   2.919   9.230 -0.4149 -1.9262  0.7483
  152SAPE   C3716916   4.540   2.985   9.055 -0.3837  0.3009  0.3661
  152SAPE   H7X16917   4.591   3.082   9.039 -0.5964  0.3256 -0.1738
  152SAPE   H7Y16918   4.434   2.978   9.025 -0.4260 -0.1243  0.6020
  152SAPE   C3816919   4.616   2.895   8.949 -0.3716 -0.3840  0.5710
  152SAPE   H8X16920   4.584   2.789   8.947 -0.7748 -0.2880 -1.9604
  152SAPE   H8Y16921   4.719   2.883   8.989 -0.0746 -0.4677 -0.2093
  152SAPE   C3916922   4.629   2.971   8.814 -0.3173 -0.5776 -0.5771
  152SAPE   H9X16923   4.707   3.048   8.829 -1.5895  0.9161 -1.2593
  152SAPE   H9Y16924   4.532   3.019   8.788 -0.1690 -0.1345 -0.3203
  152SAPE  C31016925   4.661   2.875   8.698 -0.3880 -0.5073  0.1509
  152SAPE  H10X16926   4.606   2.779   8.685 -0.5443 -0.3159 -0.6784
  152SAPE  H10Y16927   4.766   2.839   8.712 -0.0050 -0.0644 -1.3544
  152SAPE  C31116928   4.623   2.946   8.558 -0.2034  0.5137 -0.9905
  152SAPE  H11X16929   4.686   3.035   8.536 -1.7039  1.0917 -3.1636
  152SAPE  H11Y16930   4.522   2.979   8.587  0.7726  2.8736 -0.0252
  152SAPE  C31216931   4.629   2.872   8.425 -0.0172  0.4120  0.5537
  152SAPE  H12X16932   4.734   2.838   8.413  0.6464  1.5557  2.6693
  152SAPE  H12Y16933   4.599   2.940   8.342 -0.8984 -2.3341 -1.5129
  152SAPE  C31316934   4.526   2.751   8.401 -0.3286  0.2463  0.0320
  152SAPE  H13X16935   4.419   2.780   8.411 -1.5210 -2.7476 -2.3815
  152SAPE  H13Y16936   4.556   2.684   8.485  1.4134 -0.2887 -0.9580
  152SAPE  C31416937   4.531   2.691   8.254 -0.0391 -0.5788 -0.8726
  152SAPE  H14X16938   4.640   2.668   8.247  0.3310  1.4034 -2.7775
  152SAPE  H14Y16939   4.506   2.767   8.177 -0.1991  0.5924  0.3001
  152SAPE  C31516940   4.435   2.572   8.240 -0.3946 -0.5038  0.1728
  152SAPE  H15X16941   4.337   2.586   8.291 -0.0584 -2.7006  1.5531
  152SAPE  H15Y16942   4.496   2.486   8.274  3.0820  1.8763  0.4806
  152SAPE  C31616943   4.400   2.557   8.091 -0.0422  0.0859  0.5876
  152SAPE  H16X16944   4.349   2.650   8.058 -0.6410 -0.8440 -1.2691
  152SAPE  H16Y16945   4.325   2.475   8.084 -1.5705  1.3482  1.4331
  152SAPE  C31716946   4.514   2.518   7.985  0.0889  0.4676 -1.2274
  152SAPE  H17X16947   4.565   2.427   8.024 -0.2447  0.8129  0.0729
  152SAPE  H17Y16948   4.595   2.595   7.985  0.4119  0.1518 -0.1776
  152SAPE  C31816949   4.468   2.498   7.845  0.4839 -0.1165 -0.4875
  152SAPE  H18X16950   4.394   2.415   7.844  1.8415 -1.4616  1.3158
  152SAPE  H18Y16951   4.555   2.483   7.776  0.5754  2.9837 -1.1583
  152SAPE  H18Z16952   4.416   2.590   7.812 -0.4619 -0.6698 -0.5851
  153SAPE     N16953   4.224   0.065  10.828  0.7584  0.3456 -0.1124
  153SAPE   HN116954   4.320   0.098  10.849  1.6291 -2.5225  0.7726
  153SAPE   HN216955   4.236  -0.028  10.784 -2.0019  0.9636 -2.4965
  153SAPE   HN316956   4.174   0.117  10.753 -0.5749  1.7141  1.6463
  153SAPE   C1216957   4.148   0.064  10.955  0.5607  1.1625  0.1837
  153SAPE  H12A16958   4.182   0.156  11.008 -1.6470  1.2368  1.6017
  153SAPE  H12B16959   4.167  -0.027  11.016 -1.6893  1.4055  1.3781
  153SAPE   C1116960   4.001   0.086  10.934  0.2855 -0.2221 -0.0021
  153SAPE  H11A16961   3.962   0.082  11.038  0.2431  0.4388  0.0065
  153SAPE  H11B16962   3.957  -0.001  10.880 -1.1608 -0.1034  0.9258
  153SAPE     P16963   3.853   0.307  10.893  0.3348 -0.2668  0.1752
  153SAPE   O1316964   3.794   0.311  11.029 -0.3320  0.2300 -0.1289
  153SAPE   O1416965   3.901   0.437  10.846 -0.2617  0.0276  0.1026
  153SAPE   O1216966   3.968   0.210  10.877  0.2469  0.0998  0.2770
  153SAPE   O1116967   3.746   0.259  10.790 -0.2958 -0.0457 -0.1854
  153SAPE    C116968   3.791   0.204  10.663 -0.0555  0.2223  0.2163
  153SAPE    HA16969   3.896   0.225  10.634 -0.5627 -1.0573 -2.9013
  153SAPE    HB16970   3.781   0.094  10.667 -0.0057  0.1955 -0.2698
  153SAPE    C216971   3.708   0.257  10.537  0.1130  0.3980 -0.2953
  153SAPE    HS16972   3.611   0.204  10.536  0.3469 -0.1002  1.0407
  153SAPE   O2116973   3.783   0.251  10.421  0.2176 -0.2069 -0.4288
  153SAPE   C2116974   3.793   0.128  10.367 -0.8655  0.0616 -0.4133
  153SAPE   O2216975   3.725   0.030  10.399 -0.4496 -0.2622  0.6588
  153SAPE   C2216976   3.889   0.145  10.246  0.3260 -0.3350 -0.0560
  153SAPE   H2R16977   3.846   0.228  10.186  1.5216 -0.4974 -1.1872
  153SAPE   H2S16978   3.991   0.168  10.285  0.0461  0.6437  0.1150
  153SAPE    C316979   3.675   0.407  10.552  0.6631 -0.2207  0.7244
  153SAPE    HX16980   3.764   0.455  10.598  2.2017 -0.4163 -1.9079
  153SAPE    HY16981   3.594   0.423  10.627 -1.9074 -1.7895 -1.5276
  153SAPE   O3116982   3.621   0.468  10.434  0.2094 -0.1808  1.1638
  153SAPE   C3116983   3.696   0.554  10.373  0.7177  1.0376  1.0750
  153SAPE   O3216984   3.805   0.577  10.416  0.1737 -0.3258  0.4208
  153SAPE   C3216985   3.633   0.616  10.255  0.2122 -0.1984  0.0617
  153SAPE   H2X16986   3.657   0.725  10.257  1.4950 -0.4606 -0.0024
  153SAPE   H2Y16987   3.522   0.613  10.250  0.2815 -0.7933 -2.3538
  153SAPE   C2316988   3.884   0.018  10.159  0.3419  0.2724  0.0364
  153SAPE   H3R16989   3.783  -0.018  10.130 -0.9821  1.8271  2.4261
  153SAPE   H3S16990   3.922  -0.067  10.221  1.4694 -0.2545 -1.3171
  153SAPE   C2416991   3.964   0.029  10.028 -0.1367 -0.4296  0.2051
  153SAPE   H4R16992   4.067   0.053  10.062  0.0299 -1.2121  0.2686
  153SAPE   H4S16993   3.926   0.112   9.964  3.0355  0.7722 -0.3541
  153SAPE   C2516994   3.981  -0.095   9.944  0.7259  0.8563  0.5331
  153SAPE   H5R16995   4.070  -0.155   9.967  0.8746  0.7714 -0.2316
  153SAPE   C2616996   3.896  -0.148   9.850  0.5303 -0.3036  0.2436
  153SAPE   H6R16997   3.923  -0.234   9.787  0.7881  1.0862 -1.5902
  153SAPE   C2716998   3.772  -0.080   9.796  0.5105 -0.0948 -0.6432
  153SAPE   H7R16999   3.788   0.027   9.767 -1.9592  0.2912 -0.7535
  153SAPE   H7S17000   3.703  -0.075   9.883  1.7171 -0.2906  0.3517
  153SAPE   C2817001   3.696  -0.150   9.697 -0.0687  0.4248  0.4312
  153SAPE   H8R17002   3.632  -0.228   9.742 -1.2514  1.4192  0.5461
  153SAPE   C2917003   3.696  -0.133   9.565  0.0361  0.1882 -0.0814
  153SAPE   H9R17004   3.634  -0.199   9.503 -0.1625  0.7741 -0.5261
  153SAPE  C21017005   3.759  -0.027   9.479  0.2110  0.1316 -0.7795
  153SAPE  H10R17006   3.810   0.045   9.547  2.2907 -1.0266 -0.9991
  153SAPE  H10S17007   3.678   0.022   9.421  1.5339  0.9369 -2.0192
  153SAPE  C21117008   3.849  -0.083   9.374 -0.3593  0.1265 -0.0378
  153SAPE  H11R17009   3.950  -0.063   9.413 -1.4415  1.7467  2.2348
  153SAPE  C21217010   3.813  -0.110   9.247 -0.2137 -0.2187  1.2723
  153SAPE  H12R17011   3.891  -0.142   9.176  0.1138 -1.1517  2.0264
  153SAPE  C21317012   3.676  -0.118   9.191  0.1224  0.4895 -0.0887
  153SAPE  H13R17013   3.666  -0.033   9.119 -2.2041  0.9436  0.6943
  153SAPE  H13S17014   3.592  -0.110   9.263 -0.8634 -1.8493 -0.8762
  153SAPE  C21417015   3.633  -0.244   9.122  0.3813 -0.6274 -0.6036
  153SAPE  H14R17016   3.580  -0.323   9.177  1.4503 -3.2949 -3.1081
  153SAPE  C21517017   3.657  -0.274   8.996 -0.3092  0.0810  0.7760
  153SAPE  H15R17018   3.626  -0.369   8.950 -0.6544  0.8235 -0.6107
  153SAPE  C21617019   3.742  -0.196   8.900 -0.1102 -0.2496 -0.3006
  153SAPE  H16R17020   3.809  -0.265   8.844 -1.0782 -0.2454 -1.5052
  153SAPE  H16S17021   3.804  -0.115   8.943  0.7774 -0.3570 -1.3494
  153SAPE  C21717022   3.662  -0.141   8.777 -0.1475 -0.5243  0.5753
  153SAPE  H17R17023   3.742  -0.110   8.706  0.1521  1.2511  1.6086
  153SAPE  H17S17024   3.617  -0.047   8.816  0.6770  0.6403 -1.1757
  153SAPE  C21817025   3.553  -0.236   8.711 -0.1231  0.4316  0.2112
  153SAPE  H18R17026   3.483  -0.187   8.640 -0.6061  0.7078  0.8651
  153SAPE  H18S17027   3.485  -0.272   8.791 -1.0637  2.2744  0.2679
  153SAPE  C21917028   3.614  -0.354   8.633  0.6212 -0.1662 -0.3287
  153SAPE  H19R17029   3.704  -0.391   8.686  0.4709  0.1410  0.1493
  153SAPE  H19S17030   3.639  -0.326   8.529 -2.0703  2.3336 -0.4178
  153SAPE  C22017031   3.515  -0.475   8.636 -0.1096  0.0726  0.2010
  153SAPE  H20R17032   3.486  -0.507   8.738 -1.4143  0.2341 -0.1056
  153SAPE  H20S17033   3.561  -0.564   8.589 -0.7607  0.2678 -0.8220
  153SAPE  H20T17034   3.415  -0.456   8.592 -0.9273 -2.7082  0.6988
  153SAPE   C3317035   3.688   0.547  10.133  0.6795  0.0992  0.4743
  153SAPE   H3X17036   3.793   0.516  10.149  0.7124 -0.2192 -0.3106
  153SAPE   H3Y17037   3.681   0.613  10.044  0.9087  0.0706  0.4342
  153SAPE   C3417038   3.601   0.419  10.105 -0.6197  0.6934 -0.4042
  153SAPE   H4X17039   3.492   0.442  10.113 -0.9200 -0.9427  0.7613
  153SAPE   H4Y17040   3.638   0.348  10.182  0.6884  0.0433 -1.5829
  153SAPE   C3517041   3.647   0.354   9.978  0.0827  0.0636  0.2280
  153SAPE   H5X17042   3.616   0.248   9.989 -1.7869  0.7864  3.4080
  153SAPE   H5Y17043   3.758   0.355   9.969  0.1054 -0.9321  0.2081
  153SAPE   C3617044   3.581   0.409   9.850  0.2894  0.0502  0.5357
  153SAPE   H6X17045   3.569   0.518   9.837  0.4593 -0.1340 -1.5694
  153SAPE   H6Y17046   3.479   0.364   9.848  1.1156 -1.9299  0.0320
  153SAPE   C3717047   3.641   0.371   9.719 -0.2830  0.8035 -0.1135
  153SAPE   H7X17048   3.673   0.265   9.714  0.5496  1.0987 -1.3336
  153SAPE   H7Y17049   3.737   0.424   9.707 -0.5610  1.1244 -0.9629
  153SAPE   C3817050   3.546   0.389   9.597 -0.1509  0.6240  0.3550
  153SAPE   H8X17051   3.536   0.499   9.586 -0.6259  0.3904 -2.2496
  153SAPE   H8Y17052   3.447   0.339   9.609  0.1854 -0.8077 -2.0154
  153SAPE   C3917053   3.603   0.342   9.463  0.2473 -0.0814  0.5957
  153SAPE   H9X17054   3.590   0.232   9.466 -0.2898 -0.1389 -1.9229
  153SAPE   H9Y17055   3.709   0.374   9.456 -0.1740  1.2245 -0.2414
  153SAPE  C31017056   3.537   0.410   9.339  0.1227  0.7653 -0.6990
  153SAPE  H10X17057   3.549   0.519   9.350  0.2895  0.7331 -0.5677
  153SAPE  H10Y17058   3.429   0.386   9.326  0.3287  0.7294 -2.7172
  153SAPE  C31117059   3.615   0.368   9.209  0.2763 -0.3400 -0.2472
  153SAPE  H11X17060   3.625   0.259   9.196  0.4007 -0.1803 -1.6108
  153SAPE  H11Y17061   3.713   0.413   9.235 -0.2326  0.0422  1.1203
  153SAPE  C31217062   3.572   0.445   9.081  0.0723 -0.5738 -0.5243
  153SAPE  H12X17063   3.591   0.553   9.098 -0.1073 -0.3758 -1.5015
  153SAPE  H12Y17064   3.462   0.443   9.063 -0.0351 -0.3042  0.0907
  153SAPE  C31317065   3.652   0.396   8.968 -0.5131  0.1048  0.2584
  153SAPE  H13X17066   3.650   0.285   8.971 -0.7754  0.1093  0.3419
  153SAPE  H13Y17067   3.756   0.426   8.992  0.1534 -0.9537 -1.1690
  153SAPE  C31417068   3.622   0.456   8.837 -0.2641 -0.0205  1.0295
  153SAPE  H14X17069   3.513   0.439   8.828 -0.2399 -0.8151  2.0266
  153SAPE  H14Y17070   3.682   0.402   8.760  2.1905  3.3360  0.3932
  153SAPE  C31517071   3.652   0.601   8.812 -0.0596  0.1385 -0.0950
  153SAPE  H15X17072   3.743   0.625   8.872 -0.0366 -3.0589  1.3618
  153SAPE  H15Y17073   3.571   0.667   8.849 -0.6628  0.5951 -2.1074
  153SAPE  C31617074   3.673   0.631   8.671 -0.0819  0.0526  0.7219
  153SAPE  H16X17075   3.586   0.592   8.613 -0.8803  1.6880  0.7483
  153SAPE  H16Y17076   3.765   0.585   8.629 -0.9928 -0.7247 -0.4757
  153SAPE  C31717077   3.684   0.782   8.644  0.0684 -0.0782  0.0759
  153SAPE  H17X17078   3.775   0.821   8.694 -0.5972 -1.1345  2.2297
  153SAPE  H17Y17079   3.608   0.833   8.706 -1.0388  1.4624 -2.3885
  153SAPE  C31817080   3.667   0.822   8.497 -0.0486 -0.5692  0.2319
  153SAPE  H18X17081   3.742   0.781   8.427  2.4524  2.3938  0.9474
  153SAPE  H18Y17082   3.663   0.932   8.485 -1.7982 -0.5871  0.3755
  153SAPE  H18Z17083   3.575   0.778   8.453 -0.1857  1.3587 -1.5865
  154SAPE     N17084   5.256   5.791  10.297 -0.4016 -1.0838 -0.2347
  154SAPE   HN117085   5.260   5.895  10.293  0.7958 -1.0889  0.2708
  154SAPE   HN217086   5.256   5.767  10.398 -3.3534 -1.1587 -0.1879
  154SAPE   HN317087   5.341   5.745  10.258  1.3849  1.4544  0.3797
  154SAPE   C1217088   5.135   5.727  10.234 -1.1112 -0.6122  0.6916
  154SAPE  H12A17089   5.145   5.618  10.251  2.3769 -0.5497 -0.2679
  154SAPE  H12B17090   5.141   5.749  10.125  2.5127 -1.5823  0.5756
  154SAPE   C1117091   5.004   5.769  10.302 -0.1426  0.0600  0.0641
  154SAPE  H11A17092   4.928   5.712  10.245  1.3112 -2.4594  0.4802
  154SAPE  H11B17093   4.975   5.876  10.287  0.1903  0.3878  1.5727
  154SAPE     P17094   4.890   5.691  10.521  0.5809  0.0571  0.0637
  154SAPE   O1317095   4.910   5.549  10.547  0.3556  0.4170 -0.3648
  154SAPE   O1417096   4.873   5.783  10.631 -0.3335 -0.6027 -0.4666
  154SAPE   O1217097   5.018   5.744  10.441  0.4112  0.3216 -0.0956
  154SAPE   O1117098   4.776   5.711  10.416 -0.2492  0.0814  0.8316
  154SAPE    C117099   4.706   5.831  10.428 -0.5837  0.2743  0.2175
  154SAPE    HA17100   4.660   5.845  10.529  0.3597  1.0155  0.5617
  154SAPE    HB17101   4.773   5.918  10.411 -2.2203  1.9206  1.7257
  154SAPE    C217102   4.593   5.841  10.323 -0.5334  0.0559 -0.2077
  154SAPE    HS17103   4.514   5.766  10.347 -0.1458  0.1550  1.5201
  154SAPE   O2117104   4.647   5.835  10.190 -0.6574 -0.0575 -0.0771
  154SAPE   C2117105   4.650   5.702  10.152  0.2742  0.4282 -0.2812
  154SAPE   O2217106   4.613   5.610  10.221 -0.8727 -0.5357  0.2372
  154SAPE   C2217107   4.713   5.690  10.014  0.2375  0.2987 -0.9891
  154SAPE   H2R17108   4.816   5.728  10.027 -0.6356  1.9579  1.8681
  154SAPE   H2S17109   4.714   5.583   9.983 -1.5189  0.0548 -0.3457
  154SAPE    C317110   4.514   5.982  10.333 -0.0803  0.2702  0.0831
  154SAPE    HX17111   4.592   6.059  10.314  0.0462 -0.3160 -1.8794
  154SAPE    HY17112   4.463   5.996  10.431 -2.0818  0.3558 -0.9123
  154SAPE   O3117113   4.415   5.991  10.229  0.3168 -0.1540  0.4707
  154SAPE   C3117114   4.364   6.112  10.209 -0.2316  0.2310 -0.0285
  154SAPE   O3217115   4.398   6.212  10.267  0.3687 -0.0409 -0.7468
  154SAPE   C3217116   4.262   6.112  10.092  0.5217  0.5121 -0.1578
  154SAPE   H2X17117   4.178   6.051  10.134  2.9523 -0.8602  3.1559
  154SAPE   H2Y17118   4.304   6.050  10.010 -1.0369  1.3708 -1.6559
  154SAPE   C2317119   4.653   5.788   9.900 -0.2183  0.3961  0.2492
  154SAPE   H3R17120   4.739   5.801   9.830  0.4129 -2.5368  0.3407
  154SAPE   H3S17121   4.627   5.887   9.943  2.8942  1.5400 -0.2051
  154SAPE   C2417122   4.532   5.735   9.831  0.2587 -0.1295 -0.0326
  154SAPE   H4R17123   4.460   5.705   9.911  0.9345 -0.4286  0.4751
  154SAPE   H4S17124   4.559   5.644   9.774 -1.8693 -0.3527 -0.7881
  154SAPE   C2517125   4.464   5.836   9.743 -0.1729  0.3169  0.2213
  154SAPE   H5R17126   4.394   5.906   9.791  0.3625  0.4493  0.8183
  154SAPE   C2617127   4.492   5.849   9.615  0.4683 -0.2956  0.0649
  154SAPE   H6R17128   4.448   5.927   9.551  0.8680  0.1403  0.3127
  154SAPE   C2717129   4.587   5.755   9.541 -0.1334 -0.5097 -0.5247
  154SAPE   H7R17130   4.562   5.647   9.548 -0.4639 -0.3848  0.3898
  154SAPE   H7S17131   4.687   5.774   9.584  0.3951  1.8147 -2.5878
  154SAPE   C2817132   4.585   5.794   9.388 -1.3794 -0.4760 -0.0374
  154SAPE   H8R17133   4.668   5.860   9.361  0.1039 -1.8957  0.9007
  154SAPE   C2917134   4.487   5.760   9.305  0.0041 -0.4858  1.1675
  154SAPE   H9R17135   4.510   5.781   9.200  1.3164 -2.5364  0.9720
  154SAPE  C21017136   4.370   5.669   9.313 -0.0002 -0.1389 -0.1638
  154SAPE  H10R17137   4.279   5.732   9.328  0.2289  0.8069 -2.3808
  154SAPE  H10S17138   4.376   5.610   9.407 -2.8538 -0.0936  0.1594
  154SAPE  C21117139   4.343   5.585   9.191 -0.0546 -0.4048 -0.0437
  154SAPE  H11R17140   4.365   5.632   9.095  0.3530  0.2285  0.3522
  154SAPE  C21217141   4.290   5.461   9.183 -0.9674  0.4762 -0.3628
  154SAPE  H12R17142   4.291   5.409   9.086 -0.0684 -0.0681 -0.0764
  154SAPE  C21317143   4.262   5.380   9.311 -0.3835 -0.3918  0.7306
  154SAPE  H13R17144   4.157   5.346   9.295  0.2687 -0.6358 -5.0610
  154SAPE  H13S17145   4.256   5.434   9.408 -1.0928 -0.0964  0.5302
  154SAPE  C21417146   4.357   5.260   9.320  0.4138 -0.1698 -0.2052
  154SAPE  H14R17147   4.372   5.202   9.227 -0.5107  0.2942 -0.6510
  154SAPE  C21517148   4.426   5.224   9.427  0.2908  0.0747  0.0899
  154SAPE  H15R17149   4.481   5.129   9.437  0.3552  0.0769 -0.2517
  154SAPE  C21617150   4.412   5.285   9.558  0.1874  0.7244 -0.1778
  154SAPE  H16R17151   4.308   5.314   9.585  0.5429  3.0223 -0.9941
  154SAPE  H16S17152   4.467   5.382   9.556 -0.5051  1.1227 -0.0140
  154SAPE  C21717153   4.477   5.201   9.677  0.3239 -0.6697 -0.0800
  154SAPE  H17R17154   4.582   5.174   9.650  0.0715 -1.3856 -0.3946
  154SAPE  H17S17155   4.426   5.106   9.703 -0.6119 -0.1666 -0.0665
  154SAPE  C21817156   4.467   5.282   9.805  0.3333 -0.5082  0.2363
  154SAPE  H18R17157   4.361   5.315   9.813  0.1505 -0.4913 -1.7426
  154SAPE  H18S17158   4.524   5.375   9.782  0.6255 -0.5080  0.9399
  154SAPE  C21917159   4.529   5.214   9.920 -0.3818  0.3319 -0.1475
  154SAPE  H19R17160   4.591   5.127   9.892 -0.9228  0.1370 -0.7565
  154SAPE  H19S17161   4.452   5.177   9.992 -2.2382  0.3022 -2.0565
  154SAPE  C22017162   4.623   5.310  10.004  0.1243 -0.0697  0.3684
  154SAPE  H20R17163   4.672   5.254  10.086  0.1093 -0.7094 -0.0538
  154SAPE  H20S17164   4.562   5.387  10.057 -0.9274 -1.3701  1.1184
  154SAPE  H20T17165   4.700   5.359   9.941 -1.2365  0.1901 -1.1656
  154SAPE   C3317166   4.220   6.254  10.058 -0.3513 -0.0754 -0.0958
  154SAPE   H3X17167   4.309   6.311  10.023  0.6756 -0.5258  1.6322
  154SAPE   H3Y17168   4.178   6.304  10.148  0.7292  0.9979 -0.1677
  154SAPE   C3417169   4.117   6.275   9.940  0.0181 -0.1289 -0.6035
  154SAPE   H4X17170   4.105   6.380   9.906 -2.3119  0.0199  0.5108
  154SAPE   H4Y17171   4.015   6.238   9.963 -0.1889  0.5023 -0.4862
  154SAPE   C3517172   4.164   6.200   9.819 -0.1484 -0.3936  0.0425
  154SAPE   H5X17173   4.176   6.091   9.835 -0.0382 -0.3513  0.2537
  154SAPE   H5Y17174   4.263   6.245   9.793  0.4400 -1.1838  0.8858
  154SAPE   C3617175   4.065   6.208   9.700  0.1216 -0.4129 -0.0285
  154SAPE   H6X17176   4.023   6.311   9.699  0.3762 -0.2582 -3.0032
  154SAPE   H6Y17177   3.980   6.139   9.721  0.3919 -0.2863  1.5397
  154SAPE   C3717178   4.113   6.179   9.553  0.5910 -0.4937 -1.0146
  154SAPE   H7X17179   4.170   6.085   9.566 -0.0354 -0.5109  2.5177
  154SAPE   H7Y17180   4.183   6.264   9.535  1.0272 -0.4583  0.6706
  154SAPE   C3817181   3.986   6.163   9.464  0.6276  0.5907 -0.0297
  154SAPE   H8X17182   3.913   6.246   9.480 -0.1953 -0.3549  1.4617
  154SAPE   H8Y17183   3.940   6.063   9.486  1.8540 -0.1469 -0.7443
  154SAPE   C3917184   4.012   6.142   9.311 -0.6037  0.5950  0.0005
  154SAPE   H9X17185   4.058   6.042   9.295  0.4140  0.7603  1.6219
  154SAPE   H9Y17186   4.087   6.215   9.272  1.3858 -2.0728 -1.5319
  154SAPE  C31017187   3.883   6.144   9.233  0.2522  0.2317 -0.1621
  154SAPE  H10X17188   3.827   6.240   9.231  0.6625  0.4997 -3.2113
  154SAPE  H10Y17189   3.822   6.069   9.288  0.3773 -0.7411 -1.3077
  154SAPE  C31117190   3.889   6.097   9.093 -0.0422  0.3334 -0.1364
  154SAPE  H11X17191   3.950   6.004   9.090 -0.9885 -0.3999  1.9840
  154SAPE  H11Y17192   3.949   6.167   9.030  0.1348  1.8338  1.6095
  154SAPE  C31217193   3.752   6.077   9.030 -0.0858 -0.0621 -0.4013
  154SAPE  H12X17194   3.683   6.164   9.041 -3.4763 -2.5164 -0.7381
  154SAPE  H12Y17195   3.703   5.988   9.074 -0.1491 -0.6251 -1.5906
  154SAPE  C31317196   3.772   6.032   8.880 -0.4857 -0.1901 -0.4303
  154SAPE  H13X17197   3.836   5.941   8.871  1.7221  1.3870 -1.3664
  154SAPE  H13Y17198   3.812   6.119   8.824  0.7063  1.0066  2.1443
  154SAPE  C31417199   3.626   5.997   8.816 -0.2990 -0.2129 -0.5710
  154SAPE  H14X17200   3.632   6.027   8.709  0.9717  1.9796  0.0335
  154SAPE  H14Y17201   3.551   6.065   8.862 -0.7159 -1.2179  0.2727
  154SAPE  C31517202   3.589   5.854   8.846 -0.2876 -0.2315 -0.3679
  154SAPE  H15X17203   3.625   5.838   8.950  0.5779  1.6874 -0.3346
  154SAPE  H15Y17204   3.660   5.794   8.784  0.1774  1.0290 -1.0961
  154SAPE  C31617205   3.443   5.830   8.836 -0.4651  0.0050  0.4343
  154SAPE  H16X17206   3.397   5.926   8.867 -0.3502  0.8533 -1.8606
  154SAPE  H16Y17207   3.412   5.750   8.907 -1.6358  0.9208  0.9776
  154SAPE  C31717208   3.375   5.796   8.698  0.0245 -0.1310 -0.2725
  154SAPE  H17X17209   3.430   5.713   8.648 -0.5449 -0.2018 -0.7912
  154SAPE  H17Y17210   3.387   5.886   8.634  1.0873 -0.3648 -0.4346
  154SAPE  C31817211   3.227   5.739   8.701  0.0506  0.1603 -0.3203
  154SAPE  H18X17212   3.155   5.805   8.755 -0.9717 -0.1312 -1.2819
  154SAPE  H18Y17213   3.207   5.637   8.741 -0.3427  0.2204 -0.3550
  154SAPE  H18Z17214   3.184   5.739   8.598  0.6430  0.7296 -0.5707
  155SAPE     N17215   3.905   1.892  10.979 -0.4536 -0.0024  0.2255
  155SAPE   HN117216   3.849   1.888  10.892  1.0488 -3.2593 -0.7435
  155SAPE   HN217217   3.888   1.801  11.027  0.5007 -0.6068 -0.5325
  155SAPE   HN317218   3.874   1.968  11.043  2.5836 -0.8249  2.9381
  155SAPE   C1217219   4.052   1.895  10.937  0.7907  0.0837  0.2297
  155SAPE  H12A17220   4.097   1.908  11.038 -0.6713 -1.2988  1.1044
  155SAPE  H12B17221   4.074   1.982  10.872 -0.5673  0.9304  0.8609
  155SAPE   C1117222   4.097   1.764  10.881  0.6503  0.4436 -0.3900
  155SAPE  H11A17223   4.068   1.693  10.961 -0.8395  0.1254 -1.1758
  155SAPE  H11B17224   4.208   1.767  10.876  0.7862  0.0972  1.6367
  155SAPE     P17225   3.959   1.608  10.728 -0.4355 -0.2895 -0.1709
  155SAPE   O1317226   4.026   1.492  10.796 -0.3262  0.0839  0.3222
  155SAPE   O1417227   3.819   1.634  10.766 -0.2252 -0.0084  0.3236
  155SAPE   O1217228   4.033   1.744  10.753 -0.5506 -0.5207  0.4331
  155SAPE   O1117229   3.980   1.587  10.577 -0.0499  0.1818  0.3588
  155SAPE    C117230   4.052   1.676  10.495 -0.2088 -0.3560 -0.1703
  155SAPE    HA17231   4.156   1.693  10.532 -0.2530  0.4631 -0.3957
  155SAPE    HB17232   4.073   1.628  10.398  1.0770  0.8435 -0.5115
  155SAPE    C217233   3.992   1.818  10.464 -0.4862  0.5874  0.2339
  155SAPE    HS17234   3.926   1.856  10.545  0.3262 -1.5044  1.9834
  155SAPE   O2117235   3.926   1.809  10.333  0.4322 -0.4891  0.3118
  155SAPE   C2117236   3.834   1.904  10.312 -0.2169 -0.8076  0.1996
  155SAPE   O2217237   3.804   2.005  10.380  0.3398 -0.1812 -0.2907
  155SAPE   C2217238   3.752   1.869  10.188  0.0213  0.7417  0.2906
  155SAPE   H2R17239   3.792   1.782  10.132 -1.2232  0.0365  0.4530
  155SAPE   H2S17240   3.650   1.847  10.227 -0.2566  1.3662 -0.0653
  155SAPE    C317241   4.116   1.912  10.450 -0.1281 -0.1574  0.1723
  155SAPE    HX17242   4.167   1.922  10.548  0.6768 -2.0188 -0.0069
  155SAPE    HY17243   4.082   2.015  10.427  1.3579  1.1519  3.3486
  155SAPE   O3117244   4.199   1.859  10.345 -0.5076 -0.3396 -0.9217
  155SAPE   C3117245   4.326   1.893  10.359 -0.1926 -0.0830  0.5789
  155SAPE   O3217246   4.370   1.976  10.434 -0.3639  0.3289 -0.4871
  155SAPE   C3217247   4.410   1.829  10.255 -0.2664  0.5028 -0.7452
  155SAPE   H2X17248   4.357   1.815  10.158  0.0215 -0.3652 -0.7820
  155SAPE   H2Y17249   4.428   1.731  10.304 -1.9079  1.4181  1.9145
  155SAPE   C2317250   3.732   2.000  10.106 -0.3326 -0.0711  0.4508
  155SAPE   H3R17251   3.804   2.002  10.021  1.4901 -1.3718  1.8787
  155SAPE   H3S17252   3.761   2.089  10.165  1.1715 -0.0373 -0.2729
  155SAPE   C2417253   3.586   2.031  10.058 -0.7277 -0.3197  0.1124
  155SAPE   H4R17254   3.591   2.125   9.998  1.7567  0.1723  0.9949
  155SAPE   H4S17255   3.536   2.053  10.155  0.9509  0.9339  0.7402
  155SAPE   C2517256   3.527   1.909   9.985 -0.1010  0.3595 -0.6026
  155SAPE   H5R17257   3.478   1.845  10.060  0.8007  0.5862  0.1923
  155SAPE   C2617258   3.510   1.906   9.852 -0.4743  0.3143  0.0801
  155SAPE   H6R17259   3.451   1.821   9.813 -0.2534  0.6735 -1.0987
  155SAPE   C2717260   3.545   2.000   9.746  0.3054  0.1205 -0.2287
  155SAPE   H7R17261   3.591   2.094   9.784  0.1561  0.0592  0.1087
  155SAPE   H7S17262   3.454   2.042   9.699 -0.8058 -0.9145  0.9542
  155SAPE   C2817263   3.630   1.932   9.639  0.0399  0.4717  0.7037
  155SAPE   H8R17264   3.699   1.856   9.677  1.2378  0.5889 -1.0944
  155SAPE   C2917265   3.611   1.925   9.501  0.3283  0.1415  0.1407
  155SAPE   H9R17266   3.674   1.861   9.438 -0.8953  1.5884 -2.7222
  155SAPE  C21017267   3.512   2.009   9.416 -0.0152  0.2831  0.0562
  155SAPE  H10R17268   3.451   2.063   9.492  0.9456  1.0422  0.3065
  155SAPE  H10S17269   3.443   1.940   9.363 -0.6169  0.4974  0.5460
  155SAPE  C21117270   3.566   2.122   9.332  0.2476 -0.2187  0.2423
  155SAPE  H11R17271   3.583   2.220   9.379  1.6330  0.7099 -2.0303
  155SAPE  C21217272   3.592   2.111   9.200 -0.4980  0.3556 -0.3171
  155SAPE  H12R17273   3.644   2.197   9.155 -0.0751  0.9055  1.1478
  155SAPE  C21317274   3.575   1.996   9.105  0.6932 -0.0481 -0.0592
  155SAPE  H13R17275   3.610   1.899   9.146  0.6597 -1.2056 -2.5836
  155SAPE  H13S17276   3.639   2.023   9.018  0.1437 -0.8409 -0.7300
  155SAPE  C21417277   3.435   1.974   9.064 -0.0234  0.8653  0.3630
  155SAPE  H14R17278   3.360   1.972   9.145  0.3291 -0.0686  0.6844
  155SAPE  C21517279   3.384   1.974   8.939  0.0244 -0.7287 -0.4429
  155SAPE  H15R17280   3.276   1.956   8.932 -0.0769 -0.8645  1.0533
  155SAPE  C21617281   3.437   2.001   8.806 -0.2180 -0.7298  0.5893
  155SAPE  H16R17282   3.512   1.919   8.798 -0.3528 -1.0937  2.5035
  155SAPE  H16S17283   3.495   2.096   8.793  0.4778 -1.3104 -0.6767
  155SAPE  C21717284   3.355   1.974   8.680  0.1413  0.2690 -0.0792
  155SAPE  H17R17285   3.285   2.061   8.686 -0.7815 -0.4685 -0.0213
  155SAPE  H17S17286   3.303   1.877   8.671  1.2333 -0.3881  0.5154
  155SAPE  C21817287   3.436   1.998   8.546  0.1152 -0.3192 -0.0807
  155SAPE  H18R17288   3.529   1.937   8.540 -0.1315 -0.7839  0.6673
  155SAPE  H18S17289   3.472   2.103   8.537  4.5288 -1.7685 -2.0646
  155SAPE  C21917290   3.355   1.970   8.417  0.2891 -0.2095 -0.5254
  155SAPE  H19R17291   3.266   2.035   8.420 -0.4191 -1.1506  2.4776
  155SAPE  H19S17292   3.310   1.868   8.419 -1.1099  0.2975 -2.4808
  155SAPE  C22017293   3.437   1.971   8.286 -0.0326 -0.4125  0.3536
  155SAPE  H20R17294   3.533   1.918   8.304 -0.6200 -1.2431  1.1683
  155SAPE  H20S17295   3.463   2.078   8.268 -1.3648  0.2232  1.9351
  155SAPE  H20T17296   3.388   1.937   8.193  0.1978 -2.4828  0.9379
  155SAPE   C3317297   4.544   1.908  10.221  0.4132 -0.2459 -0.8319
  155SAPE   H3X17298   4.621   1.901  10.301 -0.6910  0.2979  0.3225
  155SAPE   H3Y17299   4.538   2.018  10.206 -1.8748 -0.3472 -1.0190
  155SAPE   C3417300   4.617   1.846  10.103 -0.8937  0.4287 -0.7239
  155SAPE   H4X17301   4.606   1.736  10.116 -1.8721  0.4577 -1.2142
  155SAPE   H4Y17302   4.723   1.878  10.097 -0.9442  0.8076  0.1657
  155SAPE   C3517303   4.546   1.878   9.973  0.2975  0.6847  0.5479
  155SAPE   H5X17304   4.580   1.982   9.954  1.9471  0.5166  2.2273
  155SAPE   H5Y17305   4.435   1.876   9.976  0.2348 -1.5448 -0.6391
  155SAPE   C3617306   4.609   1.787   9.870 -0.0352 -0.4892  0.5398
  155SAPE   H6X17307   4.586   1.681   9.893 -1.5000 -0.2829  0.1093
  155SAPE   H6Y17308   4.720   1.789   9.867 -0.0233 -1.1707  0.3206
  155SAPE   C3717309   4.584   1.814   9.720 -0.1418  0.1289  0.0730
  155SAPE   H7X17310   4.621   1.918   9.709 -0.3971  0.0970 -1.1550
  155SAPE   H7Y17311   4.476   1.807   9.693 -0.3959  1.1908  0.7535
  155SAPE   C3817312   4.673   1.728   9.631 -0.3758  0.3552  0.1445
  155SAPE   H8X17313   4.659   1.620   9.653  0.7082  0.2431  0.3260
  155SAPE   H8Y17314   4.778   1.737   9.665  0.7505 -2.1275 -2.3358
  155SAPE   C3917315   4.661   1.781   9.490 -0.0456  0.1065  0.6892
  155SAPE   H9X17316   4.708   1.880   9.471  0.5196  0.1367  2.1204
  155SAPE   H9Y17317   4.552   1.789   9.469  0.4185  1.4743 -1.5217
  155SAPE  C31017318   4.713   1.671   9.390  0.0815  0.4130 -0.2413
  155SAPE  H10X17319   4.658   1.578   9.413  0.3910  0.1873 -0.4172
  155SAPE  H10Y17320   4.821   1.659   9.412  0.6014  1.8856 -1.7430
  155SAPE  C31117321   4.696   1.714   9.245 -0.1217  0.1813  0.3427
  155SAPE  H11X17322   4.748   1.811   9.231  0.4845 -0.4942 -2.8432
  155SAPE  H11Y17323   4.588   1.722   9.222 -0.9052  0.3962  3.6546
  155SAPE  C31217324   4.765   1.615   9.150 -0.0037  0.5654 -0.0820
  155SAPE  H12X17325   4.748   1.516   9.199 -0.8772  0.3683 -0.7669
  155SAPE  H12Y17326   4.875   1.631   9.158  0.0976 -0.5581  1.1761
  155SAPE  C31317327   4.720   1.605   9.001  0.1167 -0.2329  0.2140
  155SAPE  H13X17328   4.780   1.532   8.943 -0.7832 -0.1053 -0.9098
  155SAPE  H13Y17329   4.746   1.707   8.963 -1.2293 -0.7301 -2.2190
  155SAPE  C31417330   4.569   1.589   8.980  0.2029 -0.2297  0.9210
  155SAPE  H14X17331   4.525   1.685   9.013  0.5241  0.1549  0.2618
  155SAPE  H14Y17332   4.544   1.505   9.047 -0.5495  0.1882  1.1756
  155SAPE  C31517333   4.534   1.546   8.828  0.3787 -0.2276  0.5837
  155SAPE  H15X17334   4.572   1.620   8.754 -0.2568  1.1168  1.5622
  155SAPE  H15Y17335   4.424   1.538   8.816  0.3734 -1.5586  1.3551
  155SAPE  C31617336   4.580   1.405   8.786 -0.0462  0.1255 -0.4467
  155SAPE  H16X17337   4.540   1.323   8.850  0.7474 -0.7179 -0.9999
  155SAPE  H16Y17338   4.691   1.415   8.788 -0.1011  0.7173 -0.3876
  155SAPE  C31717339   4.549   1.379   8.636 -0.4314  0.3428 -0.3813
  155SAPE  H17X17340   4.544   1.472   8.576 -2.4148  0.1404 -0.5798
  155SAPE  H17Y17341   4.451   1.329   8.623 -0.9296 -0.8609  5.2357
  155SAPE  C31817342   4.641   1.275   8.574 -0.3325  0.7052  0.0412
  155SAPE  H18X17343   4.659   1.196   8.650 -0.8885 -0.3946 -0.9329
  155SAPE  H18Y17344   4.741   1.319   8.557 -0.6348  1.0078 -1.0369
  155SAPE  H18Z17345   4.596   1.226   8.484 -1.5793  1.2850  0.3208
  156SAPE     N17346   2.938   0.344  10.501  0.4428  0.4224  0.2632
  156SAPE   HN117347   2.954   0.444  10.478 -0.0066  0.2913 -0.6581
  156SAPE   HN217348   2.992   0.292  10.429 -1.5373  0.7400 -1.5691
  156SAPE   HN317349   2.840   0.332  10.469  0.1665  0.5174  1.0555
  156SAPE   C1217350   2.959   0.292  10.646  0.0731  0.3573  0.8983
  156SAPE  H12A17351   2.859   0.292  10.694 -0.8353  0.7440 -0.8822
  156SAPE  H12B17352   3.029   0.366  10.689 -1.0233  1.7859  0.3288
  156SAPE   C1117353   3.011   0.146  10.642  0.2117  0.3150  0.0560
  156SAPE  H11A17354   2.941   0.087  10.578  2.0802 -1.5223 -0.4058
  156SAPE  H11B17355   3.013   0.104  10.744  1.2022 -0.3291 -0.2184
  156SAPE     P17356   3.272   0.133  10.667 -0.1111  0.0579 -0.4095
  156SAPE   O1317357   3.288   0.264  10.731  0.4431  0.2663  0.4226
  156SAPE   O1417358   3.270   0.018  10.764 -0.3426 -0.3781 -1.0256
  156SAPE   O1217359   3.137   0.138  10.575 -0.2514  0.6255 -0.0072
  156SAPE   O1117360   3.388   0.114  10.562  0.4718 -0.3374  0.2791
  156SAPE    C117361   3.371   0.027  10.450 -0.1573  0.3014 -0.0481
  156SAPE    HA17362   3.464  -0.015  10.406  0.0220 -2.0212  2.3247
  156SAPE    HB17363   3.306  -0.058  10.479  1.3846 -0.2937  1.9266
  156SAPE    C217364   3.307   0.104  10.335  0.7091 -0.1487  0.5738
  156SAPE    HS17365   3.197   0.094  10.339  0.5619  1.3966  0.8974
  156SAPE   O2117366   3.336   0.049  10.203  0.9528 -0.2889  0.0851
  156SAPE   C2117367   3.337  -0.083  10.187 -0.1953  0.4224  0.9531
  156SAPE   O2217368   3.285  -0.164  10.257 -0.3914  0.7491 -0.6818
  156SAPE   C2217369   3.400  -0.121  10.050  0.1847 -0.0541 -0.7515
  156SAPE   H2R17370   3.363  -0.050   9.973 -0.7809 -0.0127 -0.2639
  156SAPE   H2S17371   3.506  -0.095  10.068 -0.4334  2.1745 -0.0789
  156SAPE    C317372   3.342   0.254  10.322 -0.6084  0.0841  0.4366
  156SAPE    HX17373   3.452   0.265  10.313 -0.5490 -1.1297 -0.6452
  156SAPE    HY17374   3.302   0.300  10.415 -0.1396 -2.2740  1.8859
  156SAPE   O3117375   3.287   0.322  10.210  0.1915  0.3409  0.7470
  156SAPE   C3117376   3.153   0.339  10.202 -0.6580 -0.3129 -1.1065
  156SAPE   O3217377   3.073   0.283  10.271  0.2096 -0.2550  0.2371
  156SAPE   C3217378   3.117   0.431  10.083  0.6447 -0.9424  0.4342
  156SAPE   H2X17379   3.159   0.533  10.098 -1.4250  0.2412 -1.4292
  156SAPE   H2Y17380   3.007   0.424  10.094  0.6849 -1.2177  0.6948
  156SAPE   C2317381   3.404  -0.262   9.987 -0.5742 -0.1828 -0.8232
  156SAPE   H3R17382   3.417  -0.334  10.071  1.7032 -0.9307 -1.7571
  156SAPE   H3S17383   3.484  -0.261   9.910  1.0136 -0.0889  0.7818
  156SAPE   C2417384   3.264  -0.298   9.926  0.5352  0.8314  0.1181
  156SAPE   H4R17385   3.214  -0.199   9.929 -2.9030 -0.7316 -0.7133
  156SAPE   H4S17386   3.205  -0.352  10.002  0.1075 -0.6210 -1.1989
  156SAPE   C2517387   3.257  -0.351   9.788  0.3009  0.0322  0.6041
  156SAPE   H5R17388   3.276  -0.457   9.767  1.3264 -0.0132  1.6459
  156SAPE   C2617389   3.231  -0.281   9.672  0.1867  0.3570 -0.3674
  156SAPE   H6R17390   3.213  -0.331   9.576 -0.3465  1.2871 -0.7583
  156SAPE   C2717391   3.206  -0.133   9.657 -0.1265  0.5242 -1.0872
  156SAPE   H7R17392   3.169  -0.093   9.754 -0.1641 -2.4273  0.2349
  156SAPE   H7S17393   3.115  -0.119   9.596 -3.1315  0.1472  2.8677
  156SAPE   C2817394   3.329  -0.059   9.614  0.6033 -0.5224  0.2872
  156SAPE   H8R17395   3.393  -0.050   9.703 -1.4847 -0.3978  1.8637
  156SAPE   C2917396   3.349   0.008   9.504 -0.0985 -0.5559  0.8845
  156SAPE   H9R17397   3.445   0.052   9.473  0.1101 -1.7993 -0.3298
  156SAPE  C21017398   3.239   0.001   9.391 -0.7661 -0.1965  0.0631
  156SAPE  H10R17399   3.137   0.006   9.436  0.0359  0.1758  1.9507
  156SAPE  H10S17400   3.244  -0.101   9.347 -3.7833 -0.4314  0.0779
  156SAPE  C21117401   3.262   0.120   9.297 -0.9678  0.1698  0.1757
  156SAPE  H11R17402   3.301   0.207   9.353 -1.9511  0.6145  0.2020
  156SAPE  C21217403   3.247   0.123   9.162 -0.5182 -0.1713  0.4833
  156SAPE  H12R17404   3.268   0.219   9.112  0.1082 -0.2192  0.6519
  156SAPE  C21317405   3.184   0.013   9.080 -0.2925  0.4870 -0.2472
  156SAPE  H13R17406   3.103   0.056   9.017  0.3046  0.2672 -1.1816
  156SAPE  H13S17407   3.122  -0.054   9.143 -1.4450 -0.9511 -2.7482
  156SAPE  C21417408   3.270  -0.060   8.985 -0.6572 -0.1291 -0.5671
  156SAPE  H14R17409   3.377  -0.059   9.012 -1.1011  1.3901  1.3089
  156SAPE  C21517410   3.221  -0.145   8.890 -0.5729 -0.3366 -0.1478
  156SAPE  H15R17411   3.281  -0.192   8.810 -1.8710  1.2904 -2.1647
  156SAPE  C21617412   3.076  -0.139   8.873  0.3387 -0.0955 -0.3559
  156SAPE  H16R17413   3.042  -0.036   8.853  2.5567  0.7564 -0.0370
  156SAPE  H16S17414   3.032  -0.169   8.970 -0.7715  2.8576  0.1388
  156SAPE  C21717415   3.038  -0.228   8.755 -0.4362  0.2015  0.1650
  156SAPE  H17R17416   2.938  -0.272   8.775  0.2884 -1.3554  0.4639
  156SAPE  H17S17417   3.104  -0.316   8.744  1.1184  1.4331 -0.7074
  156SAPE  C21817418   3.030  -0.142   8.620 -1.1699 -0.2514  0.2853
  156SAPE  H18R17419   3.132  -0.100   8.607 -0.9505 -0.7043  0.5301
  156SAPE  H18S17420   2.955  -0.062   8.641 -2.2655 -1.0834 -0.3730
  156SAPE  C21917421   2.986  -0.226   8.496  0.4449  0.5003  0.0369
  156SAPE  H19R17422   3.072  -0.296   8.486  1.9243  2.3414 -0.6117
  156SAPE  H19S17423   2.985  -0.165   8.403  1.4787  1.7243  0.8039
  156SAPE  C22017424   2.853  -0.306   8.505 -1.2023 -0.5633 -0.0423
  156SAPE  H20R17425   2.865  -0.392   8.574  0.2338  0.9523  1.7093
  156SAPE  H20S17426   2.838  -0.358   8.408 -2.2431 -0.8247  0.2495
  156SAPE  H20T17427   2.768  -0.242   8.539 -0.9854 -1.8516  3.2405
  156SAPE   C3317428   3.171   0.380   9.956  0.1507 -0.0759 -0.1056
  156SAPE   H3X17429   3.157   0.270   9.949 -0.6365  0.1072 -1.9671
  156SAPE   H3Y17430   3.280   0.398   9.965  0.4738 -1.4290 -1.0346
  156SAPE   C3417431   3.119   0.439   9.830 -0.4977 -0.0462 -0.1143
  156SAPE   H4X17432   3.098   0.546   9.854 -0.3660 -0.3214  1.3330
  156SAPE   H4Y17433   3.016   0.403   9.813 -2.5706  4.3203  1.5354
  156SAPE   C3517434   3.203   0.434   9.698 -0.4160  0.0874  1.1970
  156SAPE   H5X17435   3.234   0.328   9.681  0.5134  0.6113 -0.6673
  156SAPE   H5Y17436   3.288   0.505   9.711  0.5722 -1.0031  0.8969
  156SAPE   C3617437   3.121   0.476   9.572 -0.1594  0.9054  0.5873
  156SAPE   H6X17438   3.061   0.565   9.601 -0.1339  1.2677 -0.4179
  156SAPE   H6Y17439   3.058   0.385   9.559 -0.0020  0.6842  1.3216
  156SAPE   C3717440   3.195   0.510   9.441 -0.3575  0.6432 -0.2650
  156SAPE   H7X17441   3.231   0.415   9.398  0.6065  0.6204  0.5672
  156SAPE   H7Y17442   3.289   0.564   9.464  0.1982 -0.9679  1.5141
  156SAPE   C3817443   3.121   0.614   9.350 -0.1587  0.3833  0.2056
  156SAPE   H8X17444   3.117   0.707   9.409 -0.1129 -0.6123  1.8433
  156SAPE   H8Y17445   3.020   0.575   9.325  0.7595 -1.4578 -0.8959
  156SAPE   C3917446   3.178   0.634   9.206  0.2517 -0.1147  0.2118
  156SAPE   H9X17447   3.288   0.645   9.211  0.2194 -0.2572  1.4779
  156SAPE   H9Y17448   3.128   0.728   9.176  0.3906  0.8643  2.8168
  156SAPE  C31017449   3.148   0.519   9.109 -0.0217 -0.1924  0.5347
  156SAPE  H10X17450   3.039   0.500   9.119 -0.1141  0.0421 -0.0074
  156SAPE  H10Y17451   3.194   0.428   9.153  1.1285  1.0634  2.0587
  156SAPE  C31117452   3.202   0.534   8.964  0.3080  0.5036  0.6329
  156SAPE  H11X17453   3.188   0.432   8.921  1.9072  0.6990 -0.3802
  156SAPE  H11Y17454   3.309   0.561   8.963  0.4796 -0.1552  0.1794
  156SAPE  C31217455   3.123   0.637   8.877 -0.2230 -0.3412 -0.3368
  156SAPE  H12X17456   3.121   0.744   8.909  1.8678 -0.0476 -1.0314
  156SAPE  H12Y17457   3.028   0.580   8.883 -0.2225 -0.2330  1.1447
  156SAPE  C31317458   3.179   0.640   8.736 -0.1531  0.0488  0.2415
  156SAPE  H13X17459   3.184   0.537   8.693 -0.6583  1.1744 -2.7793
  156SAPE  H13Y17460   3.281   0.683   8.742 -0.4406  1.6754 -3.5794
  156SAPE  C31417461   3.100   0.726   8.641  0.6920 -0.2799 -0.2531
  156SAPE  H14X17462   3.094   0.826   8.689 -1.1339 -0.4380 -0.0823
  156SAPE  H14Y17463   2.992   0.700   8.643  0.4340  0.6168  2.7904
  156SAPE  C31517464   3.168   0.736   8.503 -0.6098  0.9089 -0.5250
  156SAPE  H15X17465   3.180   0.632   8.465 -1.8244 -0.2833  2.1580
  156SAPE  H15Y17466   3.270   0.777   8.516  0.3644 -2.1502  2.7463
  156SAPE  C31617467   3.088   0.827   8.411  0.7618  0.2400  0.5062
  156SAPE  H16X17468   3.084   0.932   8.447 -1.2791  0.1315  0.7234
  156SAPE  H16Y17469   2.982   0.794   8.426  1.2300 -1.4287  0.3364
  156SAPE  C31717470   3.127   0.822   8.264 -0.3793 -0.3365 -0.1289
  156SAPE  H17X17471   3.123   0.716   8.229  0.8797 -0.6124  0.5210
  156SAPE  H17Y17472   3.234   0.851   8.267 -0.1844 -1.0362 -0.0568
  156SAPE  C31817473   3.055   0.915   8.165 -0.0931 -0.1446 -0.1180
  156SAPE  H18X17474   2.944   0.905   8.169 -0.0991 -0.3494 -0.6828
  156SAPE  H18Y17475   3.096   0.897   8.063  2.4025 -1.0466  0.9664
  156SAPE  H18Z17476   3.078   1.019   8.197 -0.9845 -0.5250  1.8754
  157SAPE     N17477   2.253   4.771  10.756 -0.0212 -0.0191 -0.5801
  157SAPE   HN117478   2.184   4.818  10.694 -0.2270 -0.2377 -0.5173
  157SAPE   HN217479   2.338   4.740  10.704  0.3459  0.8258 -0.5002
  157SAPE   HN317480   2.211   4.684  10.796  0.8148 -0.9003 -1.5437
  157SAPE   C1217481   2.288   4.867  10.869 -0.1673  0.1831  0.5427
  157SAPE  H12A17482   2.338   4.957  10.826  1.3816 -1.2810 -0.8545
  157SAPE  H12B17483   2.356   4.815  10.940  0.5703 -1.4281 -1.2742
  157SAPE   C1117484   2.164   4.916  10.946  0.7453  0.3952  0.1602
  157SAPE  H11A17485   2.196   4.993  11.019  2.7461 -1.1175  0.9731
  157SAPE  H11B17486   2.129   4.841  11.020 -1.3071  1.5869  0.4710
  157SAPE     P17487   2.032   5.094  10.808 -0.0270 -0.0955  0.0498
  157SAPE   O1317488   1.955   5.158  10.915  0.9719 -0.4900  0.1002
  157SAPE   O1417489   2.157   5.156  10.775 -0.3492 -0.6967 -0.3559
  157SAPE   O1217490   2.050   4.945  10.859 -0.0611 -0.5706 -0.0346
  157SAPE   O1117491   1.933   5.082  10.687 -0.6441  0.2824  0.5201
  157SAPE    C117492   1.812   5.009  10.677  0.7140  0.0420  0.1698
  157SAPE    HA17493   1.757   5.007  10.773  0.6250 -2.4506  0.1449
  157SAPE    HB17494   1.744   5.054  10.602  1.6882 -0.9331 -1.3727
  157SAPE    C217495   1.839   4.863  10.629 -0.3262 -0.8893 -0.0281
  157SAPE    HS17496   1.917   4.810  10.687  1.0318 -1.0831 -1.9654
  157SAPE   O2117497   1.877   4.880  10.493  0.2126  0.1727 -0.3689
  157SAPE   C2117498   2.008   4.896  10.478 -0.0675 -0.0445  0.0224
  157SAPE   O2217499   2.092   4.865  10.561 -0.3528 -0.6301  0.0299
  157SAPE   C2217500   2.046   4.937  10.335 -0.4523 -0.6756 -0.2968
  157SAPE   H2R17501   1.985   4.878  10.263  0.9892 -1.9158 -0.5562
  157SAPE   H2S17502   2.006   5.038  10.312 -1.2482 -1.1222 -0.9176
  157SAPE    C317503   1.713   4.774  10.633  0.8792  0.4633  0.2041
  157SAPE    HX17504   1.677   4.743  10.734 -2.3231  0.6928 -0.7637
  157SAPE    HY17505   1.751   4.685  10.580 -2.2471 -1.4661  0.9306
  157SAPE   O3117506   1.593   4.830  10.568  0.5055  0.9282  0.0818
  157SAPE   C3117507   1.504   4.735  10.531 -0.1607  0.1330 -0.2237
  157SAPE   O3217508   1.509   4.618  10.562  0.7666  0.0787 -0.6499
  157SAPE   C3217509   1.400   4.795  10.434  0.5894  0.9011  0.2868
  157SAPE   H2X17510   1.439   4.898  10.417 -0.5160  1.0583 -1.6677
  157SAPE   H2Y17511   1.303   4.787  10.488  1.7250  0.5276  2.3917
  157SAPE   C2317512   2.195   4.930  10.301  0.5257 -0.4740  0.1996
  157SAPE   H3R17513   2.240   4.849  10.363 -2.5662 -1.5330  1.2576
  157SAPE   H3S17514   2.246   5.022  10.339  2.3187 -0.6898 -1.5253
  157SAPE   C2417515   2.227   4.907  10.155 -0.1087  0.5967  0.2943
  157SAPE   H4R17516   2.154   4.834  10.115  1.5824 -1.3340  0.5763
  157SAPE   H4S17517   2.327   4.859  10.163 -0.6266 -0.7684 -0.9758
  157SAPE   C2517518   2.230   5.036  10.077 -0.4217 -0.3411 -0.2586
  157SAPE   H5R17519   2.278   5.118  10.132  1.4452  0.0762 -2.3479
  157SAPE   C2617520   2.217   5.059   9.948 -0.4733  0.4249 -0.4200
  157SAPE   H6R17521   2.231   5.162   9.910  1.3686 -0.6478 -2.9493
  157SAPE   C2717522   2.167   4.958   9.848  0.4138 -0.2658  0.5764
  157SAPE   H7R17523   2.136   4.861   9.891  0.5584 -1.7677 -2.4635
  157SAPE   H7S17524   2.249   4.927   9.781 -0.7251 -2.2193  0.0108
  157SAPE   C2817525   2.059   5.013   9.764 -0.6617 -0.1825  0.4238
  157SAPE   H8R17526   2.007   5.100   9.807  0.5272 -0.2466  2.0659
  157SAPE   C2917527   2.018   4.964   9.641  0.3033 -0.6317  0.3343
  157SAPE   H9R17528   1.944   5.028   9.592 -1.1422 -1.9422  0.7324
  157SAPE  C21017529   2.089   4.858   9.560 -0.2043 -0.0261 -1.1084
  157SAPE  H10R17530   2.168   4.811   9.622 -1.0305  0.9444  0.7601
  157SAPE  H10S17531   2.153   4.898   9.478  0.3060 -1.0672 -1.2356
  157SAPE  C21117532   2.007   4.749   9.496 -1.0742  0.1216 -0.3791
  157SAPE  H11R17533   1.960   4.684   9.571 -2.3253  3.1657  1.6385
  157SAPE  C21217534   1.972   4.746   9.364  0.0059 -0.2580 -0.3158
  157SAPE  H12R17535   1.903   4.667   9.331 -0.4012 -1.2554  2.6197
  157SAPE  C21317536   2.022   4.845   9.258  0.1705 -0.6850 -0.1137
  157SAPE  H13R17537   2.100   4.802   9.191  1.1614  3.1735 -1.6818
  157SAPE  H13S17538   2.066   4.934   9.306 -2.2987  0.1875  0.7042
  157SAPE  C21417539   1.908   4.898   9.179  0.4320  0.1082  0.3930
  157SAPE  H14R17540   1.845   4.969   9.235  0.6070  1.4950 -1.1057
  157SAPE  C21517541   1.880   4.888   9.044  0.3771 -0.1575  0.1864
  157SAPE  H15R17542   1.780   4.924   9.016  0.5669 -1.3736 -2.2929
  157SAPE  C21617543   1.944   4.808   8.935 -0.8849 -0.3440 -0.3662
  157SAPE  H16R17544   2.010   4.731   8.981  0.4118 -0.0924 -1.7245
  157SAPE  H16S17545   2.014   4.872   8.877 -0.4209 -1.0290 -0.5788
  157SAPE  C21717546   1.852   4.724   8.840 -0.8225  0.4419 -0.3983
  157SAPE  H17R17547   1.808   4.643   8.902  0.2600  0.4243  0.3718
  157SAPE  H17S17548   1.912   4.689   8.753 -1.6412  0.2585 -0.8948
  157SAPE  C21817549   1.735   4.810   8.791  0.1916 -0.4643 -0.5138
  157SAPE  H18R17550   1.771   4.902   8.740  2.4489 -0.1673  1.4081
  157SAPE  H18S17551   1.673   4.845   8.877  0.6438  0.7350 -0.6539
  157SAPE  C21917552   1.635   4.736   8.707 -0.0285  0.2271 -0.3557
  157SAPE  H19R17553   1.613   4.644   8.764  0.1434  0.6860  0.4594
  157SAPE  H19S17554   1.665   4.701   8.605 -0.8958  1.0009 -0.8877
  157SAPE  C22017555   1.511   4.819   8.688 -0.4875  0.2914 -0.6160
  157SAPE  H20R17556   1.513   4.888   8.600 -1.1395  0.6046 -0.3883
  157SAPE  H20S17557   1.488   4.874   8.782  1.9938 -0.7664  0.7046
  157SAPE  H20T17558   1.425   4.750   8.676 -0.5660  0.0296  1.2688
  157SAPE   C3317559   1.390   4.715  10.297 -0.3090 -0.9100 -0.5818
  157SAPE   H3X17560   1.356   4.610  10.314  3.7502 -2.0815  1.5882
  157SAPE   H3Y17561   1.487   4.692  10.248 -0.3910  0.6046 -1.5002
  157SAPE   C3417562   1.292   4.785  10.205  0.3758 -0.2438 -0.7218
  157SAPE   H4X17563   1.331   4.884  10.172 -0.0177 -0.7683 -2.8981
  157SAPE   H4Y17564   1.191   4.793  10.251 -0.2324 -2.1562 -1.6483
  157SAPE   C3517565   1.286   4.709  10.078 -0.2597  0.5967 -0.2682
  157SAPE   H5X17566   1.245   4.606  10.079 -0.6422  0.7475  0.4428
  157SAPE   H5Y17567   1.386   4.705  10.030 -1.1189  0.5004 -2.1361
  157SAPE   C3617568   1.191   4.779   9.974  0.2648 -1.0930 -0.2265
  157SAPE   H6X17569   1.228   4.878   9.940  0.5397 -1.0142  0.2955
  157SAPE   H6Y17570   1.095   4.786  10.030 -0.4483  0.3744 -1.5411
  157SAPE   C3717571   1.156   4.696   9.859  0.3215  0.2069  0.0072
  157SAPE   H7X17572   1.084   4.752   9.796  2.1580  0.3520 -2.0859
  157SAPE   H7Y17573   1.106   4.599   9.881 -0.4336 -0.0097 -2.3741
  157SAPE   C3817574   1.268   4.654   9.763 -0.4222  1.2001 -0.1118
  157SAPE   H8X17575   1.262   4.543   9.759 -4.0909  1.2828 -0.4198
  157SAPE   H8Y17576   1.360   4.697   9.809 -0.1823 -0.5534  1.1438
  157SAPE   C3917577   1.259   4.707   9.615 -0.5097  0.2590 -0.2693
  157SAPE   H9X17578   1.354   4.699   9.558  0.3008  0.4844  1.0024
  157SAPE   H9Y17579   1.244   4.816   9.631  0.1008 -0.0653  3.2412
  157SAPE  C31017580   1.147   4.635   9.536  0.7068  0.1646 -0.7613
  157SAPE  H10X17581   1.046   4.651   9.580  1.5539 -0.8830  1.7714
  157SAPE  H10Y17582   1.158   4.524   9.538 -1.3999 -0.0766  0.8864
  157SAPE  C31117583   1.160   4.676   9.386 -0.2402  0.0190 -0.2227
  157SAPE  H11X17584   1.264   4.644   9.360 -0.1179  0.8241 -0.7603
  157SAPE  H11Y17585   1.160   4.787   9.377 -1.4939 -0.1184 -2.7899
  157SAPE  C31217586   1.045   4.623   9.295 -0.5795  0.6974 -0.0607
  157SAPE  H12X17587   0.948   4.647   9.344 -1.8470  0.1859 -2.2116
  157SAPE  H12Y17588   1.054   4.513   9.282  1.9766  0.9470 -0.9440
  157SAPE  C31317589   1.060   4.684   9.156  0.4111 -0.1643  0.8205
  157SAPE  H13X17590   1.159   4.668   9.109 -0.1356 -0.5008 -0.2429
  157SAPE  H13Y17591   1.068   4.794   9.169  3.1465 -0.0908 -0.7448
  157SAPE  C31417592   0.943   4.634   9.056 -0.5665 -0.8460  0.1602
  157SAPE  H14X17593   0.899   4.722   9.004  0.8002 -1.0115 -1.3641
  157SAPE  H14Y17594   0.863   4.597   9.124 -0.9380 -1.6196 -0.6639
  157SAPE  C31517595   0.989   4.532   8.957 -0.1579 -0.0391 -0.1576
  157SAPE  H15X17596   1.041   4.449   9.009 -1.7527 -1.2672 -0.4340
  157SAPE  H15Y17597   1.058   4.576   8.883  0.7106  0.3636  0.8591
  157SAPE  C31617598   0.880   4.466   8.874 -0.3035  0.2584  0.7506
  157SAPE  H16X17599   0.809   4.419   8.945  0.2706 -0.3386  0.9467
  157SAPE  H16Y17600   0.928   4.386   8.813  0.4700  0.6060  0.9024
  157SAPE  C31717601   0.827   4.561   8.770 -0.1042  0.3937 -0.0255
  157SAPE  H17X17602   0.913   4.624   8.740  2.1128 -0.5109  3.7784
  157SAPE  H17Y17603   0.749   4.624   8.819 -2.3189  0.5914 -3.4271
  157SAPE  C31817604   0.773   4.487   8.652  0.2898 -0.0158 -0.7829
  157SAPE  H18X17605   0.766   4.555   8.564 -0.3568  1.6480  0.4974
  157SAPE  H18Y17606   0.671   4.447   8.673  0.0203  0.8216 -0.4407
  157SAPE  H18Z17607   0.846   4.407   8.629 -2.0406 -2.0573 -1.6032
  158SAPE     N17608   5.088   5.909  10.703 -0.2662 -0.5909  0.2156
  158SAPE   HN117609   5.000   5.864  10.667 -0.1015 -0.8661  0.1514
  158SAPE   HN217610   5.171   5.856  10.670  0.0203 -0.1279  0.1980
  158SAPE   HN317611   5.087   5.917  10.806 -0.5738 -0.8044  0.2332
  158SAPE   C1217612   5.100   6.046  10.645 -0.5619 -0.0220  1.1682
  158SAPE  H12A17613   5.000   6.092  10.633 -0.5822 -0.1126  0.9976
  158SAPE  H12B17614   5.148   6.032  10.546  3.6000  1.3880  2.7396
  158SAPE   C1117615   5.191   6.133  10.728  0.1129  0.0658  0.1697
  158SAPE  H11A17616   5.172   6.117  10.836 -1.1459  0.1960 -0.0121
  158SAPE  H11B17617   5.161   6.238  10.706 -2.4433 -0.3868  1.1581
  158SAPE     P17618   5.443   6.206  10.723 -0.3645 -0.0492 -0.4862
  158SAPE   O1317619   5.398   6.295  10.833  0.0208  0.2333 -0.4786
  158SAPE   O1417620   5.569   6.129  10.741  0.0992  0.0419  0.7481
  158SAPE   O1217621   5.329   6.106  10.687 -0.0365  0.0998  0.6626
  158SAPE   O1117622   5.455   6.286  10.589  0.3323  0.0663 -0.0257
  158SAPE    C117623   5.372   6.386  10.535  0.2352 -0.2937 -0.1564
  158SAPE    HA17624   5.308   6.430  10.615 -0.6299  0.6739 -1.3496
  158SAPE    HB17625   5.422   6.478  10.497  0.7337 -1.0005 -1.2540
  158SAPE    C217626   5.286   6.323  10.423  1.0663 -0.0332  0.5938
  158SAPE    HS17627   5.226   6.244  10.473 -1.9764  2.2294  0.8337
  158SAPE   O2117628   5.363   6.275  10.313 -0.5908 -0.0722 -0.5093
  158SAPE   C2117629   5.333   6.157  10.263 -0.0337 -0.2162 -1.1230
  158SAPE   O2217630   5.251   6.075  10.313  0.0293  0.1592  0.5902
  158SAPE   C2217631   5.412   6.145  10.131 -0.0677  0.1386  0.1040
  158SAPE   H2R17632   5.378   6.237  10.079  0.3608 -1.3763 -3.1042
  158SAPE   H2S17633   5.519   6.162  10.151  0.4265 -0.0770 -2.1350
  158SAPE    C317634   5.185   6.435  10.368 -0.6384  0.3275  0.4883
  158SAPE    HX17635   5.262   6.504  10.327 -0.4102  0.9341  1.8656
  158SAPE    HY17636   5.132   6.494  10.446  1.0109  0.3811  1.6183
  158SAPE   O3117637   5.091   6.372  10.270 -0.1189 -0.3141 -0.0048
  158SAPE   C3117638   5.001   6.291  10.327 -0.1281 -0.9994 -0.4999
  158SAPE   O3217639   4.984   6.270  10.444 -0.5191  0.7022 -0.6114
  158SAPE   C3217640   4.905   6.226  10.218  0.2162 -0.0736  0.3893
  158SAPE   H2X17641   4.892   6.117  10.235  0.1509 -0.6467 -2.7629
  158SAPE   H2Y17642   4.965   6.237  10.125  0.9474 -0.2020  0.8368
  158SAPE   C2317643   5.397   6.024  10.036 -0.2913 -0.6000  0.1921
  158SAPE   H3R17644   5.427   5.926  10.079 -0.7647 -1.0685 -0.5265
  158SAPE   H3S17645   5.466   6.038   9.950 -1.0684 -3.5946 -1.0348
  158SAPE   C2417646   5.249   5.993   9.982  0.2707 -0.1570  0.1384
  158SAPE   H4R17647   5.180   5.990  10.069  1.3132  0.1510  1.0005
  158SAPE   H4S17648   5.234   5.896   9.930 -2.3929 -1.1403  2.4722
  158SAPE   C2517649   5.192   6.110   9.897  0.0503  0.0137 -0.0754
  158SAPE   H5R17650   5.116   6.168   9.951  0.7081 -0.3455  1.2974
  158SAPE   C2617651   5.212   6.124   9.768 -0.0302  0.1016 -0.5513
  158SAPE   H6R17652   5.151   6.201   9.719  1.7460  3.2321  1.7866
  158SAPE   C2717653   5.300   6.040   9.683 -0.5244  0.1181 -0.1471
  158SAPE   H7R17654   5.236   5.994   9.605 -1.2526  1.2368 -0.2282
  158SAPE   H7S17655   5.341   5.963   9.751 -0.4320  0.7409  0.5189
  158SAPE   C2817656   5.419   6.113   9.610  0.1886  0.1996 -0.6429
  158SAPE   H8R17657   5.493   6.138   9.687 -1.0725  0.1134  0.6410
  158SAPE   C2917658   5.436   6.146   9.476  0.4443  0.2976  0.0882
  158SAPE   H9R17659   5.528   6.190   9.436 -1.0605  2.9169 -0.7922
  158SAPE  C21017660   5.334   6.129   9.369 -0.1631  0.1365 -0.1906
  158SAPE  H10R17661   5.373   6.189   9.284  0.0386  1.4307  0.7852
  158SAPE  H10S17662   5.248   6.187   9.406 -0.8584 -0.5245 -0.7390
  158SAPE  C21117663   5.309   5.982   9.329 -0.2193 -0.1367 -0.2628
  158SAPE  H11R17664   5.387   5.906   9.348  0.3933  0.9611  1.9430
  158SAPE  C21217665   5.199   5.935   9.272 -0.4110 -0.0139  0.0337
  158SAPE  H12R17666   5.196   5.829   9.243  0.7068 -0.3584  1.0998
  158SAPE  C21317667   5.079   6.017   9.241  0.3495  0.0899 -0.0107
  158SAPE  H13R17668   5.073   6.097   9.318 -1.5902  0.6595 -0.6904
  158SAPE  H13S17669   4.994   5.945   9.246 -0.3060  0.8125 -0.4874
  158SAPE  C21417670   5.073   6.090   9.111 -0.7285 -0.1884 -0.3747
  158SAPE  H14R17671   5.082   6.200   9.117 -1.8825 -0.0903 -0.2407
  158SAPE  C21517672   5.046   6.034   8.995 -0.3328 -0.1705 -0.1955
  158SAPE  H15R17673   5.033   6.104   8.911  0.6694  0.1672 -0.0831
  158SAPE  C21617674   5.018   5.883   8.972  0.1461 -0.1892  0.7166
  158SAPE  H16R17675   5.009   5.827   9.068  0.7883 -1.2850  0.1607
  158SAPE  H16S17676   5.090   5.830   8.906 -1.2117 -3.8616  1.8793
  158SAPE  C21717677   4.873   5.866   8.923 -0.8965 -1.0746  0.7247
  158SAPE  H17R17678   4.876   5.907   8.820 -0.1326  3.8013  2.4678
  158SAPE  H17S17679   4.817   5.928   8.997  0.0514  0.0226  0.5468
  158SAPE  C21817680   4.834   5.726   8.920  0.2090  0.0640  0.1804
  158SAPE  H18R17681   4.849   5.691   9.024 -0.1894  1.9998  0.9391
  158SAPE  H18S17682   4.908   5.665   8.864 -0.6113  0.1787 -1.0880
  158SAPE  C21917683   4.689   5.708   8.890 -0.2588  0.5356 -0.6179
  158SAPE  H19R17684   4.662   5.737   8.786  0.0262 -0.0700 -0.8644
  158SAPE  H19S17685   4.631   5.759   8.970  0.0206  0.1504 -0.1585
  158SAPE  C22017686   4.655   5.558   8.902 -0.3854 -0.4380 -0.5406
  158SAPE  H20R17687   4.717   5.509   8.980  0.1712  0.1449 -0.6086
  158SAPE  H20S17688   4.679   5.508   8.805  1.6785 -0.9927  0.2013
  158SAPE  H20T17689   4.549   5.538   8.928  0.1662 -1.4370  1.0952
  158SAPE   C3317690   4.771   6.301  10.204 -0.1349  0.6605 -0.2098
  158SAPE   H3X17691   4.778   6.411  10.194  2.2210  0.5624 -0.1718
  158SAPE   H3Y17692   4.722   6.294  10.303 -0.1296  0.5518 -0.2146
  158SAPE   C3417693   4.672   6.236  10.103  0.3507 -0.0622 -0.1556
  158SAPE   H4X17694   4.571   6.275  10.129  0.1538 -1.1372  0.7865
  158SAPE   H4Y17695   4.683   6.126  10.118 -2.0350 -0.1837  1.1341
  158SAPE   C3517696   4.711   6.260   9.954 -0.7253 -0.4193 -0.5577
  158SAPE   H5X17697   4.804   6.206   9.928 -1.1125 -1.4274  0.0354
  158SAPE   H5Y17698   4.721   6.370   9.957 -0.5815 -0.4406 -0.1619
  158SAPE   C3617699   4.601   6.199   9.874  0.6260 -0.1020  0.8983
  158SAPE   H6X17700   4.504   6.253   9.879 -1.8349 -3.6761 -2.6074
  158SAPE   H6Y17701   4.588   6.089   9.880  1.0496 -0.1158  1.9051
  158SAPE   C3717702   4.639   6.213   9.722  0.2533 -0.3955 -0.1427
  158SAPE   H7X17703   4.710   6.134   9.691  2.2517  1.5584 -0.8219
  158SAPE   H7Y17704   4.689   6.310   9.700  1.6056 -0.3552  2.6961
  158SAPE   C3817705   4.517   6.210   9.617 -0.2570  0.4371 -0.9317
  158SAPE   H8X17706   4.454   6.300   9.636 -2.3769 -0.8467 -1.5046
  158SAPE   H8Y17707   4.452   6.125   9.649 -0.9779  1.0356 -0.7792
  158SAPE   C3917708   4.561   6.195   9.465  0.1593  0.4078 -0.7221
  158SAPE   H9X17709   4.636   6.114   9.452  0.3082  0.3772  0.2473
  158SAPE   H9Y17710   4.610   6.286   9.425  0.6762  0.4700  0.0240
  158SAPE  C31017711   4.442   6.168   9.369  0.6657  0.9206 -0.1118
  158SAPE  H10X17712   4.364   6.246   9.378  0.4326  0.5415  1.4778
  158SAPE  H10Y17713   4.393   6.071   9.392  2.2937  0.1057  0.0566
  158SAPE  C31117714   4.478   6.141   9.221 -0.0231 -0.3367  0.0058
  158SAPE  H11X17715   4.559   6.066   9.212  1.1735  1.1467 -2.6622
  158SAPE  H11Y17716   4.519   6.233   9.175 -0.7240 -0.3498 -0.6590
  158SAPE  C31217717   4.361   6.106   9.127  0.2145  0.0801  0.3818
  158SAPE  H12X17718   4.271   6.164   9.156  0.2788 -1.2537  3.7383
  158SAPE  H12Y17719   4.340   6.000   9.153  1.7851  0.1446  2.1849
  158SAPE  C31317720   4.385   6.103   8.976 -0.1569 -0.2605  1.0216
  158SAPE  H13X17721   4.472   6.039   8.948 -1.6748 -0.5091 -4.3574
  158SAPE  H13Y17722   4.413   6.208   8.952 -0.4870 -0.5568 -0.8415
  158SAPE  C31417723   4.264   6.040   8.900  0.4320  0.5299 -0.0096
  158SAPE  H14X17724   4.174   6.097   8.932  0.5012  1.7379 -1.8216
  158SAPE  H14Y17725   4.247   5.939   8.944 -0.9514  0.7615  0.0345
  158SAPE  C31517726   4.268   6.032   8.748 -0.1119 -0.6813 -0.6629
  158SAPE  H15X17727   4.329   6.116   8.710  1.0416 -2.9976 -4.5185
  158SAPE  H15Y17728   4.165   6.030   8.706 -0.0744  2.4379 -1.1161
  158SAPE  C31617729   4.351   5.913   8.701 -0.5840  0.3873  0.6185
  158SAPE  H16X17730   4.297   5.819   8.727  0.7344 -1.2428 -2.1665
  158SAPE  H16Y17731   4.449   5.907   8.752  0.9428  0.6935 -2.0750
  158SAPE  C31717732   4.378   5.914   8.551 -0.6888 -0.1675  0.6772
  158SAPE  H17X17733   4.446   5.998   8.525  2.0046 -2.0152  1.2162
  158SAPE  H17Y17734   4.280   5.924   8.500 -0.8214  0.9866  1.1287
  158SAPE  C31817735   4.443   5.774   8.506  0.3893  0.1110 -0.2533
  158SAPE  H18X17736   4.446   5.772   8.395 -1.1726  0.6436 -0.3241
  158SAPE  H18Y17737   4.386   5.685   8.539 -1.4322  1.0370 -0.7540
  158SAPE  H18Z17738   4.542   5.770   8.555  0.2326  1.9740  0.3108
  159SAPE     N17739   4.809   4.733   6.039  0.4583 -0.0872 -0.3121
  159SAPE   HN117740   4.825   4.652   6.103  1.0606 -1.8414 -2.5619
  159SAPE   HN217741   4.822   4.823   6.089  1.3513 -0.4853  0.2055
  159SAPE   HN317742   4.714   4.731   5.998  0.6256  1.1128 -0.7976
  159SAPE   C1217743   4.911   4.731   5.933  0.2986 -0.7938 -0.4275
  159SAPE  H12A17744   5.004   4.779   5.972  0.1639 -0.8980  0.0169
  159SAPE  H12B17745   4.882   4.809   5.859  0.7558 -0.9861 -0.8118
  159SAPE   C1117746   4.930   4.597   5.871  0.4167  0.4092 -0.2935
  159SAPE  H11A17747   5.009   4.600   5.793  1.2464 -2.1175  0.3523
  159SAPE  H11B17748   4.834   4.557   5.831  0.3911  0.5688 -0.3896
  159SAPE     P17749   4.956   4.361   5.992  0.0500 -0.2039  0.2247
  159SAPE   O1317750   4.816   4.345   5.951  0.0135 -0.6583  0.7462
  159SAPE   O1417751   5.062   4.298   5.915 -0.4358 -0.0953 -0.0440
  159SAPE   O1217752   4.979   4.514   5.982  0.0299  0.2990 -0.7139
  159SAPE   O1117753   4.968   4.326   6.144  0.3848  0.5249 -0.0110
  159SAPE    C117754   4.982   4.195   6.186  0.1444 -0.2972 -0.1682
  159SAPE    HA17755   4.897   4.128   6.157 -0.3776 -0.3536  1.4088
  159SAPE    HB17756   5.080   4.158   6.150  0.5045 -0.0306  0.5245
  159SAPE    C217757   4.994   4.196   6.344  0.2115 -0.1913  0.4875
  159SAPE    HS17758   5.021   4.102   6.396 -0.6704 -0.3969  0.5909
  159SAPE   O2117759   4.858   4.235   6.394 -0.1126  0.1095 -0.3230
  159SAPE   C2117760   4.771   4.135   6.404 -0.4769  0.7070  0.9385
  159SAPE   O2217761   4.791   4.026   6.359 -0.1756  0.4985 -0.2622
  159SAPE   C2217762   4.650   4.174   6.491 -0.5519 -0.1289 -0.2342
  159SAPE   H2R17763   4.692   4.215   6.585 -0.9174 -0.4384  0.0658
  159SAPE   H2S17764   4.599   4.261   6.444  0.7267  1.2346  0.8226
  159SAPE    C317765   5.108   4.295   6.391  0.0881  0.2859  0.0287
  159SAPE    HX17766   5.109   4.382   6.323  0.0803  0.2493 -0.0189
  159SAPE    HY17767   5.195   4.226   6.390  0.0961  0.2673 -1.7704
  159SAPE   O3117768   5.085   4.330   6.523 -0.0582 -0.7221 -0.3606
  159SAPE   C3117769   4.994   4.428   6.550 -0.7495 -0.8321  0.6648
  159SAPE   O3217770   4.949   4.509   6.466  0.3846  0.3787 -0.2424
  159SAPE   C3217771   4.969   4.441   6.695  0.0113  0.1573  0.0843
  159SAPE   H2X17772   5.065   4.413   6.743  0.7982  0.4814 -1.2542
  159SAPE   H2Y17773   4.887   4.375   6.731 -0.4225  0.0945 -0.9957
  159SAPE   C2317774   4.565   4.055   6.528 -0.8978  1.0796  0.2562
  159SAPE   H3R17775   4.625   3.972   6.571 -1.3011 -1.1791 -3.1401
  159SAPE   H3S17776   4.507   4.009   6.446  0.0845  0.3008 -0.0221
  159SAPE   C2417777   4.458   4.090   6.639 -0.3373  0.4853 -0.3316
  159SAPE   H4R17778   4.520   4.096   6.731 -2.3533  0.0539  1.1013
  159SAPE   H4S17779   4.391   4.002   6.647  0.5956 -0.4757 -2.2639
  159SAPE   C2517780   4.366   4.210   6.618 -0.7687 -0.1332 -0.7291
  159SAPE   H5R17781   4.298   4.202   6.532 -0.5320 -0.3334 -0.8996
  159SAPE   C2617782   4.358   4.315   6.704 -0.1383 -0.6081 -0.1995
  159SAPE   H6R17783   4.285   4.396   6.688  0.9084  0.6211  0.9863
  159SAPE   C2717784   4.439   4.346   6.830 -0.4468  0.1361  0.4152
  159SAPE   H7R17785   4.540   4.379   6.798 -0.2232 -0.7046  0.2129
  159SAPE   H7S17786   4.450   4.254   6.892 -1.2986 -1.0463 -1.1103
  159SAPE   C2817787   4.363   4.453   6.903  0.5389 -0.1337  0.0322
  159SAPE   H8R17788   4.328   4.538   6.843 -2.3260 -2.7834 -2.4231
  159SAPE   C2917789   4.337   4.452   7.036 -0.0179 -0.0358  0.0237
  159SAPE   H9R17790   4.272   4.534   7.073 -1.4414 -0.0565 -2.2374
  159SAPE  C21017791   4.356   4.339   7.136 -0.4064 -0.0075 -0.1455
  159SAPE  H10R17792   4.368   4.239   7.089 -0.3341 -0.5563  1.0129
  159SAPE  H10S17793   4.275   4.323   7.211 -0.4501 -1.3727 -0.4592
  159SAPE  C21117794   4.494   4.365   7.193 -0.0609 -0.5908 -0.1495
  159SAPE  H11R17795   4.571   4.362   7.115 -1.4226  3.1236 -1.8595
  159SAPE  C21217796   4.531   4.404   7.318 -0.2203  0.3384  0.0444
  159SAPE  H12R17797   4.640   4.412   7.333 -0.5518  1.7999  2.0647
  159SAPE  C21317798   4.450   4.436   7.433  0.0975 -0.7215  0.1823
  159SAPE  H13R17799   4.463   4.359   7.512  4.9587  0.1075  0.4833
  159SAPE  H13S17800   4.345   4.442   7.396  0.1964 -2.6490 -0.5106
  159SAPE  C21417801   4.502   4.570   7.488 -0.2960 -0.7523 -0.1482
  159SAPE  H14R17802   4.602   4.569   7.532 -0.5433  0.2367  0.4708
  159SAPE  C21517803   4.429   4.684   7.502  0.2467 -0.0846 -0.5368
  159SAPE  H15R17804   4.486   4.766   7.548  0.3728 -0.1897 -0.5058
  159SAPE  C21617805   4.284   4.716   7.468 -0.1435 -0.2300  0.1002
  159SAPE  H16R17806   4.222   4.626   7.485 -0.5573 -0.2812 -1.5765
  159SAPE  H16S17807   4.273   4.733   7.359 -0.4991  0.3475  0.2148
  159SAPE  C21717808   4.225   4.839   7.542 -0.2490 -0.4104 -0.0940
  159SAPE  H17R17809   4.122   4.843   7.500  0.4951  0.2249 -1.9639
  159SAPE  H17S17810   4.283   4.930   7.514  2.7912 -0.7136  4.2560
  159SAPE  C21817811   4.221   4.821   7.691 -0.1607  0.2746  0.1897
  159SAPE  H18R17812   4.170   4.912   7.729 -1.4931 -0.3367 -0.0831
  159SAPE  H18S17813   4.326   4.819   7.728  0.4166 -1.2530 -1.3881
  159SAPE  C21917814   4.153   4.692   7.740  0.3492  0.2030 -0.9848
  159SAPE  H19R17815   4.183   4.601   7.684  1.4525  0.6883 -1.2108
  159SAPE  H19S17816   4.044   4.703   7.721 -0.1500 -4.2082 -1.5633
  159SAPE  C22017817   4.188   4.668   7.888  0.0899 -0.0394 -0.4485
  159SAPE  H20R17818   4.292   4.633   7.899  0.7197  1.6995 -0.5719
  159SAPE  H20S17819   4.113   4.598   7.930  0.7287 -1.0927 -1.0367
  159SAPE  H20T17820   4.172   4.766   7.939  1.0676  0.0832 -0.3750
  159SAPE   C3317821   4.939   4.586   6.747 -0.8423 -0.3327 -0.0813
  159SAPE   H3X17822   4.829   4.602   6.740 -0.7708  0.4556  0.4204
  159SAPE   H3Y17823   4.981   4.667   6.684 -0.7040  1.2059  1.8794
  159SAPE   C3417824   4.981   4.601   6.900  0.4451  0.0769 -0.5119
  159SAPE   H4X17825   5.090   4.621   6.898  0.3782  0.7741  1.4436
  159SAPE   H4Y17826   4.963   4.508   6.956 -3.1153 -0.2978 -1.9772
  159SAPE   C3517827   4.900   4.700   6.980  1.3342 -0.1071  0.2022
  159SAPE   H5X17828   4.796   4.660   6.986  1.2381  0.4026  3.2034
  159SAPE   H5Y17829   4.898   4.788   6.912 -0.6815 -1.3715 -1.5230
  159SAPE   C3617830   4.946   4.720   7.127 -0.0754 -0.3802  0.1367
  159SAPE   H6X17831   4.933   4.824   7.164  1.9608 -0.8405  2.4033
  159SAPE   H6Y17832   5.056   4.708   7.135 -0.1516  0.2046  4.4843
  159SAPE   C3717833   4.873   4.620   7.219  0.8270  0.2027  0.6515
  159SAPE   H7X17834   4.897   4.516   7.187  0.3538  0.3825 -0.3288
  159SAPE   H7Y17835   4.764   4.641   7.211  0.9580  0.6635 -0.0368
  159SAPE   C3817836   4.921   4.632   7.367 -0.6554  0.2488 -0.5184
  159SAPE   H8X17837   5.025   4.597   7.385 -0.9485 -0.4442 -0.1319
  159SAPE   H8Y17838   4.866   4.562   7.433 -1.5033  0.6837 -0.7545
  159SAPE   C3917839   4.921   4.780   7.425 -0.2890 -0.2982 -0.1883
  159SAPE   H9X17840   4.852   4.844   7.365 -0.2762  1.3116  1.4155
  159SAPE   H9Y17841   5.023   4.823   7.432 -1.2419  2.2034 -0.7092
  159SAPE  C31017842   4.860   4.771   7.569 -0.1805  0.6188  0.4352
  159SAPE  H10X17843   4.913   4.689   7.622  0.8115 -0.9642 -2.7100
  159SAPE  H10Y17844   4.750   4.760   7.571 -0.2540  1.3155  0.3107
  159SAPE  C31117845   4.881   4.905   7.636  0.5605  0.0208  0.2669
  159SAPE  H11X17846   4.833   4.981   7.571  0.8871  0.3018  0.3520
  159SAPE  H11Y17847   4.990   4.924   7.644  0.3830  0.3550  2.5416
  159SAPE  C31217848   4.814   4.908   7.772  0.1221  0.2528  0.2723
  159SAPE  H12X17849   4.706   4.897   7.750 -0.3446  2.9599  0.8681
  159SAPE  H12Y17850   4.833   5.004   7.823  2.0609 -0.2888  0.6560
  159SAPE  C31317851   4.854   4.793   7.866  0.6597  0.3711 -0.5388
  159SAPE  H13X17852   4.962   4.788   7.888  0.7736 -2.6516 -1.3330
  159SAPE  H13Y17853   4.820   4.699   7.817  2.6140 -3.0162  3.9421
  159SAPE  C31417854   4.781   4.818   8.001  0.0668 -0.1117 -0.5774
  159SAPE  H14X17855   4.819   4.914   8.042  0.0322 -0.4101  0.1637
  159SAPE  H14Y17856   4.804   4.739   8.075  1.9552  1.1589  0.2735
  159SAPE  C31517857   4.623   4.821   8.005 -0.2477 -0.2827 -0.7051
  159SAPE  H15X17858   4.579   4.729   7.963  0.1016 -0.5875 -0.4065
  159SAPE  H15Y17859   4.605   4.904   7.932  1.9207  0.4758 -0.4531
  159SAPE  C31617860   4.573   4.847   8.149 -0.1148 -0.6227 -0.1308
  159SAPE  H16X17861   4.615   4.944   8.185 -1.6664  0.0999 -0.1902
  159SAPE  H16Y17862   4.611   4.766   8.215 -0.7428 -0.4661  0.4265
  159SAPE  C31717863   4.419   4.841   8.166 -0.1078  0.1411 -0.6280
  159SAPE  H17X17864   4.385   4.774   8.085  0.0244  0.5794 -1.0462
  159SAPE  H17Y17865   4.379   4.942   8.142  0.1989  0.3384 -0.3182
  159SAPE  C31817866   4.375   4.790   8.301 -0.2675  0.1878  0.2339
  159SAPE  H18X17867   4.272   4.749   8.293 -0.2042  0.0585  0.0812
  159SAPE  H18Y17868   4.365   4.871   8.377  2.0581  0.7588  0.0214
  159SAPE  H18Z17869   4.446   4.708   8.329 -0.0051 -0.4785 -2.2089
  160SAPE     N17870   2.334   4.974   6.065 -0.1489 -0.0023  0.6911
  160SAPE   HN117871   2.254   4.909   6.066 -0.7652  0.7357  1.6322
  160SAPE   HN217872   2.303   5.069   6.034  0.5078 -0.6458 -2.2558
  160SAPE   HN317873   2.399   4.943   5.990 -0.5075  0.8991 -0.0159
  160SAPE   C1217874   2.396   4.966   6.201 -0.6823  1.0810  0.9367
  160SAPE  H12A17875   2.502   4.995   6.189 -1.0330  1.5264 -1.8322
  160SAPE  H12B17876   2.402   4.861   6.237 -0.8412  1.4906  2.1924
  160SAPE   C1117877   2.319   5.045   6.307  0.2878  0.5726  0.6371
  160SAPE  H11A17878   2.379   5.054   6.400  0.5150  0.2270  0.5241
  160SAPE  H11B17879   2.235   4.980   6.340  0.7960 -0.6439 -0.3956
  160SAPE     P17880   2.177   5.277   6.299 -0.2326  0.2007 -0.2023
  160SAPE   O1317881   2.161   5.390   6.200 -0.3135 -0.5768 -0.1721
  160SAPE   O1417882   2.053   5.203   6.332  0.4428 -0.2527  0.2444
  160SAPE   O1217883   2.291   5.176   6.253  0.0927 -0.5800 -0.0010
  160SAPE   O1117884   2.233   5.337   6.435  0.0204  0.2953  0.0985
  160SAPE    C117885   2.351   5.414   6.442  0.1547  0.1992 -0.3628
  160SAPE    HA17886   2.428   5.350   6.490 -0.3302  0.3879  0.6959
  160SAPE    HB17887   2.401   5.437   6.346 -3.4095 -0.5200 -2.6090
  160SAPE    C217888   2.340   5.557   6.517  0.1379 -0.4431  0.4779
  160SAPE    HS17889   2.438   5.605   6.536  0.8530 -0.2729 -3.0229
  160SAPE   O2117890   2.266   5.536   6.641 -0.0773 -0.2465  0.7802
  160SAPE   C2117891   2.349   5.487   6.731  0.5129  0.0201  0.4361
  160SAPE   O2217892   2.466   5.453   6.712  0.6142 -0.4805 -0.4216
  160SAPE   C2217893   2.269   5.458   6.863  0.3060 -0.2977  0.3669
  160SAPE   H2R17894   2.189   5.535   6.865  0.4155 -0.0935 -1.3473
  160SAPE   H2S17895   2.227   5.357   6.844 -0.0474  0.2592 -2.1724
  160SAPE    C317896   2.259   5.657   6.439  0.7126  0.1142  0.3123
  160SAPE    HX17897   2.160   5.617   6.410 -0.0029  1.4636  0.8282
  160SAPE    HY17898   2.310   5.666   6.341 -0.3360  0.8354 -0.1801
  160SAPE   O3117899   2.252   5.783   6.511 -0.0273 -0.3483  0.5621
  160SAPE   C3117900   2.139   5.803   6.567 -0.2541 -0.4814 -0.0742
  160SAPE   O3217901   2.046   5.725   6.581  0.2186  0.1691  0.3428
  160SAPE   C3217902   2.141   5.948   6.625  0.1794  0.1587 -0.0785
  160SAPE   H2X17903   2.094   6.023   6.559 -0.3832  1.2380  1.5025
  160SAPE   H2Y17904   2.245   5.979   6.648 -0.0267  2.4852 -1.9147
  160SAPE   C2317905   2.363   5.459   6.992 -0.7151  0.4849  0.0937
  160SAPE   H3R17906   2.455   5.521   6.979  0.8484 -1.7312 -0.1263
  160SAPE   H3S17907   2.384   5.351   7.009 -2.5178 -0.8205 -4.3398
  160SAPE   C2417908   2.294   5.535   7.107  0.6723  0.6900  0.0017
  160SAPE   H4R17909   2.270   5.639   7.076  0.2134  0.0330 -1.9477
  160SAPE   H4S17910   2.355   5.532   7.201  0.6252 -2.1749  0.0249
  160SAPE   C2517911   2.166   5.464   7.152 -0.3783  0.8867 -1.1316
  160SAPE   H5R17912   2.118   5.398   7.079 -2.3335  0.4402  0.4490
  160SAPE   C2617913   2.113   5.460   7.281  0.2785 -0.4137 -0.4447
  160SAPE   H6R17914   2.019   5.406   7.301 -0.1853 -0.1279 -1.7659
  160SAPE   C2717915   2.151   5.529   7.408  0.7268 -0.3612 -0.1068
  160SAPE   H7R17916   2.066   5.551   7.477 -0.0073 -1.3870 -0.6663
  160SAPE   H7S17917   2.202   5.624   7.381  1.3943 -0.3500  1.1033
  160SAPE   C2817918   2.260   5.446   7.469 -0.6514 -0.7223 -0.4563
  160SAPE   H8R17919   2.337   5.411   7.400 -0.6023 -0.5982 -0.4646
  160SAPE   C2917920   2.275   5.409   7.597  0.8031  0.3995  0.3580
  160SAPE   H9R17921   2.362   5.347   7.622 -0.5824 -1.7934  0.0215
  160SAPE  C21017922   2.186   5.437   7.713 -0.2933  0.4220  0.0098
  160SAPE  H10R17923   2.167   5.341   7.765 -0.3730  0.7689  0.6275
  160SAPE  H10S17924   2.089   5.480   7.681  0.5614  0.9606 -1.9879
  160SAPE  C21117925   2.251   5.521   7.823 -0.2115  0.2835 -0.2986
  160SAPE  H11R17926   2.349   5.565   7.798 -0.5962  2.4648  1.6604
  160SAPE  C21217927   2.210   5.544   7.950 -0.7545  0.9194  0.0917
  160SAPE  H12R17928   2.277   5.597   8.018  0.2253 -0.2588  0.0810
  160SAPE  C21317929   2.082   5.498   8.016 -0.4953 -0.7720 -0.1271
  160SAPE  H13R17930   2.031   5.420   7.955  1.0251 -0.8468 -1.3607
  160SAPE  H13S17931   2.017   5.588   8.012 -1.3472 -1.4021 -1.4488
  160SAPE  C21417932   2.095   5.432   8.150  0.9930  0.0942  0.0748
  160SAPE  H14R17933   2.110   5.323   8.146  0.0220 -0.0483  0.1987
  160SAPE  C21517934   2.112   5.493   8.263 -0.8449 -0.7077 -0.4064
  160SAPE  H15R17935   2.085   5.433   8.351 -0.4437  0.2888  0.4229
  160SAPE  C21617936   2.089   5.636   8.288 -0.2943 -0.3468 -0.2140
  160SAPE  H16R17937   1.989   5.652   8.334 -0.7006 -1.8408 -0.5465
  160SAPE  H16S17938   2.095   5.696   8.195  0.6880 -2.4143 -1.5600
  160SAPE  C21717939   2.193   5.682   8.392  0.2500 -0.1415  0.2229
  160SAPE  H17R17940   2.193   5.615   8.480 -4.0240 -2.1033 -1.0107
  160SAPE  H17S17941   2.164   5.786   8.420 -1.6945  0.2582 -2.8247
  160SAPE  C21817942   2.337   5.712   8.337  0.7071 -0.5389 -0.4079
  160SAPE  H18R17943   2.329   5.791   8.260 -2.2414 -1.1530 -0.8599
  160SAPE  H18S17944   2.382   5.622   8.290  1.6335 -1.5472  2.2305
  160SAPE  C21917945   2.423   5.768   8.452  0.2715 -0.0794  0.6722
  160SAPE  H19R17946   2.367   5.859   8.482 -1.3056 -0.1815 -1.7579
  160SAPE  H19S17947   2.516   5.808   8.405  0.6622 -2.8140 -1.0948
  160SAPE  C22017948   2.444   5.677   8.571 -0.1178 -0.4267  0.6052
  160SAPE  H20R17949   2.361   5.681   8.645 -0.7377  1.9147 -0.1124
  160SAPE  H20S17950   2.541   5.698   8.621  1.7398  0.6887 -3.1197
  160SAPE  H20T17951   2.457   5.576   8.528  0.0128 -0.7055  1.2775
  160SAPE   C3317952   2.060   5.962   6.748 -0.6136  0.4541  0.5332
  160SAPE   H3X17953   1.964   5.905   6.744 -0.2459 -0.2419  1.3315
  160SAPE   H3Y17954   2.030   6.068   6.757 -0.2674  0.5542  0.5253
  160SAPE   C3417955   2.130   5.914   6.874 -0.1275  0.4267  0.6182
  160SAPE   H4X17956   2.223   5.969   6.896  1.7315 -2.4113  0.3807
  160SAPE   H4Y17957   2.152   5.805   6.878  0.3938  0.3868 -1.8110
  160SAPE   C3517958   2.032   5.939   6.986  0.5243  0.4005  0.1762
  160SAPE   H5X17959   1.929   5.917   6.953  0.3654  1.6965 -0.2530
  160SAPE   H5Y17960   2.028   6.050   6.997 -0.1533  0.4099 -0.1505
  160SAPE   C3617961   2.070   5.869   7.118  0.1310 -0.6481  0.1798
  160SAPE   H6X17962   2.176   5.895   7.137 -0.3818  1.5862  0.2307
  160SAPE   H6Y17963   2.066   5.758   7.118 -1.7115 -0.6453  2.2088
  160SAPE   C3717964   1.999   5.929   7.236 -0.7777 -0.4967  0.7157
  160SAPE   H7X17965   1.888   5.922   7.231 -0.6777 -1.1860 -1.0179
  160SAPE   H7Y17966   2.015   6.039   7.227  2.6856 -0.8324  1.5349
  160SAPE   C3817967   2.056   5.877   7.372  0.1030 -0.8350 -0.4975
  160SAPE   H8X17968   2.166   5.861   7.375 -0.1443 -2.5094  0.4766
  160SAPE   H8Y17969   1.995   5.787   7.394  1.1427 -1.7091 -1.0633
  160SAPE   C3917970   2.026   5.972   7.490  0.2048  1.1358 -0.2894
  160SAPE   H9X17971   1.926   6.016   7.472 -0.1482  0.0411 -1.0807
  160SAPE   H9Y17972   2.100   6.054   7.495  1.4656 -0.0345  1.4759
  160SAPE  C31017973   2.029   5.895   7.632 -0.0065  0.2372 -0.1548
  160SAPE  H10X17974   2.125   5.849   7.664 -1.1299 -0.8126  1.9113
  160SAPE  H10Y17975   1.951   5.817   7.622 -0.2296  0.6441 -1.9227
  160SAPE  C31117976   1.999   5.999   7.739 -0.1085  0.0691 -0.0649
  160SAPE  H11X17977   1.899   6.046   7.727 -1.6184 -3.5161 -5.4152
  160SAPE  H11Y17978   2.074   6.079   7.729 -0.6301  0.4205 -1.3061
  160SAPE  C31217979   2.005   5.946   7.885 -0.2854  0.2947  0.6292
  160SAPE  H12X17980   2.109   5.919   7.911  0.0346  1.3387  0.4531
  160SAPE  H12Y17981   1.940   5.856   7.882  1.5176 -1.0760  0.8440
  160SAPE  C31317982   1.963   6.044   7.994  0.8307  0.7868 -0.1807
  160SAPE  H13X17983   1.864   6.093   7.984 -0.7894 -1.5683  2.6602
  160SAPE  H13Y17984   2.041   6.123   8.004  1.0578  0.5482 -0.0672
  160SAPE  C31417985   1.958   5.980   8.135  0.0745 -0.4641  0.4746
  160SAPE  H14X17986   2.057   5.929   8.133 -0.2959 -1.1842  0.2537
  160SAPE  H14Y17987   1.879   5.902   8.138 -0.6497  0.0979 -2.0492
  160SAPE  C31517988   1.970   6.079   8.245  0.2680 -0.5149 -0.3049
  160SAPE  H15X17989   2.059   6.143   8.228  1.1182 -1.4053  0.6698
  160SAPE  H15Y17990   2.009   6.032   8.337  0.8181 -0.6938 -0.6242
  160SAPE  C31617991   1.846   6.166   8.258  0.4480 -0.2903 -0.2655
  160SAPE  H16X17992   1.806   6.204   8.161 -0.1564  0.7357  0.3642
  160SAPE  H16Y17993   1.877   6.253   8.320  1.9596 -1.0692  0.1162
  160SAPE  C31717994   1.714   6.097   8.330 -0.1775  0.2315 -0.9412
  160SAPE  H17X17995   1.681   6.025   8.252 -1.2500 -1.2473  0.7945
  160SAPE  H17Y17996   1.640   6.179   8.347  0.2721  0.4791 -0.1274
  160SAPE  C31817997   1.727   6.020   8.460  0.5520  0.8321 -0.1797
  160SAPE  H18X17998   1.628   5.973   8.475  0.0428  0.9488 -2.7920
  160SAPE  H18Y17999   1.748   6.080   8.551  1.5099 -1.0551  0.9097
  160SAPE  H18Z18000   1.814   5.951   8.452  0.9166  1.3593 -0.8680
  161SAPE     N18001   4.954   1.807   5.931  0.1051 -0.2709 -1.1522
  161SAPE   HN118002   4.983   1.903   5.905 -0.7873  0.1704 -0.5657
  161SAPE   HN218003   5.018   1.731   5.901  0.7670 -0.4988  0.7129
  161SAPE   HN318004   4.863   1.782   5.887 -1.0644 -1.9785  1.9612
  161SAPE   C1218005   4.937   1.797   6.081  0.1258 -0.3426  0.1574
  161SAPE  H12A18006   5.034   1.821   6.130  0.8912 -0.4764 -1.2580
  161SAPE  H12B18007   4.915   1.691   6.107 -0.1381 -0.0491  1.1814
  161SAPE   C1118008   4.824   1.888   6.140  0.7643 -0.5688  0.0776
  161SAPE  H11A18009   4.840   1.892   6.250 -1.9304 -4.1039  0.7987
  161SAPE  H11B18010   4.722   1.851   6.117  0.3237  0.2457  0.6622
  161SAPE     P18011   4.867   2.151   6.148  0.3537 -0.0104  0.0045
  161SAPE   O1318012   4.984   2.202   6.076  0.0325 -0.0517  0.0433
  161SAPE   O1418013   4.749   2.242   6.147  0.1073  0.3272 -0.5931
  161SAPE   O1218014   4.816   2.018   6.086 -0.2407 -0.4624 -0.3042
  161SAPE   O1118015   4.906   2.118   6.294  0.4085 -0.6597  0.3110
  161SAPE    C118016   4.807   2.091   6.403  0.0328 -0.2807 -0.7877
  161SAPE    HA18017   4.773   2.189   6.443  1.7100 -0.1010  0.3041
  161SAPE    HB18018   4.721   2.033   6.365 -0.5953  0.1869 -0.1065
  161SAPE    C218019   4.866   2.009   6.532  0.1953  0.0457  0.1987
  161SAPE    HS18020   4.924   2.090   6.580  1.2396  0.0448 -0.9958
  161SAPE   O2118021   4.942   1.899   6.490 -0.2125 -0.3652  0.5292
  161SAPE   C2118022   5.067   1.898   6.535 -0.6347  0.1644 -1.0551
  161SAPE   O2218023   5.114   1.979   6.615  1.0261  0.3896  0.0088
  161SAPE   C2218024   5.147   1.790   6.455 -0.2108 -0.1340 -0.5892
  161SAPE   H2R18025   5.148   1.816   6.347 -2.1778 -0.2363 -0.6683
  161SAPE   H2S18026   5.254   1.795   6.482 -0.4053  1.4679 -0.0145
  161SAPE    C318027   4.749   1.976   6.623 -0.1955 -0.1616 -0.5075
  161SAPE    HX18028   4.699   1.889   6.576  1.6401 -1.4775 -0.1457
  161SAPE    HY18029   4.676   2.057   6.646  1.9125  1.4506  0.8562
  161SAPE   O3118030   4.802   1.920   6.749 -0.3305  0.5726 -0.2213
  161SAPE   C3118031   4.842   2.016   6.836  0.2176 -0.0172  0.6665
  161SAPE   O3218032   4.809   2.135   6.823 -0.5731  0.1838 -0.3919
  161SAPE   C3218033   4.922   1.951   6.953 -0.3299 -0.0953 -0.2251
  161SAPE   H2X18034   4.999   1.883   6.909  0.0747  0.1623  0.0788
  161SAPE   H2Y18035   4.848   1.897   7.016 -0.8551 -0.0564 -0.7965
  161SAPE   C2318036   5.099   1.642   6.463  0.1858 -0.6930 -0.3440
  161SAPE   H3R18037   5.139   1.583   6.377  0.5994 -0.0926 -0.5702
  161SAPE   H3S18038   4.991   1.625   6.442  0.4595 -1.7004 -1.0188
  161SAPE   C2418039   5.162   1.568   6.580 -0.4374  0.6059  0.1887
  161SAPE   H4R18040   5.271   1.588   6.585 -0.4670  0.5242  1.8156
  161SAPE   H4S18041   5.167   1.460   6.553  0.9343 -0.2212  3.2295
  161SAPE   C2518042   5.093   1.602   6.716  0.2300 -1.3512 -0.0065
  161SAPE   H5R18043   5.000   1.552   6.747 -0.0515  0.1691  1.7061
  161SAPE   C2618044   5.156   1.677   6.810 -0.1246 -0.3993  0.0147
  161SAPE   H6R18045   5.105   1.697   6.906  0.9992  0.3698  0.4703
  161SAPE   C2718046   5.293   1.737   6.798 -0.4656 -0.2790  0.0340
  161SAPE   H7R18047   5.307   1.773   6.694 -2.7460  0.2169 -0.1658
  161SAPE   H7S18048   5.367   1.655   6.808  0.6503  0.4394 -1.9296
  161SAPE   C2818049   5.319   1.859   6.881 -0.4396  0.4092  0.1857
  161SAPE   H8R18050   5.268   1.949   6.842  0.2142  0.2168 -1.1711
  161SAPE   C2918051   5.409   1.864   6.984 -0.5280  0.9502 -0.0025
  161SAPE   H9R18052   5.437   1.955   7.040  0.4223  2.7542 -3.1683
  161SAPE  C21018053   5.496   1.748   7.031  0.3777 -0.0291  0.6042
  161SAPE  H10R18054   5.538   1.701   6.940 -4.7116 -0.7225 -1.7011
  161SAPE  H10S18055   5.426   1.675   7.077 -2.7667  2.7231  0.5505
  161SAPE  C21118056   5.607   1.767   7.134  0.0863 -0.1089  0.3169
  161SAPE  H11R18057   5.685   1.842   7.116 -0.9537  1.4768  2.0222
  161SAPE  C21218058   5.602   1.731   7.263 -0.4138  0.3814  0.1726
  161SAPE  H12R18059   5.684   1.770   7.325 -0.1876  0.6883 -0.3185
  161SAPE  C21318060   5.509   1.646   7.338 -0.3723 -0.1835  0.5125
  161SAPE  H13R18061   5.546   1.545   7.365  0.7787  0.0542 -0.0822
  161SAPE  H13S18062   5.411   1.642   7.287 -0.5521  1.9128  0.5930
  161SAPE  C21418063   5.472   1.723   7.459  0.2550 -0.0490 -0.9216
  161SAPE  H14R18064   5.374   1.771   7.451  1.4799  2.4697 -1.9333
  161SAPE  C21518065   5.537   1.736   7.578  0.2478 -0.5178 -0.3012
  161SAPE  H15R18066   5.488   1.786   7.662  1.0878  1.0737 -0.7312
  161SAPE  C21618067   5.666   1.665   7.618 -0.2449  0.9054 -0.3118
  161SAPE  H16R18068   5.703   1.595   7.540 -2.4186 -0.8191  0.0847
  161SAPE  H16S18069   5.629   1.610   7.708  2.2603  2.3998  1.7482
  161SAPE  C21718070   5.777   1.756   7.670 -0.1097 -1.0769 -0.4511
  161SAPE  H17R18071   5.747   1.793   7.770  1.5784  0.9223 -0.6219
  161SAPE  H17S18072   5.760   1.841   7.601 -0.6790 -0.8033  0.0186
  161SAPE  C21818073   5.909   1.680   7.673  0.8077  0.4492  0.0145
  161SAPE  H18R18074   5.933   1.651   7.568 -0.2833  1.6289 -0.6041
  161SAPE  H18S18075   5.897   1.589   7.735  1.6729 -0.0925 -0.6024
  161SAPE  C21918076   6.014   1.766   7.737  0.0085  0.2238 -0.3807
  161SAPE  H19R18077   5.978   1.813   7.831 -1.5449 -0.9750 -0.3435
  161SAPE  H19S18078   6.040   1.851   7.671  1.1216 -0.3287 -0.6938
  161SAPE  C22018079   6.137   1.677   7.764 -0.3077  0.2076  0.5906
  161SAPE  H20R18080   6.210   1.737   7.822 -1.1501  1.3013  0.5438
  161SAPE  H20S18081   6.193   1.650   7.671  0.1669  0.5399  0.7783
  161SAPE  H20T18082   6.121   1.583   7.821  3.4151 -0.8345  0.1983
  161SAPE   C3318083   5.006   2.051   7.040 -0.1439 -0.7128  0.6651
  161SAPE   H3X18084   4.942   2.135   7.077 -1.0855 -1.3482  0.5171
  161SAPE   H3Y18085   5.084   2.102   6.980  0.8758 -1.0065  1.7136
  161SAPE   C3418086   5.078   1.977   7.149  0.3642 -0.3821 -0.3565
  161SAPE   H4X18087   5.143   1.894   7.112  0.7045 -0.6202  0.7287
  161SAPE   H4Y18088   5.003   1.917   7.205  0.6691 -1.7131 -1.3199
  161SAPE   C3518089   5.163   2.074   7.241  0.3185 -0.3852  0.0488
  161SAPE   H5X18090   5.097   2.162   7.253  1.7544  0.4876  1.9998
  161SAPE   H5Y18091   5.251   2.120   7.192 -0.5054  0.5187 -0.6197
  161SAPE   C3618092   5.217   2.013   7.375 -0.2705 -0.0685 -0.4844
  161SAPE   H6X18093   5.286   1.933   7.341 -0.1697 -0.0851 -0.2439
  161SAPE   H6Y18094   5.132   1.964   7.428 -1.2016 -1.2305 -2.8997
  161SAPE   C3718095   5.294   2.104   7.469 -0.0031 -0.3558  0.1908
  161SAPE   H7X18096   5.249   2.206   7.464 -0.7308 -0.7240 -1.3855
  161SAPE   H7Y18097   5.398   2.113   7.430  0.0379  0.4960  0.4525
  161SAPE   C3818098   5.299   2.047   7.613 -0.0120 -0.1862 -0.1569
  161SAPE   H8X18099   5.361   2.121   7.667  1.7689 -1.7331  0.0144
  161SAPE   H8Y18100   5.341   1.944   7.619 -3.7322 -1.8985 -0.6469
  161SAPE   C3918101   5.160   2.055   7.665 -0.2087  0.4591 -0.4148
  161SAPE   H9X18102   5.094   1.974   7.627 -2.3807  1.8261  0.2343
  161SAPE   H9Y18103   5.117   2.154   7.640 -0.7621 -0.0337 -1.4703
  161SAPE  C31018104   5.147   2.039   7.821  0.2446  0.6444 -0.6628
  161SAPE  H10X18105   5.041   2.040   7.856  0.7909 -1.7628  1.3636
  161SAPE  H10Y18106   5.220   2.109   7.867  0.6411 -0.7408  0.9121
  161SAPE  C31118107   5.211   1.908   7.868  0.7711  0.8362  0.6470
  161SAPE  H11X18108   5.321   1.920   7.882  1.2690 -1.2439 -0.9778
  161SAPE  H11Y18109   5.208   1.845   7.777  0.0621  1.9670 -0.1426
  161SAPE  C31218110   5.143   1.836   7.983 -0.6499  0.4290 -0.0247
  161SAPE  H12X18111   5.198   1.742   8.009 -2.4731 -0.4290  0.9311
  161SAPE  H12Y18112   5.040   1.810   7.949 -0.4181  0.0892 -0.4724
  161SAPE  C31318113   5.138   1.914   8.112  0.3031 -0.1885  0.6309
  161SAPE  H13X18114   5.106   2.015   8.077  1.8139  0.0608 -0.1031
  161SAPE  H13Y18115   5.236   1.923   8.162 -0.3949  0.1529  1.9762
  161SAPE  C31418116   5.043   1.854   8.209  0.2973 -0.0841 -0.0207
  161SAPE  H14X18117   5.076   1.750   8.229 -0.0229  0.0922  1.5223
  161SAPE  H14Y18118   4.947   1.842   8.154  0.0403  1.7902 -0.0378
  161SAPE  C31518119   5.022   1.936   8.343 -0.6175  0.1761  0.4465
  161SAPE  H15X18120   5.010   2.044   8.320 -0.2996  0.5674  1.9996
  161SAPE  H15Y18121   5.121   1.931   8.393 -0.4654 -0.9363  0.0797
  161SAPE  C31618122   4.902   1.886   8.426 -1.0970  0.2381  0.1225
  161SAPE  H16X18123   4.815   1.880   8.357 -0.2527  1.3061 -1.0669
  161SAPE  H16Y18124   4.869   1.962   8.500 -0.9112 -0.6364  1.1237
  161SAPE  C31718125   4.931   1.763   8.510  0.4477  0.2194  0.0191
  161SAPE  H17X18126   5.027   1.776   8.565  0.0556  2.3712  0.2675
  161SAPE  H17Y18127   4.954   1.677   8.442  0.3907  1.6463 -1.8864
  161SAPE  C31818128   4.809   1.726   8.606 -0.3294 -0.1210 -0.2044
  161SAPE  H18X18129   4.830   1.624   8.645  1.8538  0.2850 -0.1686
  161SAPE  H18Y18130   4.717   1.722   8.545 -2.1038  2.1812  2.0889
  161SAPE  H18Z18131   4.792   1.795   8.692 -0.3365 -1.0707  0.5652
  162SAPE     N18132   3.917   6.041   6.521  0.3251 -0.2313 -0.3591
  162SAPE   HN118133   3.989   6.100   6.567 -1.1261  1.0091  0.4061
  162SAPE   HN218134   3.850   6.113   6.486  0.6846  0.6171  0.6401
  162SAPE   HN318135   3.871   5.986   6.596 -2.0771  1.0963 -0.7741
  162SAPE   C1218136   3.973   5.936   6.424  0.4461 -0.1629  0.5833
  162SAPE  H12A18137   4.060   5.982   6.372  1.6305 -1.4292  1.3560
  162SAPE  H12B18138   3.887   5.920   6.356  0.5210  0.6874  0.2794
  162SAPE   C1118139   4.021   5.813   6.500  0.3569  0.0123  0.2073
  162SAPE  H11A18140   4.099   5.847   6.572  0.2284  2.2888 -0.6460
  162SAPE  H11B18141   4.073   5.750   6.424  0.1869  1.0449 -0.7875
  162SAPE     P18142   3.865   5.610   6.551 -0.1307  0.3780  0.0064
  162SAPE   O1318143   3.731   5.635   6.496  0.1878  0.0505  0.7793
  162SAPE   O1418144   3.959   5.516   6.491 -0.3443 -0.3577  0.8130
  162SAPE   O1218145   3.914   5.758   6.572  0.3520  0.3526  0.0322
  162SAPE   O1118146   3.845   5.571   6.705 -0.4188  0.0538  0.1732
  162SAPE    C118147   3.918   5.467   6.768  0.0560 -0.1423  0.0513
  162SAPE    HA18148   3.890   5.373   6.714  0.1795  0.4700 -1.1134
  162SAPE    HB18149   4.027   5.476   6.755 -0.0332 -1.1724 -1.7901
  162SAPE    C218150   3.893   5.460   6.919  0.1073  0.7213 -0.6465
  162SAPE    HS18151   3.923   5.364   6.965 -0.8420  1.9371  2.8171
  162SAPE   O2118152   3.753   5.484   6.950 -0.0756  0.2865 -0.5738
  162SAPE   C2118153   3.675   5.372   6.919 -0.3643 -0.7552 -0.2074
  162SAPE   O2218154   3.724   5.270   6.876  0.1153 -0.2688 -0.3045
  162SAPE   C2218155   3.529   5.408   6.934  0.7562  0.1558  0.4610
  162SAPE   H2R18156   3.529   5.518   6.924 -3.0772  0.1307 -1.8226
  162SAPE   H2S18157   3.473   5.355   6.853  1.3920 -1.4956  1.0489
  162SAPE    C318158   3.988   5.563   6.991 -0.2087  0.5913 -0.2284
  162SAPE    HX18159   3.970   5.661   6.942 -0.8992 -0.1788 -1.5805
  162SAPE    HY18160   4.095   5.538   6.974  0.0200 -0.0575  1.8972
  162SAPE   O3118161   3.970   5.564   7.132 -0.5009  0.3872  0.0525
  162SAPE   C3118162   3.866   5.629   7.182 -0.5580 -0.2317 -0.1504
  162SAPE   O3218163   3.777   5.682   7.119 -0.4941 -0.3425 -0.3045
  162SAPE   C3218164   3.856   5.587   7.330 -0.4482  0.2248  0.3748
  162SAPE   H2X18165   3.938   5.635   7.388 -0.4193  1.8139 -0.9113
  162SAPE   H2Y18166   3.860   5.476   7.334 -1.8305 -0.1541 -3.6636
  162SAPE   C2318167   3.476   5.352   7.071 -0.6765  0.4028 -0.5163
  162SAPE   H3R18168   3.550   5.372   7.152 -0.0887 -1.0290 -0.6730
  162SAPE   H3S18169   3.465   5.242   7.061 -0.1671  0.2959  0.0360
  162SAPE   C2418170   3.343   5.419   7.127  0.1709  0.8090  0.1482
  162SAPE   H4R18171   3.307   5.361   7.215 -0.0056  2.8797  1.5037
  162SAPE   H4S18172   3.270   5.408   7.044  2.2287 -0.8006 -1.5687
  162SAPE   C2518173   3.359   5.565   7.164  0.0627 -1.1645  0.1141
  162SAPE   H5R18174   3.450   5.617   7.130  0.4707 -1.9720 -0.0618
  162SAPE   C2618175   3.281   5.625   7.261 -0.0180  0.0371  0.3471
  162SAPE   H6R18176   3.307   5.726   7.295 -0.0435  0.1788 -0.0552
  162SAPE   C2718177   3.166   5.555   7.340  0.1018  0.2720  0.0456
  162SAPE   H7R18178   3.216   5.474   7.398 -3.0626 -0.6687  1.6939
  162SAPE   H7S18179   3.085   5.502   7.286 -1.5041  2.3807  0.2507
  162SAPE   C2818180   3.090   5.648   7.427 -0.3044 -0.0830 -0.1143
  162SAPE   H8R18181   3.010   5.703   7.375 -0.2325  0.0517 -0.0821
  162SAPE   C2918182   3.089   5.667   7.559 -0.2010 -0.3746 -0.7396
  162SAPE   H9R18183   3.010   5.732   7.599 -0.6602 -0.2279 -1.8374
  162SAPE  C21018184   3.185   5.618   7.659 -0.6803 -0.0857  0.4880
  162SAPE  H10R18185   3.266   5.560   7.609 -1.2257 -0.2850 -0.1827
  162SAPE  H10S18186   3.132   5.545   7.724 -2.6368  0.5936 -0.2706
  162SAPE  C21118187   3.225   5.728   7.759  0.3255 -0.0809 -0.1527
  162SAPE  H11R18188   3.261   5.813   7.700  1.9335 -1.4594 -1.2746
  162SAPE  C21218189   3.232   5.729   7.895  0.1328  0.2470  0.4969
  162SAPE  H12R18190   3.268   5.820   7.945 -1.3704  0.7947  0.6375
  162SAPE  C21318191   3.192   5.612   7.985 -0.5857  0.6210 -0.7916
  162SAPE  H13R18192   3.182   5.524   7.918  0.4208 -0.6387  0.6289
  162SAPE  H13S18193   3.087   5.621   8.020 -0.2608  1.1710  0.0598
  162SAPE  C21418194   3.284   5.565   8.097  0.2484 -0.6227  0.1218
  162SAPE  H14R18195   3.376   5.513   8.066  0.2836 -1.0218  0.8736
  162SAPE  C21518196   3.249   5.575   8.227 -0.6966 -0.3030 -0.3284
  162SAPE  H15R18197   3.322   5.557   8.307  2.4215  2.5479 -2.2499
  162SAPE  C21618198   3.129   5.644   8.292  0.0971  0.6828  0.3148
  162SAPE  H16R18199   3.047   5.666   8.220 -1.9317 -0.4031  2.1803
  162SAPE  H16S18200   3.159   5.746   8.326 -1.7677  1.2434  0.4179
  162SAPE  C21718201   3.069   5.563   8.408  0.3223  1.0369 -0.8047
  162SAPE  H17R18202   3.141   5.543   8.491 -2.3183 -1.9913  0.9813
  162SAPE  H17S18203   3.043   5.463   8.368 -2.6481  1.4651 -0.1257
  162SAPE  C21818204   2.955   5.626   8.480  0.3555 -0.0517 -0.3734
  162SAPE  H18R18205   2.862   5.654   8.426 -0.1872 -1.3349 -0.1225
  162SAPE  H18S18206   2.991   5.719   8.530 -1.2522 -0.4619  1.6493
  162SAPE  C21918207   2.893   5.529   8.580  0.0302 -0.8129 -0.3514
  162SAPE  H19R18208   2.835   5.569   8.665  0.4796 -2.1139  0.5905
  162SAPE  H19S18209   2.974   5.476   8.634  2.4994  0.9295 -2.1361
  162SAPE  C22018210   2.802   5.422   8.519 -0.2354 -0.4724 -0.2885
  162SAPE  H20R18211   2.864   5.366   8.445  1.3965  0.1233  0.5876
  162SAPE  H20S18212   2.707   5.460   8.476 -0.6507 -1.5528 -0.3774
  162SAPE  H20T18213   2.765   5.351   8.596 -0.4253  0.2200  0.2687
  162SAPE   C3318214   3.717   5.625   7.390 -0.0590 -0.6854 -0.6752
  162SAPE   H3X18215   3.640   5.565   7.337  0.1292  0.2949 -2.1028
  162SAPE   H3Y18216   3.677   5.726   7.366 -0.9273 -1.2512 -1.6858
  162SAPE   C3418217   3.725   5.591   7.534 -0.1754  0.1709 -1.0126
  162SAPE   H4X18218   3.783   5.665   7.594 -0.8011 -0.7036  0.7390
  162SAPE   H4Y18219   3.767   5.488   7.538 -0.5295  0.0291 -0.9171
  162SAPE   C3518220   3.591   5.588   7.604 -0.4277 -0.7928 -0.0059
  162SAPE   H5X18221   3.542   5.494   7.570  0.6439 -1.6635  0.8294
  162SAPE   H5Y18222   3.513   5.662   7.574  0.4737 -0.5404 -1.9004
  162SAPE   C3618223   3.595   5.587   7.760  0.1971 -0.1250  0.5263
  162SAPE   H6X18224   3.627   5.488   7.800  1.5913  0.0819 -0.0429
  162SAPE   H6Y18225   3.489   5.598   7.795 -0.3602  4.2179 -1.8145
  162SAPE   C3718226   3.678   5.707   7.814  0.0444 -0.3313 -0.6665
  162SAPE   H7X18227   3.648   5.794   7.753 -3.0592 -0.1723  0.9138
  162SAPE   H7Y18228   3.782   5.675   7.791  0.7165  1.7557 -0.7644
  162SAPE   C3818229   3.657   5.735   7.965 -0.1099 -0.1066  0.7157
  162SAPE   H8X18230   3.551   5.768   7.968  0.4156  1.6537  1.4500
  162SAPE   H8Y18231   3.717   5.822   8.000 -1.8072  0.8293  1.4108
  162SAPE   C3918232   3.680   5.607   8.053 -0.5753 -0.3403 -0.6183
  162SAPE   H9X18233   3.779   5.557   8.043 -0.3217 -0.4324  1.8756
  162SAPE   H9Y18234   3.600   5.533   8.033 -0.5240 -0.8237  0.8528
  162SAPE  C31018235   3.671   5.656   8.200  0.5449 -0.5978 -0.5714
  162SAPE  H10X18236   3.578   5.715   8.217 -0.5556 -2.8608  1.9487
  162SAPE  H10Y18237   3.751   5.733   8.217  0.1144  0.2129 -2.0501
  162SAPE  C31118238   3.666   5.546   8.308 -0.4749  0.1942  0.4460
  162SAPE  H11X18239   3.736   5.461   8.294 -0.1448  0.2349  1.7049
  162SAPE  H11Y18240   3.566   5.499   8.294  0.0775 -0.9394  0.2133
  162SAPE  C31218241   3.682   5.607   8.447  0.4468  0.2347  0.4101
  162SAPE  H12X18242   3.650   5.538   8.528  1.0596  1.4791  1.7746
  162SAPE  H12Y18243   3.617   5.696   8.458  1.0824  0.8468 -0.6211
  162SAPE  C31318244   3.817   5.662   8.482  0.2918 -0.0159 -0.5222
  162SAPE  H13X18245   3.811   5.713   8.581 -1.0746 -0.7169 -0.2219
  162SAPE  H13Y18246   3.857   5.737   8.411  0.6308  0.1178 -0.1965
  162SAPE  C31418247   3.923   5.548   8.508 -0.5852 -0.5876 -0.6238
  162SAPE  H14X18248   3.950   5.493   8.415 -0.3675  0.4086 -1.1678
  162SAPE  H14Y18249   3.878   5.488   8.590  0.5693 -1.3729 -0.5432
  162SAPE  C31518250   4.060   5.609   8.558 -0.5721 -0.3659 -0.2105
  162SAPE  H15X18251   4.049   5.679   8.644  1.7078  0.3876 -0.4410
  162SAPE  H15Y18252   4.108   5.660   8.472  1.8082  2.7628  2.6666
  162SAPE  C31618253   4.156   5.495   8.595 -0.3843  0.3469 -0.0419
  162SAPE  H16X18254   4.259   5.525   8.621 -0.3133 -0.5832  0.8132
  162SAPE  H16Y18255   4.167   5.442   8.498 -1.8649  1.0093 -0.6114
  162SAPE  C31718256   4.120   5.397   8.710  0.0035  0.1366 -0.3980
  162SAPE  H17X18257   4.171   5.299   8.695  1.4374  1.0215 -1.6241
  162SAPE  H17Y18258   4.010   5.385   8.703  0.0848 -0.3788 -0.8397
  162SAPE  C31818259   4.148   5.461   8.846  0.4748  0.1168  0.2114
  162SAPE  H18X18260   4.105   5.564   8.849 -0.5191 -0.2069 -1.5598
  162SAPE  H18Y18261   4.257   5.459   8.868  0.7825  1.9637 -0.8857
  162SAPE  H18Z18262   4.109   5.398   8.928  1.8083 -1.4682 -0.3344
  163SAPE     N18263   1.381   6.406   6.185 -0.1823 -0.5264  0.4400
  163SAPE   HN118264   1.428   6.498   6.191  0.3440 -0.7768  0.2669
  163SAPE   HN218265   1.322   6.399   6.100  3.3579 -1.8611 -2.1662
  163SAPE   HN318266   1.326   6.382   6.270 -0.1021 -3.8652 -0.2809
  163SAPE   C1218267   1.500   6.309   6.175 -0.1482  1.2178 -0.7120
  163SAPE  H12A18268   1.593   6.366   6.152  1.7713 -1.7736 -0.8832
  163SAPE  H12B18269   1.479   6.230   6.100 -0.5183 -2.3820  2.8115
  163SAPE   C1118270   1.507   6.229   6.312 -0.3504 -0.2555  1.0026
  163SAPE  H11A18271   1.515   6.306   6.391 -1.8189 -0.0659  0.9930
  163SAPE  H11B18272   1.596   6.162   6.310  1.4234  2.0043 -0.5500
  163SAPE     P18273   1.339   6.032   6.375  0.0279 -0.0559 -0.5998
  163SAPE   O1318274   1.197   6.028   6.435 -0.3097 -0.0679 -0.1158
  163SAPE   O1418275   1.357   5.935   6.267  0.0049  0.3846  0.8442
  163SAPE   O1218276   1.382   6.172   6.338  0.3720  0.3459  0.1886
  163SAPE   O1118277   1.438   5.996   6.496 -0.4045  0.3240  0.4935
  163SAPE    C118278   1.457   6.078   6.609  0.1654 -0.0378 -0.0738
  163SAPE    HA18279   1.552   6.058   6.663  0.6752  0.3887 -0.8110
  163SAPE    HB18280   1.477   6.182   6.575 -1.2919 -0.6523 -3.1368
  163SAPE    C218281   1.339   6.057   6.710 -0.1533  0.3514 -0.0376
  163SAPE    HS18282   1.249   6.099   6.660 -0.0769  0.9066  0.2750
  163SAPE   O2118283   1.367   6.129   6.832  0.1216  0.5063  0.4902
  163SAPE   C2118284   1.269   6.130   6.926  0.3015  0.1058 -1.2122
  163SAPE   O2218285   1.150   6.112   6.906  0.1450 -0.1462  0.9274
  163SAPE   C2218286   1.333   6.146   7.065  0.1460 -0.4576  0.5526
  163SAPE   H2R18287   1.367   6.250   7.085 -1.3224  0.0462  0.6053
  163SAPE   H2S18288   1.250   6.131   7.137 -1.2802  0.2005 -0.8795
  163SAPE    C318289   1.315   5.907   6.738 -0.0483  0.4038 -0.4886
  163SAPE    HX18290   1.412   5.868   6.775  1.0810  2.6642 -0.8760
  163SAPE    HY18291   1.297   5.846   6.646  0.9487  0.8714 -1.0107
  163SAPE   O3118292   1.229   5.879   6.851  0.2458 -0.4812  0.3824
  163SAPE   C3118293   1.136   5.781   6.824  0.4313 -1.6410 -0.4926
  163SAPE   O3218294   1.110   5.725   6.725  0.1658  0.3374  0.9741
  163SAPE   C3218295   1.072   5.744   6.960  0.3477  0.0495 -0.0464
  163SAPE   H2X18296   1.059   5.633   6.966 -2.0339  0.3724  1.9382
  163SAPE   H2Y18297   0.970   5.788   6.955  0.5652  0.4623 -1.3481
  163SAPE   C2318298   1.445   6.043   7.090 -0.2958  0.7974 -0.5837
  163SAPE   H3R18299   1.538   6.069   7.034 -1.8791  0.9754 -3.2953
  163SAPE   H3S18300   1.396   5.948   7.060 -0.3806  0.9146 -0.8236
  163SAPE   C2418301   1.479   6.022   7.245  0.0124 -0.2007  0.2611
  163SAPE   H4R18302   1.386   5.998   7.301  1.1849 -1.6720  1.6344
  163SAPE   H4S18303   1.512   6.123   7.276 -0.2359  0.9208 -2.7460
  163SAPE   C2518304   1.585   5.923   7.271  0.5130  0.3317  0.4133
  163SAPE   H5R18305   1.629   5.876   7.182  0.7952  0.8549  0.2720
  163SAPE   C2618306   1.612   5.872   7.401  0.4120 -0.6950  0.6366
  163SAPE   H6R18307   1.695   5.802   7.417  1.0826  0.0748  0.6163
  163SAPE   C2718308   1.548   5.906   7.526 -0.5850 -0.0719  0.4041
  163SAPE   H7R18309   1.520   5.814   7.581  0.7257 -0.9832 -0.4147
  163SAPE   H7S18310   1.455   5.962   7.504  0.1329  2.1658  2.4994
  163SAPE   C2818311   1.616   6.005   7.610  0.7758 -1.0001 -0.1790
  163SAPE   H8R18312   1.654   6.094   7.557 -0.3920 -1.7689 -2.4646
  163SAPE   C2918313   1.637   6.005   7.741 -0.0364 -0.1181 -0.5594
  163SAPE   H9R18314   1.690   6.082   7.800 -2.6286  0.1783  1.6361
  163SAPE  C21018315   1.603   5.879   7.830  0.4577 -0.5700  0.2933
  163SAPE  H10R18316   1.703   5.833   7.843  0.6244 -0.7542 -1.4074
  163SAPE  H10S18317   1.538   5.806   7.777  0.9475 -1.2378  0.5999
  163SAPE  C21118318   1.542   5.910   7.962 -0.1211  0.3286 -0.4922
  163SAPE  H11R18319   1.497   6.010   7.970  1.1695  0.9819 -1.0728
  163SAPE  C21218320   1.563   5.830   8.069  0.2288  0.1323  0.2381
  163SAPE  H12R18321   1.508   5.854   8.161  0.8617  1.6030  0.2680
  163SAPE  C21318322   1.619   5.691   8.069 -0.5117 -0.2111  0.5561
  163SAPE  H13R18323   1.694   5.670   7.989 -1.0581 -3.3621  0.7298
  163SAPE  H13S18324   1.541   5.619   8.037 -1.2902  0.2068  1.4597
  163SAPE  C21418325   1.685   5.676   8.203 -0.7365  0.1064 -0.0455
  163SAPE  H14R18326   1.775   5.736   8.225  0.8915 -2.4087  0.5098
  163SAPE  C21518327   1.657   5.581   8.289  0.4298  0.8865  0.0954
  163SAPE  H15R18328   1.709   5.576   8.386 -1.0174 -1.8908  0.8449
  163SAPE  C21618329   1.556   5.469   8.286 -0.0338  0.5151  0.2658
  163SAPE  H16R18330   1.494   5.472   8.194 -0.2481  3.9836  0.4056
  163SAPE  H16S18331   1.501   5.485   8.382  2.0383 -0.0592  1.6104
  163SAPE  C21718332   1.617   5.329   8.283 -0.0892 -0.2089  0.2748
  163SAPE  H17R18333   1.719   5.319   8.326  0.9323  2.5348 -1.2733
  163SAPE  H17S18334   1.638   5.314   8.175  0.4815  1.7961  0.0664
  163SAPE  C21818335   1.515   5.229   8.339  0.4676 -0.3481 -0.2998
  163SAPE  H18R18336   1.410   5.262   8.323  0.3086 -0.3899  0.6508
  163SAPE  H18S18337   1.533   5.204   8.445 -1.8033 -0.8986 -0.0009
  163SAPE  C21918338   1.530   5.090   8.282  1.1516  0.3936 -0.2578
  163SAPE  H19R18339   1.626   5.051   8.323  0.0699 -0.8984  1.2095
  163SAPE  H19S18340   1.537   5.100   8.172 -0.4276 -0.5736 -0.4728
  163SAPE  C22018341   1.419   4.991   8.321 -0.6124  0.1962  0.1794
  163SAPE  H20R18342   1.448   4.899   8.265  3.0054  2.4403 -2.0624
  163SAPE  H20S18343   1.322   5.023   8.277 -0.9810 -1.8321 -0.6093
  163SAPE  H20T18344   1.407   4.977   8.430 -4.3761 -0.1259 -0.1510
  163SAPE   C3318345   1.148   5.781   7.089 -0.1325 -0.5365  0.6068
  163SAPE   H3X18346   1.136   5.890   7.104 -0.1539 -0.4926  0.2850
  163SAPE   H3Y18347   1.253   5.759   7.060 -0.4969  0.9344 -2.1649
  163SAPE   C3418348   1.110   5.704   7.213  0.5366  0.0067 -0.2595
  163SAPE   H4X18349   1.111   5.595   7.193  2.4152 -0.1688  0.5391
  163SAPE   H4Y18350   1.004   5.729   7.233 -0.5039 -2.8150 -1.8433
  163SAPE   C3518351   1.195   5.727   7.336 -0.2742  0.9642 -0.7322
  163SAPE   H5X18352   1.184   5.836   7.356  2.1836  0.9866  1.0575
  163SAPE   H5Y18353   1.301   5.720   7.302 -0.2151  0.3866 -0.4226
  163SAPE   C3618354   1.170   5.624   7.446  0.2903 -0.0242 -0.6587
  163SAPE   H6X18355   1.181   5.517   7.419 -2.1462 -0.4127 -0.3575
  163SAPE   H6Y18356   1.072   5.647   7.492  1.6622  1.8351  1.5611
  163SAPE   C3718357   1.281   5.642   7.556 -0.8966  0.1511  0.6042
  163SAPE   H7X18358   1.272   5.738   7.612  0.9055 -0.9987  3.1022
  163SAPE   H7Y18359   1.386   5.650   7.523 -1.7190 -1.0816 -2.6190
  163SAPE   C3818360   1.267   5.531   7.660  0.1553  0.6164  0.1040
  163SAPE   H8X18361   1.266   5.430   7.614  1.8782  0.3438  0.6019
  163SAPE   H8Y18362   1.168   5.553   7.705 -1.2659  0.1642 -2.5877
  163SAPE   C3918363   1.376   5.523   7.770 -0.3125 -0.1424  0.2564
  163SAPE   H9X18364   1.369   5.611   7.836  1.8917 -0.4144  0.9362
  163SAPE   H9Y18365   1.471   5.524   7.712  0.0345  0.1780  0.8334
  163SAPE  C31018366   1.357   5.404   7.861 -0.5985  0.1532  0.5694
  163SAPE  H10X18367   1.447   5.413   7.927 -0.0168  2.8333 -0.4615
  163SAPE  H10Y18368   1.369   5.312   7.800  1.4490  1.6549 -1.4757
  163SAPE  C31118369   1.235   5.402   7.951 -0.6538 -0.3599 -0.5282
  163SAPE  H11X18370   1.146   5.415   7.885 -0.5443  3.1752 -0.1535
  163SAPE  H11Y18371   1.225   5.487   8.022  1.2476  1.8393 -2.7426
  163SAPE  C31218372   1.224   5.275   8.033 -0.0128  0.1311  0.0712
  163SAPE  H12X18373   1.305   5.290   8.109  1.1287  0.8810 -1.2429
  163SAPE  H12Y18374   1.249   5.191   7.964 -1.1240 -0.8100  0.7790
  163SAPE  C31318375   1.082   5.250   8.087  0.2409  0.4403 -0.5027
  163SAPE  H13X18376   1.007   5.227   8.008  1.3148 -2.1317 -0.8805
  163SAPE  H13Y18377   1.048   5.335   8.150 -0.5769  1.1613 -1.8576
  163SAPE  C31418378   1.089   5.135   8.190  0.0833  0.4757  0.4805
  163SAPE  H14X18379   1.164   5.168   8.266 -0.4281  3.0308 -0.0349
  163SAPE  H14Y18380   1.142   5.048   8.144  2.4822  1.1150  1.8407
  163SAPE  C31518381   0.961   5.085   8.238  0.6457  0.7507  0.2791
  163SAPE  H15X18382   0.903   5.043   8.153  1.1461  0.3385  0.1319
  163SAPE  H15Y18383   0.887   5.155   8.282 -0.5276  0.7152 -1.5270
  163SAPE  C31618384   0.978   4.979   8.350 -0.3081  0.0262  0.2969
  163SAPE  H16X18385   1.051   5.023   8.421 -0.1361  1.9269 -1.0025
  163SAPE  H16Y18386   1.028   4.887   8.314  2.5413  1.5610  0.0383
  163SAPE  C31718387   0.854   4.941   8.432 -0.2749  0.4306  0.1155
  163SAPE  H17X18388   0.770   4.932   8.361 -0.6287 -0.8426  0.6638
  163SAPE  H17Y18389   0.839   5.019   8.510  1.2167  0.4392  0.4305
  163SAPE  C31818390   0.876   4.808   8.504 -0.1375  0.7457  0.3575
  163SAPE  H18X18391   0.807   4.782   8.588  0.2378 -1.3325  0.0655
  163SAPE  H18Y18392   0.979   4.806   8.545 -0.7183  1.8577  1.9787
  163SAPE  H18Z18393   0.855   4.726   8.432  2.3881  1.5889 -1.4854
  164SAPE     N18394   2.261   2.601   5.634  0.4260 -0.3746  0.3904
  164SAPE   HN118395   2.234   2.503   5.608  1.7327 -0.1255 -2.2692
  164SAPE   HN218396   2.223   2.648   5.549  1.3109 -1.2044 -0.5021
  164SAPE   HN318397   2.364   2.608   5.635  0.5996 -2.1471  2.4879
  164SAPE   C1218398   2.183   2.644   5.761 -0.0208  0.0315  0.7802
  164SAPE  H12A18399   2.154   2.750   5.743  0.8034 -0.0867 -1.7008
  164SAPE  H12B18400   2.252   2.623   5.845 -0.9564 -2.0612  1.0983
  164SAPE   C1118401   2.049   2.564   5.769 -0.3551  0.4552 -0.3366
  164SAPE  H11A18402   2.003   2.560   5.668 -2.8758 -1.4792  0.7705
  164SAPE  H11B18403   1.986   2.622   5.840  1.6044  0.0473  1.8445
  164SAPE     P18404   2.119   2.308   5.732 -0.1407 -0.1695 -0.2592
  164SAPE   O1318405   2.004   2.214   5.711 -0.1725  0.4000  0.1293
  164SAPE   O1418406   2.199   2.345   5.610  1.0096  0.2037  0.5564
  164SAPE   O1218407   2.073   2.433   5.823 -0.8233  0.6086  0.4717
  164SAPE   O1118408   2.225   2.234   5.823  0.0288  0.3688  0.3686
  164SAPE    C118409   2.294   2.296   5.929  0.2435  0.0233  0.5354
  164SAPE    HA18410   2.382   2.231   5.945  1.1422  0.6867 -1.4091
  164SAPE    HB18411   2.331   2.396   5.896  2.1858 -1.2635 -1.4476
  164SAPE    C218412   2.218   2.281   6.064  0.5290  1.2187 -0.1917
  164SAPE    HS18413   2.126   2.341   6.047 -1.9656 -2.2455 -0.0269
  164SAPE   O2118414   2.290   2.338   6.176  0.1602 -0.1694 -0.1616
  164SAPE   C2118415   2.299   2.471   6.175 -0.2690  0.2638  0.1628
  164SAPE   O2218416   2.239   2.541   6.096  0.7917  0.2386  0.3377
  164SAPE   C2218417   2.377   2.519   6.299 -0.6078 -0.5126 -0.0743
  164SAPE   H2R18418   2.478   2.473   6.301 -0.1837  0.4048  0.4235
  164SAPE   H2S18419   2.401   2.627   6.294  1.5630 -0.9171  0.6420
  164SAPE    C318420   2.170   2.131   6.087 -0.6028 -0.4145  0.1107
  164SAPE    HX18421   2.264   2.072   6.087  0.0257  0.5578 -0.0559
  164SAPE    HY18422   2.102   2.101   6.005 -2.8045  0.9665  1.3305
  164SAPE   O3118423   2.107   2.110   6.217 -0.4662 -0.1337 -0.0375
  164SAPE   C3118424   1.997   2.178   6.236 -0.4931 -0.6729 -1.0605
  164SAPE   O3218425   1.928   2.236   6.152 -0.0729 -0.6760 -0.2323
  164SAPE   C3218426   1.985   2.194   6.390 -0.6856  0.2166 -0.2024
  164SAPE   H2X18427   2.078   2.232   6.436 -0.4977  0.0308 -0.4249
  164SAPE   H2Y18428   1.960   2.094   6.432 -2.1868  0.7918  0.3530
  164SAPE   C2318429   2.295   2.486   6.424  0.2226  0.2449 -0.5595
  164SAPE   H3R18430   2.291   2.376   6.433 -0.3012 -0.0052 -3.1544
  164SAPE   H3S18431   2.192   2.522   6.405  0.3382  1.5569  1.0596
  164SAPE   C2418432   2.361   2.547   6.555  0.5315  0.4666  0.1198
  164SAPE   H4R18433   2.473   2.547   6.552  0.5372  0.1825  0.2519
  164SAPE   H4S18434   2.343   2.472   6.635  0.2868  0.1801 -0.2069
  164SAPE   C2518435   2.311   2.680   6.593 -0.0475  0.3972 -0.1599
  164SAPE   H5R18436   2.339   2.761   6.524  2.3777  1.0137  1.4324
  164SAPE   C2618437   2.213   2.703   6.679 -0.5237 -0.7614 -0.2345
  164SAPE   H6R18438   2.182   2.806   6.702 -0.1578 -0.6667 -0.1491
  164SAPE   C2718439   2.150   2.598   6.762  1.2969 -0.0879  0.0516
  164SAPE   H7R18440   2.215   2.552   6.840  1.9642 -1.8643 -1.4887
  164SAPE   H7S18441   2.131   2.518   6.687  2.3168  1.1702 -1.6277
  164SAPE   C2818442   2.016   2.639   6.822  0.1684 -0.6577 -0.5871
  164SAPE   H8R18443   1.940   2.670   6.748 -0.7994  0.1311  0.6883
  164SAPE   C2918444   1.973   2.630   6.950 -0.1239 -0.0766 -0.2191
  164SAPE   H9R18445   1.864   2.641   6.960 -0.1297  0.4310 -0.7994
  164SAPE  C21018446   2.054   2.571   7.066  0.2247  0.4422 -0.0336
  164SAPE  H10R18447   2.164   2.582   7.053  0.3016  1.2415  1.1652
  164SAPE  H10S18448   2.030   2.463   7.075  0.5286  0.2020 -1.6718
  164SAPE  C21118449   2.011   2.659   7.181  0.3297 -0.2554 -0.2018
  164SAPE  H11R18450   2.013   2.765   7.151  2.1227 -0.1305  0.2006
  164SAPE  C21218451   1.992   2.619   7.308  0.2409  0.0349  0.2957
  164SAPE  H12R18452   1.978   2.692   7.388  0.7181  2.9564 -2.1198
  164SAPE  C21318453   2.007   2.479   7.356  0.2830  0.0481 -0.2464
  164SAPE  H13R18454   1.996   2.407   7.272  1.8796  0.0035 -0.4535
  164SAPE  H13S18455   1.935   2.457   7.438  0.7311  0.5896  0.3076
  164SAPE  C21418456   2.150   2.471   7.413 -0.2352 -0.0060  0.4907
  164SAPE  H14R18457   2.230   2.464   7.338 -0.1990 -0.8215  0.5980
  164SAPE  C21518458   2.185   2.480   7.537  0.1336  0.0474 -0.2539
  164SAPE  H15R18459   2.295   2.476   7.550  0.1198 -1.2459 -0.3170
  164SAPE  C21618460   2.101   2.496   7.659  0.0174 -0.1761  0.0994
  164SAPE  H16R18461   2.094   2.399   7.713  2.5653 -0.6990 -0.3490
  164SAPE  H16S18462   1.997   2.522   7.633 -0.5284 -2.8970 -0.7759
  164SAPE  C21718463   2.162   2.594   7.765 -0.2664  0.3716  0.3314
  164SAPE  H17R18464   2.255   2.552   7.809 -0.4145 -1.3342 -0.8590
  164SAPE  H17S18465   2.099   2.607   7.856 -0.0247 -1.3302  0.7850
  164SAPE  C21818466   2.196   2.730   7.725 -0.6525 -0.1966 -0.1552
  164SAPE  H18R18467   2.259   2.728   7.633  1.2516 -0.6818  1.1154
  164SAPE  H18S18468   2.256   2.783   7.802  0.2110 -1.7354  0.2763
  164SAPE  C21918469   2.073   2.818   7.697  0.3279 -0.4894 -0.8913
  164SAPE  H19R18470   2.020   2.822   7.794  0.3382  0.6612 -0.9161
  164SAPE  H19S18471   2.006   2.753   7.637 -3.1746  0.7415  1.3650
  164SAPE  C22018472   2.089   2.962   7.641  0.8585  0.5985  0.0739
  164SAPE  H20R18473   2.163   3.034   7.681  3.3545 -1.0056 -1.4213
  164SAPE  H20S18474   1.988   3.006   7.624  0.0458 -1.1835  0.0723
  164SAPE  H20T18475   2.114   2.959   7.533 -2.0809 -0.2743 -0.6692
  164SAPE   C3318476   1.879   2.303   6.423 -0.2046  0.4168 -0.2173
  164SAPE   H3X18477   1.781   2.263   6.387 -0.1960  0.4255 -0.2501
  164SAPE   H3Y18478   1.883   2.399   6.368 -0.2476  0.0472 -0.8751
  164SAPE   C3418479   1.868   2.312   6.575 -0.4497  0.1032  0.1247
  164SAPE   H4X18480   1.971   2.310   6.617 -0.9491 -1.6949  1.3837
  164SAPE   H4Y18481   1.826   2.221   6.623  0.5967  0.6786  2.2248
  164SAPE   C3518482   1.784   2.437   6.612 -0.0710 -0.1323 -0.1633
  164SAPE   H5X18483   1.720   2.462   6.525 -0.2905 -1.3390 -0.3626
  164SAPE   H5Y18484   1.850   2.525   6.629 -0.0500 -0.0435 -0.6902
  164SAPE   C3618485   1.708   2.412   6.735 -0.2511 -0.2507  0.3311
  164SAPE   H6X18486   1.777   2.396   6.820 -0.1246  3.5219  1.0952
  164SAPE   H6Y18487   1.661   2.312   6.721 -2.9107  0.8276  0.8211
  164SAPE   C3718488   1.601   2.514   6.778 -0.0073 -0.2901 -0.2603
  164SAPE   H7X18489   1.538   2.527   6.688  0.2317 -1.2321 -0.5793
  164SAPE   H7Y18490   1.663   2.606   6.788  0.1962 -0.3029 -1.3216
  164SAPE   C3818491   1.524   2.473   6.903 -0.3298 -0.6235 -0.1633
  164SAPE   H8X18492   1.456   2.391   6.872 -1.3249  0.2330 -0.2964
  164SAPE   H8Y18493   1.449   2.555   6.913 -0.7976 -0.9382 -0.9791
  164SAPE   C3918494   1.609   2.446   7.027 -0.1640 -0.1644  0.4603
  164SAPE   H9X18495   1.701   2.508   7.024  0.0920 -0.5165 -3.5121
  164SAPE   H9Y18496   1.651   2.343   7.031  1.7018  0.5533  0.0238
  164SAPE  C31018497   1.535   2.473   7.157 -0.4341 -1.1620  0.0367
  164SAPE  H10X18498   1.444   2.409   7.156 -1.6227  0.4699 -1.5054
  164SAPE  H10Y18499   1.503   2.579   7.157 -0.8497 -1.2838  0.7396
  164SAPE  C31118500   1.627   2.458   7.279 -0.1459  0.2475  0.2521
  164SAPE  H11X18501   1.719   2.520   7.268 -1.0236  1.4278 -0.8181
  164SAPE  H11Y18502   1.657   2.352   7.292  0.2122  0.4387  1.0409
  164SAPE  C31218503   1.557   2.499   7.403  0.8529 -0.0007  0.4436
  164SAPE  H12X18504   1.472   2.431   7.423 -0.9858  1.7940 -0.9209
  164SAPE  H12Y18505   1.528   2.606   7.401  1.4827  0.1795  0.7283
  164SAPE  C31318506   1.660   2.512   7.521 -0.0132  0.5790 -0.5494
  164SAPE  H13X18507   1.734   2.591   7.499  1.1109 -0.5958 -1.1373
  164SAPE  H13Y18508   1.718   2.418   7.522  0.5996  0.9499 -0.8170
  164SAPE  C31418509   1.594   2.544   7.651 -0.5575 -0.7377  1.0769
  164SAPE  H14X18510   1.524   2.464   7.685 -3.3808  0.7548 -0.8193
  164SAPE  H14Y18511   1.541   2.641   7.660 -0.4498 -0.4109 -1.1969
  164SAPE  C31518512   1.712   2.561   7.758 -0.7011  0.5904  0.0140
  164SAPE  H15X18513   1.782   2.631   7.706 -0.5547 -0.2334 -0.9202
  164SAPE  H15Y18514   1.760   2.462   7.769  1.0115  1.3843  0.0519
  164SAPE  C31618515   1.676   2.605   7.895 -0.5090 -0.3254 -0.3830
  164SAPE  H16X18516   1.643   2.711   7.883 -1.1026 -0.7680 -3.8166
  164SAPE  H16Y18517   1.761   2.599   7.965 -2.4807  1.4644  2.3921
  164SAPE  C31718518   1.566   2.521   7.952 -0.0118 -0.4929 -0.8072
  164SAPE  H17X18519   1.594   2.413   7.954  0.9495 -0.2958 -2.4445
  164SAPE  H17Y18520   1.473   2.536   7.893 -0.7211  1.3729  0.6973
  164SAPE  C31818521   1.541   2.557   8.104  0.5821  0.8409  0.1372
  164SAPE  H18X18522   1.479   2.477   8.149  0.6297 -0.1276 -1.4097
  164SAPE  H18Y18523   1.491   2.652   8.131  0.3141  0.1350  2.2945
  164SAPE  H18Z18524   1.641   2.551   8.153  0.8319  1.2254 -0.3074
  165SAPE     N18525   0.397   5.542   6.543 -0.2775 -0.6699 -0.5508
  165SAPE   HN118526   0.374   5.478   6.465 -2.2075  0.0548 -0.6156
  165SAPE   HN218527   0.405   5.642   6.516  1.3546 -0.4182  0.6868
  165SAPE   HN318528   0.491   5.516   6.579 -0.5723  2.1424  2.8068
  165SAPE   C1218529   0.299   5.540   6.655  0.1879  0.7402  0.0260
  165SAPE  H12A18530   0.227   5.623   6.641 -1.1224 -0.4105 -0.1873
  165SAPE  H12B18531   0.356   5.558   6.749  2.3506  0.5141 -1.1676
  165SAPE   C1118532   0.224   5.407   6.656 -0.0681  0.3710 -0.1988
  165SAPE  H11A18533   0.166   5.420   6.562  2.4815  1.1470 -1.7852
  165SAPE  H11B18534   0.153   5.390   6.739 -0.7652 -4.5165 -1.4580
  165SAPE     P18535   0.251   5.156   6.611 -0.3411 -0.2803 -0.0796
  165SAPE   O1318536   0.147   5.177   6.512 -0.2385  0.3902  0.1971
  165SAPE   O1418537   0.351   5.053   6.586 -0.3125  0.8749 -0.3963
  165SAPE   O1218538   0.322   5.302   6.629  0.0965  0.4150 -0.0223
  165SAPE   O1118539   0.188   5.130   6.752 -0.3015  0.3193 -0.0823
  165SAPE    C118540   0.081   5.044   6.784 -0.9667 -0.2979  0.2476
  165SAPE    HA18541   0.074   4.971   6.701 -0.3235 -0.0826 -0.0051
  165SAPE    HB18542   0.104   4.999   6.883  2.3232 -0.4385 -0.4548
  165SAPE    C218543  -0.056   5.119   6.789 -0.2603 -0.1104 -0.3584
  165SAPE    HS18544  -0.067   5.175   6.693 -1.8847 -1.4199 -0.9854
  165SAPE   O2118545  -0.059   5.209   6.901 -0.1624  0.9159 -0.3959
  165SAPE   C2118546  -0.168   5.290   6.911  0.1496 -0.3239  0.8135
  165SAPE   O2218547  -0.267   5.279   6.844 -0.0296 -0.3097 -0.6272
  165SAPE   C2218548  -0.162   5.393   7.033  0.4241  0.4210 -0.3899
  165SAPE   H2R18549  -0.066   5.379   7.088  0.1092  0.4359  0.1628
  165SAPE   H2S18550  -0.172   5.497   6.996 -1.1415 -0.0067 -1.2361
  165SAPE    C318551  -0.174   5.008   6.799  0.2390 -0.2885  0.1427
  165SAPE    HX18552  -0.141   4.931   6.727  0.7907 -1.2105  1.3451
  165SAPE    HY18553  -0.270   5.052   6.766 -0.8948 -0.6870  2.6624
  165SAPE   O3118554  -0.195   4.962   6.931  0.0921  0.2491  0.1525
  165SAPE   C3118555  -0.228   4.831   6.940 -0.6289 -0.2235 -0.0650
  165SAPE   O3218556  -0.275   4.767   6.848  0.8548 -0.5049  0.1317
  165SAPE   C3218557  -0.188   4.781   7.077 -0.2708 -0.5001 -0.1823
  165SAPE   H2X18558  -0.141   4.862   7.136  1.0747 -0.4713 -1.2331
  165SAPE   H2Y18559  -0.117   4.697   7.061  0.9995  0.9055 -2.5123
  165SAPE   C2318560  -0.282   5.386   7.138  0.2813  0.0848  0.0641
  165SAPE   H3R18561  -0.381   5.381   7.087  1.4528 -2.7460 -2.2197
  165SAPE   H3S18562  -0.270   5.481   7.194  1.3708  1.1638 -1.8681
  165SAPE   C2418563  -0.288   5.256   7.224 -0.3343 -0.1636  0.3361
  165SAPE   H4R18564  -0.284   5.169   7.155 -1.4394 -3.3765  3.9937
  165SAPE   H4S18565  -0.382   5.260   7.283 -0.0027  2.0448  0.7911
  165SAPE   C2518566  -0.171   5.248   7.309  0.4542 -0.2859  0.2064
  165SAPE   H5R18567  -0.081   5.257   7.246  0.6346  0.9178  0.6113
  165SAPE   C2618568  -0.175   5.260   7.441  0.4116 -0.4404  0.4299
  165SAPE   H6R18569  -0.081   5.259   7.498  0.8535 -0.3311 -0.2928
  165SAPE   C2718570  -0.300   5.261   7.524 -0.3082  0.5363 -0.4928
  165SAPE   H7R18571  -0.385   5.209   7.474  0.1977  0.2187 -1.0386
  165SAPE   H7S18572  -0.327   5.368   7.531 -0.1334  0.4450  2.8044
  165SAPE   C2818573  -0.265   5.199   7.660  0.5389 -0.4653 -0.1804
  165SAPE   H8R18574  -0.246   5.091   7.659  2.8503 -0.1459  1.0826
  165SAPE   C2918575  -0.274   5.248   7.786  0.4645 -0.0814  0.3713
  165SAPE   H9R18576  -0.243   5.188   7.872 -1.1739 -0.2072  0.9134
  165SAPE  C21018577  -0.303   5.398   7.816 -0.1130 -0.5925 -0.4293
  165SAPE  H10R18578  -0.400   5.430   7.774 -0.9651  1.8264  2.9525
  165SAPE  H10S18579  -0.235   5.468   7.763 -1.6786 -0.9044 -3.0148
  165SAPE  C21118580  -0.316   5.424   7.967  0.4583 -0.1390  0.1918
  165SAPE  H11R18581  -0.240   5.483   8.019 -0.3296 -1.4709  3.0497
  165SAPE  C21218582  -0.419   5.381   8.039  0.0529  1.2175  0.2355
  165SAPE  H12R18583  -0.421   5.413   8.144  1.2200  2.5101 -0.1039
  165SAPE  C21318584  -0.542   5.307   7.990  0.2254  0.3390  0.3891
  165SAPE  H13R18585  -0.574   5.243   8.075  0.0202  1.5615  1.2600
  165SAPE  H13S18586  -0.533   5.224   7.918 -1.1339 -0.1931  0.8005
  165SAPE  C21418587  -0.657   5.410   7.958 -0.4080 -0.5105 -0.3843
  165SAPE  H14R18588  -0.684   5.467   8.049  0.6521 -1.2398  0.4116
  165SAPE  C21518589  -0.720   5.427   7.845  0.0197  0.2824  0.4669
  165SAPE  H15R18590  -0.795   5.507   7.843 -0.7942 -0.4020  2.2648
  165SAPE  C21618591  -0.682   5.352   7.717 -0.5290 -0.4504 -0.7650
  165SAPE  H16R18592  -0.748   5.264   7.701  0.9888 -2.0490  1.1229
  165SAPE  H16S18593  -0.581   5.305   7.721 -0.0092  0.6535 -0.4121
  165SAPE  C21718594  -0.700   5.445   7.590 -0.1568  0.4840 -0.2371
  165SAPE  H17R18595  -0.628   5.530   7.588 -0.5554  0.8665  0.7800
  165SAPE  H17S18596  -0.801   5.491   7.601  0.4735  2.5551 -2.3943
  165SAPE  C21818597  -0.687   5.375   7.456  0.1516 -0.6175  0.2937
  165SAPE  H18R18598  -0.760   5.294   7.434  1.8038 -2.1044 -0.0021
  165SAPE  H18S18599  -0.589   5.322   7.450  1.3241  1.2847  1.6479
  165SAPE  C21918600  -0.704   5.476   7.340  0.4060  0.2774  0.8402
  165SAPE  H19R18601  -0.633   5.561   7.339  3.3809 -1.9684 -2.0259
  165SAPE  H19S18602  -0.808   5.514   7.350 -0.1503 -0.5519 -1.1784
  165SAPE  C22018603  -0.695   5.401   7.207  0.0219  0.8859  0.8987
  165SAPE  H20R18604  -0.779   5.329   7.197  2.9513 -2.5750 -0.9823
  165SAPE  H20S18605  -0.596   5.352   7.197 -0.6498 -0.3459 -0.0770
  165SAPE  H20T18606  -0.692   5.478   7.127  0.4935  0.3257  0.3667
  165SAPE   C3318607  -0.303   4.730   7.163  0.7968 -1.2668 -0.0406
  165SAPE   H3X18608  -0.359   4.644   7.120 -0.0473 -0.3159 -0.8742
  165SAPE   H3Y18609  -0.373   4.816   7.168  1.8485 -0.2160 -2.1528
  165SAPE   C3418610  -0.255   4.705   7.301  0.1938 -0.3617 -0.7337
  165SAPE   H4X18611  -0.151   4.743   7.304  0.9210 -1.8737 -3.8631
  165SAPE   H4Y18612  -0.251   4.596   7.320 -0.5251 -0.3661 -0.5621
  165SAPE   C3518613  -0.325   4.766   7.425  0.0704  0.0166 -0.0395
  165SAPE   H5X18614  -0.434   4.750   7.419 -0.3410  2.4135 -0.1311
  165SAPE   H5Y18615  -0.321   4.875   7.404 -3.1616 -0.0442 -1.5251
  165SAPE   C3618616  -0.263   4.731   7.565 -0.4360 -0.2354  0.3851
  165SAPE   H6X18617  -0.195   4.812   7.599 -1.7052  0.6425  0.9022
  165SAPE   H6Y18618  -0.215   4.631   7.564 -0.2224 -0.1431  0.9761
  165SAPE   C3718619  -0.364   4.722   7.677  0.8662  0.8831 -0.5065
  165SAPE   H7X18620  -0.406   4.619   7.667 -2.1753  2.1771 -2.3783
  165SAPE   H7Y18621  -0.458   4.781   7.671 -0.0029 -0.4290 -0.3717
  165SAPE   C3818622  -0.312   4.734   7.822 -0.1936 -0.2001  0.2961
  165SAPE   H8X18623  -0.225   4.667   7.833 -0.8576 -0.9403  1.1732
  165SAPE   H8Y18624  -0.390   4.684   7.883 -0.5118  2.2521  2.0365
  165SAPE   C3918625  -0.281   4.875   7.875 -0.5569  0.8949  0.0243
  165SAPE   H9X18626  -0.367   4.941   7.854 -1.3761  0.0521  0.6321
  165SAPE   H9Y18627  -0.191   4.908   7.820 -1.0504 -1.4635 -2.4068
  165SAPE  C31018628  -0.244   4.871   8.026  0.5377  0.0728  0.7069
  165SAPE  H10X18629  -0.148   4.814   8.032  0.1548 -1.6250 -4.1921
  165SAPE  H10Y18630  -0.323   4.824   8.088  0.4873  0.8638  1.2552
  165SAPE  C31118631  -0.235   5.013   8.073  0.1231  0.3266 -0.1795
  165SAPE  H11X18632  -0.335   5.057   8.052  0.2553  0.8818  0.3178
  165SAPE  H11Y18633  -0.148   5.064   8.027 -0.5672 -0.3675 -2.4068
  165SAPE  C31218634  -0.213   5.025   8.226 -0.2029 -0.1790 -0.3323
  165SAPE  H12X18635  -0.160   5.119   8.251  0.6751 -1.0371  1.1965
  165SAPE  H12Y18636  -0.140   4.950   8.266  0.3945  1.1922  1.2284
  165SAPE  C31318637  -0.346   5.030   8.306 -0.1479  0.5346 -0.2668
  165SAPE  H13X18638  -0.327   4.975   8.401  0.3214 -0.3471 -0.8601
  165SAPE  H13Y18639  -0.427   4.977   8.251  0.2343 -3.6485  2.6682
  165SAPE  C31418640  -0.387   5.173   8.350  0.8282 -0.1353 -0.4654
  165SAPE  H14X18641  -0.404   5.225   8.253 -0.6421  3.2587  1.4243
  165SAPE  H14Y18642  -0.289   5.209   8.387  1.5685 -0.5571 -1.9393
  165SAPE  C31518643  -0.497   5.160   8.448 -0.0862 -0.8528 -0.1403
  165SAPE  H15X18644  -0.461   5.079   8.516  1.8842 -1.3966 -1.7244
  165SAPE  H15Y18645  -0.588   5.135   8.390  0.8827  3.1223 -3.8174
  165SAPE  C31618646  -0.509   5.289   8.527 -0.4774 -0.3801 -0.3845
  165SAPE  H16X18647  -0.507   5.384   8.469  2.7263  0.3996  0.7982
  165SAPE  H16Y18648  -0.421   5.304   8.593 -0.9710 -0.3593  0.2813
  165SAPE  C31718649  -0.626   5.278   8.617  0.2570  0.8324 -0.4034
  165SAPE  H17X18650  -0.611   5.181   8.671 -0.5605  1.0709  0.2814
  165SAPE  H17Y18651  -0.726   5.282   8.569  0.0355  1.1411  0.0722
  165SAPE  C31818652  -0.632   5.395   8.724  0.0396 -0.0205  0.1321
  165SAPE  H18X18653  -0.737   5.397   8.762  0.7445  0.3715  2.1858
  165SAPE  H18Y18654  -0.610   5.493   8.676 -0.8427  0.3267  0.4036
  165SAPE  H18Z18655  -0.576   5.365   8.815 -1.2212 -1.1906  0.5564
  166SAPE     N18656   2.056   3.322   5.688 -0.3908  0.0216  0.2890
  166SAPE   HN118657   2.140   3.282   5.640  1.1440  0.7843  2.2072
  166SAPE   HN218658   1.990   3.357   5.616  0.6321  1.4833  0.0213
  166SAPE   HN318659   2.092   3.411   5.726  0.7831  0.8515 -2.4763
  166SAPE   C1218660   2.004   3.234   5.796 -0.3322  0.0130  0.0624
  166SAPE  H12A18661   2.010   3.291   5.891  1.5040 -0.5592  0.3290
  166SAPE  H12B18662   2.074   3.148   5.810 -1.5994 -1.3886 -1.7752
  166SAPE   C1118663   1.859   3.180   5.750  0.4731 -0.1627 -0.2202
  166SAPE  H11A18664   1.818   3.096   5.810  0.8379 -1.1487 -1.3131
  166SAPE  H11B18665   1.878   3.138   5.649 -0.1618  2.4312 -1.5214
  166SAPE     P18666   1.677   3.317   5.884  0.1003 -0.4369 -0.1186
  166SAPE   O1318667   1.671   3.462   5.923  0.2589 -0.6151  0.2147
  166SAPE   O1418668   1.547   3.250   5.850  0.1622 -0.5214  0.3315
  166SAPE   O1218669   1.765   3.292   5.754 -0.2624 -0.6151 -0.1168
  166SAPE   O1118670   1.748   3.235   6.000 -0.0609  0.0796  0.0001
  166SAPE    C118671   1.677   3.151   6.098  0.3457  0.2252  0.2707
  166SAPE    HA18672   1.575   3.124   6.060  0.7523  0.8588 -1.3652
  166SAPE    HB18673   1.729   3.053   6.107 -1.0798 -0.4659  1.4765
  166SAPE    C218674   1.651   3.220   6.229 -0.5639  0.0046 -0.2517
  166SAPE    HS18675   1.622   3.323   6.199 -0.7139  0.0997  0.2125
  166SAPE   O2118676   1.780   3.218   6.305  0.0314  0.2238  0.2941
  166SAPE   C2118677   1.794   3.320   6.392  0.0171 -0.2541  0.3382
  166SAPE   O2218678   1.725   3.418   6.402 -0.4548 -0.6206  0.1588
  166SAPE   C2218679   1.912   3.300   6.488 -0.3493 -0.4955  0.2190
  166SAPE   H2R18680   1.874   3.283   6.591  0.1581  2.6270  1.0124
  166SAPE   H2S18681   1.972   3.213   6.452 -0.6732 -0.7788  0.3579
  166SAPE    C318682   1.532   3.151   6.314 -0.1831 -0.1272  0.5076
  166SAPE    HX18683   1.557   3.046   6.336  2.4921  0.5900  1.2358
  166SAPE    HY18684   1.437   3.152   6.257  0.5015 -2.0691 -0.7333
  166SAPE   O3118685   1.512   3.211   6.449  0.3410  0.0238  0.3526
  166SAPE   C3118686   1.443   3.326   6.446  0.3543 -0.5190  1.0346
  166SAPE   O3218687   1.400   3.388   6.348 -0.0734 -0.5133  0.0653
  166SAPE   C3218688   1.422   3.372   6.593  0.0308  0.7877 -0.3231
  166SAPE   H2X18689   1.397   3.481   6.586 -2.7413  0.1622 -1.4845
  166SAPE   H2Y18690   1.518   3.368   6.648  0.3233  0.2644 -0.8655
  166SAPE   C2318691   1.994   3.428   6.489 -0.5386 -0.6111 -0.3024
  166SAPE   H3R18692   1.927   3.515   6.470 -0.5160 -1.0522 -2.6021
  166SAPE   H3S18693   2.070   3.433   6.408  0.0306  1.3830  0.2924
  166SAPE   C2418694   2.081   3.463   6.615 -0.3909  0.0533 -0.3872
  166SAPE   H4R18695   2.009   3.478   6.699 -0.4756  1.8032 -0.7374
  166SAPE   H4S18696   2.109   3.570   6.602 -1.9302  0.3552 -1.5303
  166SAPE   C2518697   2.188   3.367   6.640  0.3206  1.3968 -0.4482
  166SAPE   H5R18698   2.251   3.353   6.551  1.2712 -2.2505  0.5869
  166SAPE   C2618699   2.180   3.270   6.740 -0.1624 -0.7329 -0.4016
  166SAPE   H6R18700   2.254   3.189   6.742 -0.4633 -1.0945 -2.0801
  166SAPE   C2718701   2.088   3.261   6.860  0.0705  0.1572  0.5467
  166SAPE   H7R18702   1.996   3.323   6.864 -0.4134 -0.5145 -0.1391
  166SAPE   H7S18703   2.148   3.299   6.946 -1.1153 -0.5013  1.6946
  166SAPE   C2818704   2.043   3.115   6.878 -0.0165  0.0344 -0.3480
  166SAPE   H8R18705   1.946   3.088   6.833 -0.7495  1.5989  0.2201
  166SAPE   C2918706   2.117   3.017   6.938  0.0890  0.4656  0.3716
  166SAPE   H9R18707   2.067   2.919   6.936 -1.0572  1.0344 -1.1104
  166SAPE  C21018708   2.249   3.035   7.000  0.2891  0.6397  0.8224
  166SAPE  H10R18709   2.243   3.013   7.109  0.0211  1.6077  1.0151
  166SAPE  H10S18710   2.282   3.140   6.989 -0.9872  0.8479 -1.7742
  166SAPE  C21118711   2.343   2.930   6.945 -0.5964 -0.3442  0.1501
  166SAPE  H11R18712   2.354   2.957   6.839  0.4870  0.9540  0.5622
  166SAPE  C21218713   2.425   2.842   7.005  0.0529 -0.1150  0.3414
  166SAPE  H12R18714   2.487   2.772   6.947  0.0811 -0.1837  0.4544
  166SAPE  C21318715   2.441   2.833   7.154  0.0339 -0.5024 -0.6705
  166SAPE  H13R18716   2.414   2.733   7.196 -2.0243  0.2511 -0.0792
  166SAPE  H13S18717   2.375   2.908   7.203 -0.9218 -2.1598  0.7333
  166SAPE  C21418718   2.578   2.853   7.204  0.0462 -0.2762  0.0054
  166SAPE  H14R18719   2.641   2.912   7.136  0.9879 -0.5334  0.6331
  166SAPE  C21518720   2.631   2.814   7.324 -0.5946  0.2638 -0.5808
  166SAPE  H15R18721   2.730   2.840   7.365  0.1951  1.3785 -3.0099
  166SAPE  C21618722   2.555   2.738   7.432  0.3235 -0.5772 -0.0628
  166SAPE  H16R18723   2.482   2.664   7.394 -1.7302  0.6187  1.3696
  166SAPE  H16S18724   2.485   2.810   7.479 -2.3001 -1.3212 -2.5753
  166SAPE  C21718725   2.632   2.666   7.542 -0.6670  1.1110 -0.1024
  166SAPE  H17R18726   2.702   2.597   7.489 -0.7263  2.2327 -1.6991
  166SAPE  H17S18727   2.561   2.599   7.597  0.2542  1.2976  1.3537
  166SAPE  C21818728   2.685   2.767   7.638  0.0624  0.4915 -0.2188
  166SAPE  H18R18729   2.604   2.820   7.693 -0.3424 -0.0913 -0.2425
  166SAPE  H18S18730   2.744   2.839   7.576 -1.5349  0.3736 -1.9766
  166SAPE  C21918731   2.758   2.695   7.751  0.3452  0.1236 -0.2679
  166SAPE  H19R18732   2.834   2.625   7.709 -1.3251 -2.4123  0.6856
  166SAPE  H19S18733   2.685   2.624   7.795  0.4479  0.0656 -0.1894
  166SAPE  C22018734   2.818   2.771   7.865  0.2124  0.0614  0.1228
  166SAPE  H20R18735   2.892   2.852   7.845 -1.5206  1.5414 -0.5567
  166SAPE  H20S18736   2.872   2.697   7.929  2.5926 -0.5077 -2.3467
  166SAPE  H20T18737   2.746   2.815   7.936 -0.5294 -0.0449 -0.5556
  166SAPE   C3318738   1.313   3.284   6.652 -0.2131  0.7059  0.5590
  166SAPE   H3X18739   1.339   3.176   6.663 -1.3056  0.2370 -1.0761
  166SAPE   H3Y18740   1.227   3.301   6.583 -1.0373 -1.5351  0.9335
  166SAPE   C3418741   1.275   3.307   6.802 -0.0503 -0.6301  0.2395
  166SAPE   H4X18742   1.230   3.214   6.844  0.0010 -1.3508 -1.2302
  166SAPE   H4Y18743   1.195   3.384   6.802  0.2933 -0.2755  0.5437
  166SAPE   C3518744   1.390   3.350   6.890  0.7211  0.5014 -0.1307
  166SAPE   H5X18745   1.415   3.457   6.874  3.5839  0.0094  0.4526
  166SAPE   H5Y18746   1.484   3.304   6.854  0.7860  0.7077 -0.2253
  166SAPE   C3618747   1.363   3.314   7.028 -0.3395  0.0511 -0.4534
  166SAPE   H6X18748   1.341   3.207   7.049  1.8108 -0.3636 -0.1050
  166SAPE   H6Y18749   1.268   3.358   7.065 -0.2263  0.4534 -0.6310
  166SAPE   C3718750   1.490   3.344   7.108  0.2375  0.6085  0.0493
  166SAPE   H7X18751   1.517   3.452   7.108 -1.5232  1.0731  0.7855
  166SAPE   H7Y18752   1.579   3.282   7.083  0.1569  1.3343 -2.2721
  166SAPE   C3818753   1.469   3.300   7.252  0.7345  0.2054  0.1733
  166SAPE   H8X18754   1.456   3.190   7.264  0.7972  0.2538  0.6854
  166SAPE   H8Y18755   1.372   3.347   7.279 -0.7215 -0.7884 -2.8341
  166SAPE   C3918756   1.568   3.370   7.346  0.0220  0.3592 -0.2074
  166SAPE   H9X18757   1.555   3.480   7.346 -0.2927  0.3380 -1.5302
  166SAPE   H9Y18758   1.670   3.350   7.307  0.9343  1.9381  1.2245
  166SAPE  C31018759   1.572   3.307   7.490  0.5164  1.0485  0.0155
  166SAPE  H10X18760   1.599   3.200   7.477 -2.3348  0.1609  0.5867
  166SAPE  H10Y18761   1.472   3.305   7.538  0.2404  2.5434 -0.4393
  166SAPE  C31118762   1.672   3.376   7.578  0.1375  0.3714  0.4125
  166SAPE  H11X18763   1.632   3.478   7.592 -2.3838 -0.2920 -1.1556
  166SAPE  H11Y18764   1.770   3.365   7.526 -0.4738  0.8555 -0.8955
  166SAPE  C31218765   1.678   3.319   7.723 -0.3033  0.0777 -0.1708
  166SAPE  H12X18766   1.575   3.295   7.759 -0.1885 -1.0502 -0.5825
  166SAPE  H12Y18767   1.724   3.390   7.795  0.8163 -1.1629  0.3624
  166SAPE  C31318768   1.765   3.200   7.743  0.0936  0.0162 -0.3101
  166SAPE  H13X18769   1.870   3.212   7.707  0.6309 -0.8755  0.8988
  166SAPE  H13Y18770   1.718   3.112   7.694  0.0709 -0.6427  0.8726
  166SAPE  C31418771   1.794   3.180   7.899  0.6927 -0.4822 -0.0194
  166SAPE  H14X18772   1.698   3.160   7.951 -2.0389  2.2970 -3.4840
  166SAPE  H14Y18773   1.835   3.273   7.946 -3.2383  0.7805  1.2776
  166SAPE  C31518774   1.893   3.062   7.908  0.7986 -0.6439  0.1723
  166SAPE  H15X18775   1.982   3.088   7.847  2.2053 -1.9435  1.5810
  166SAPE  H15Y18776   1.854   2.967   7.867  0.8495 -0.1471 -1.0532
  166SAPE  C31618777   1.936   3.040   8.054 -0.2365 -0.3000 -0.6392
  166SAPE  H16X18778   1.851   3.019   8.122  0.3561  0.4926  0.3614
  166SAPE  H16Y18779   1.974   3.141   8.082  0.0212 -0.2744 -1.0735
  166SAPE  C31718780   2.039   2.930   8.074  0.8894  0.2175  0.2601
  166SAPE  H17X18781   2.099   2.933   7.980  0.4266  0.4990 -0.0334
  166SAPE  H17Y18782   1.981   2.835   8.075  0.3518  0.5442  0.7965
  166SAPE  C31818783   2.124   2.948   8.197  0.1016  0.4060 -0.2645
  166SAPE  H18X18784   2.075   2.906   8.287 -2.7389  0.4812 -1.6636
  166SAPE  H18Y18785   2.155   3.054   8.213  1.1846 -0.1743  1.7970
  166SAPE  H18Z18786   2.218   2.890   8.188 -0.4986 -0.8907  1.3131
  167SAPE     N18787   4.928   6.148   5.755 -0.3549 -0.1538  0.3277
  167SAPE   HN118788   4.919   6.047   5.729 -1.3255 -0.6021  2.2514
  167SAPE   HN218789   4.876   6.166   5.843 -2.2189  2.0162 -1.1203
  167SAPE   HN318790   4.879   6.204   5.682 -1.9747 -2.2163 -0.2722
  167SAPE   C1218791   5.076   6.171   5.756 -0.3580 -0.5083 -0.5235
  167SAPE  H12A18792   5.085   6.281   5.775  0.3694 -0.4743 -1.0130
  167SAPE  H12B18793   5.113   6.136   5.657 -2.6368 -0.7476 -1.3562
  167SAPE   C1118794   5.142   6.101   5.878 -0.0719 -0.0226 -0.4166
  167SAPE  H11A18795   5.113   6.148   5.975 -0.8852 -1.5230  0.0986
  167SAPE  H11B18796   5.250   6.124   5.867  0.1142 -1.2249 -1.2297
  167SAPE     P18797   5.209   5.853   5.927 -0.1011  0.0222  0.3982
  167SAPE   O1318798   5.245   5.763   5.817 -0.5677 -0.3425  0.3354
  167SAPE   O1418799   5.318   5.910   6.011 -0.7065  0.3063 -0.1250
  167SAPE   O1218800   5.115   5.963   5.870 -0.2080  0.1898  0.0299
  167SAPE   O1118801   5.114   5.768   6.016  0.2620 -0.0808  0.2120
  167SAPE    C118802   5.021   5.821   6.111  0.2563  0.0256 -0.2065
  167SAPE    HA18803   4.998   5.928   6.094 -0.2874 -0.2198 -1.0425
  167SAPE    HB18804   4.926   5.764   6.116 -0.5446  1.3983  1.2872
  167SAPE    C218805   5.083   5.801   6.256  0.2975 -0.3051  0.7080
  167SAPE    HS18806   4.999   5.836   6.319  0.3832  1.3346 -0.0298
  167SAPE   O2118807   5.200   5.877   6.274  0.1050  0.2461  0.0852
  167SAPE   C2118808   5.186   6.010   6.306 -0.3252  0.7169  0.6721
  167SAPE   O2218809   5.079   6.064   6.322 -0.0085  0.3339 -0.6161
  167SAPE   C2218810   5.321   6.061   6.340 -0.4012  0.1461  0.2314
  167SAPE   H2R18811   5.385   5.972   6.354  0.3952  0.4241 -1.4232
  167SAPE   H2S18812   5.355   6.126   6.256  0.0786  0.1773  0.4502
  167SAPE    C318813   5.118   5.652   6.278 -0.3575  0.5056 -0.4473
  167SAPE    HX18814   5.171   5.605   6.193 -1.7512 -2.7333  0.3444
  167SAPE    HY18815   5.027   5.591   6.290 -1.7939  2.4016 -1.2650
  167SAPE   O3118816   5.203   5.637   6.394 -0.7531  0.2006 -0.3875
  167SAPE   C3118817   5.148   5.569   6.497  0.0450 -0.2299  0.4241
  167SAPE   O3218818   5.046   5.512   6.499  0.7887  0.3156 -0.4036
  167SAPE   C3218819   5.235   5.602   6.624 -0.4847 -0.0134  0.3941
  167SAPE   H2X18820   5.180   5.686   6.671 -2.9254 -1.4986  0.3462
  167SAPE   H2Y18821   5.331   5.643   6.587 -0.4104 -0.6412 -0.1208
  167SAPE   C2318822   5.326   6.151   6.469  0.5804  0.5221 -0.9520
  167SAPE   H3R18823   5.271   6.111   6.557 -2.5595  3.7555 -1.2243
  167SAPE   H3S18824   5.276   6.246   6.441 -0.8420  0.2878  0.5979
  167SAPE   C2418825   5.465   6.186   6.514  0.1045 -0.0907  0.1374
  167SAPE   H4R18826   5.474   6.269   6.587 -0.2908 -0.6232  0.8008
  167SAPE   H4S18827   5.513   6.234   6.426 -2.3883  0.0708 -1.2447
  167SAPE   C2518828   5.535   6.066   6.560 -0.4816  0.5119 -0.8777
  167SAPE   H5R18829   5.595   6.005   6.491  0.3468 -0.1904  0.4293
  167SAPE   C2618830   5.513   6.017   6.689 -0.5423 -0.0325  0.3330
  167SAPE   H6R18831   5.552   5.915   6.702 -0.4276 -0.0197  0.0969
  167SAPE   C2718832   5.423   6.083   6.796  0.8544  1.1953  1.1324
  167SAPE   H7R18833   5.363   6.016   6.862  1.5266 -0.8384 -0.2102
  167SAPE   H7S18834   5.346   6.143   6.744 -0.4638 -3.7077 -3.3950
  167SAPE   C2818835   5.514   6.169   6.882 -0.0996  0.5332 -0.3541
  167SAPE   H8R18836   5.602   6.206   6.828 -0.5314  1.5681 -0.3759
  167SAPE   C2918837   5.484   6.199   7.006  0.3788  0.0149 -0.5747
  167SAPE   H9R18838   5.551   6.271   7.055  0.2912 -0.5561  0.4213
  167SAPE  C21018839   5.360   6.165   7.083 -0.0383  0.7968 -0.1811
  167SAPE  H10R18840   5.274   6.157   7.013  0.9255  2.0782 -1.5842
  167SAPE  H10S18841   5.339   6.251   7.151  0.6958  0.3867  0.5734
  167SAPE  C21118842   5.362   6.034   7.163  0.8228 -0.0517  0.1932
  167SAPE  H11R18843   5.325   5.950   7.102 -0.7322  0.7152  0.0307
  167SAPE  C21218844   5.405   6.018   7.284 -0.3071  0.3609 -0.6556
  167SAPE  H12R18845   5.405   5.918   7.330  0.0394  0.4524 -0.4559
  167SAPE  C21318846   5.472   6.123   7.372 -0.0185 -0.5419 -0.8870
  167SAPE  H13R18847   5.512   6.204   7.308 -1.4999 -0.1660 -1.3720
  167SAPE  H13S18848   5.560   6.091   7.432 -0.0838  1.1552  0.1891
  167SAPE  C21418849   5.369   6.199   7.462  0.7089  0.3376 -0.3251
  167SAPE  H14R18850   5.315   6.283   7.416  0.5491 -0.8671 -2.4549
  167SAPE  C21518851   5.328   6.163   7.587  0.4041 -0.7026  0.5158
  167SAPE  H15R18852   5.242   6.220   7.628  0.1210  0.9699 -2.1871
  167SAPE  C21618853   5.376   6.048   7.665  0.0658 -0.6515 -0.1346
  167SAPE  H16R18854   5.463   5.989   7.628  3.2281  1.2801  3.4721
  167SAPE  H16S18855   5.289   5.980   7.666 -1.1451  0.8434  1.7666
  167SAPE  C21718856   5.435   6.085   7.803  0.0566  0.1528  0.4004
  167SAPE  H17R18857   5.511   6.165   7.793  1.1070 -0.9354 -0.5599
  167SAPE  H17S18858   5.481   5.994   7.846  3.6200  0.9854 -1.3234
  167SAPE  C21818859   5.327   6.138   7.900  0.1470 -0.0513  0.2301
  167SAPE  H18R18860   5.249   6.060   7.912  1.7049 -1.9522 -1.1513
  167SAPE  H18S18861   5.283   6.230   7.857 -2.5573 -1.8002 -1.0029
  167SAPE  C21918862   5.395   6.164   8.032  0.0536  0.3683  0.4829
  167SAPE  H19R18863   5.460   6.250   8.006 -0.2406 -0.0350 -1.7634
  167SAPE  H19S18864   5.451   6.068   8.046 -2.5542 -1.4794 -0.8920
  167SAPE  C22018865   5.294   6.192   8.143 -0.7180  0.9013  0.3779
  167SAPE  H20R18866   5.249   6.293   8.130 -0.8820  1.0029  1.6374
  167SAPE  H20S18867   5.350   6.201   8.238  1.5740  0.2636 -0.8387
  167SAPE  H20T18868   5.219   6.110   8.151  1.3602 -1.0986  0.2036
  167SAPE   C3318869   5.257   5.481   6.717  0.2762  0.5976 -0.1677
  167SAPE   H3X18870   5.345   5.430   6.673  1.5729  1.1980  1.5681
  167SAPE   H3Y18871   5.165   5.420   6.726  2.3615 -2.5803  1.9484
  167SAPE   C3418872   5.273   5.526   6.864  0.0268  0.4869  0.6665
  167SAPE   H4X18873   5.256   5.439   6.930  2.9196 -0.2838  0.5410
  167SAPE   H4Y18874   5.196   5.602   6.890  0.8030  1.0077  1.5420
  167SAPE   C3518875   5.407   5.588   6.902 -0.2298 -0.4117  0.3181
  167SAPE   H5X18876   5.438   5.664   6.827 -1.6157  2.7506  2.7035
  167SAPE   H5Y18877   5.489   5.513   6.907 -0.2425 -0.5814 -1.5050
  167SAPE   C3618878   5.396   5.656   7.036 -0.3373 -0.8840  0.1987
  167SAPE   H6X18879   5.315   5.731   7.046  1.5850  1.0023  3.0343
  167SAPE   H6Y18880   5.487   5.718   7.050 -0.2226 -0.6919 -1.2056
  167SAPE   C3718881   5.375   5.561   7.152  0.3506 -0.2535  0.0565
  167SAPE   H7X18882   5.463   5.493   7.163  0.8141  0.3120 -0.0760
  167SAPE   H7Y18883   5.285   5.496   7.145  0.1814 -0.0254  0.0995
  167SAPE   C3818884   5.355   5.649   7.277  0.2262 -0.2843 -0.5406
  167SAPE   H8X18885   5.266   5.714   7.266  1.5235  1.4498 -1.1169
  167SAPE   H8Y18886   5.443   5.717   7.281  0.3319 -0.4810  2.1109
  167SAPE   C3918887   5.359   5.576   7.403 -0.3764 -0.6432  0.0478
  167SAPE   H9X18888   5.458   5.527   7.412  1.5921  3.0037  0.0523
  167SAPE   H9Y18889   5.281   5.498   7.391 -0.2876 -0.4818 -1.9620
  167SAPE  C31018890   5.333   5.671   7.523  0.6238  0.6638  0.4445
  167SAPE  H10X18891   5.224   5.694   7.518  0.4687 -0.2333 -3.0492
  167SAPE  H10Y18892   5.389   5.767   7.520  0.2718  0.8822  0.8188
  167SAPE  C31118893   5.361   5.601   7.660  0.2088 -0.3176  0.3866
  167SAPE  H11X18894   5.467   5.566   7.659 -0.2412 -1.7242 -1.1455
  167SAPE  H11Y18895   5.288   5.517   7.664 -1.0333  0.6240 -1.3641
  167SAPE  C31218896   5.333   5.705   7.778  0.3669 -0.2499  0.0405
  167SAPE  H12X18897   5.237   5.752   7.749  1.6196  1.6066 -1.3889
  167SAPE  H12Y18898   5.392   5.798   7.760  2.4458 -1.4303  0.3446
  167SAPE  C31318899   5.336   5.648   7.917 -0.5493  0.1067  0.1610
  167SAPE  H13X18900   5.405   5.562   7.931 -0.3066 -0.0046 -1.4973
  167SAPE  H13Y18901   5.241   5.591   7.914 -0.1835 -0.5371  0.4748
  167SAPE  C31418902   5.339   5.759   8.024 -0.3042 -0.0766  0.5107
  167SAPE  H14X18903   5.242   5.813   8.016 -0.4144 -0.2876  0.4011
  167SAPE  H14Y18904   5.425   5.828   8.011  1.0571 -1.7191  0.3474
  167SAPE  C31518905   5.360   5.706   8.163 -0.5942 -0.5871 -0.0569
  167SAPE  H15X18906   5.464   5.669   8.174  0.4091  2.6431  3.5691
  167SAPE  H15Y18907   5.288   5.627   8.196 -1.8430 -0.2224 -1.7790
  167SAPE  C31618908   5.360   5.818   8.271  0.4917 -0.3019  0.1726
  167SAPE  H16X18909   5.323   5.764   8.361 -0.0748  0.4417  0.3963
  167SAPE  H16Y18910   5.298   5.906   8.243 -0.2156 -0.2006  1.9296
  167SAPE  C31718911   5.503   5.856   8.317 -0.0018  0.0819 -0.8595
  167SAPE  H17X18912   5.554   5.899   8.229  2.0617 -1.5614 -0.5343
  167SAPE  H17Y18913   5.556   5.762   8.345 -2.9658 -1.0415  1.6635
  167SAPE  C31818914   5.520   5.959   8.425 -0.0816 -0.7117  0.0745
  167SAPE  H18X18915   5.474   5.925   8.521  1.9566 -0.2768  1.2633
  167SAPE  H18Y18916   5.476   6.057   8.395  1.1973 -0.7484 -2.0527
  167SAPE  H18Z18917   5.628   5.978   8.440 -0.4556  0.5235  1.6263
  168SAPE     N18918   1.940   3.639   6.093 -0.1506 -0.1674 -0.0382
  168SAPE   HN118919   1.937   3.538   6.119 -2.9242  0.2416  1.6274
  168SAPE   HN218920   1.845   3.679   6.111  0.7728  1.2539  2.0038
  168SAPE   HN318921   1.955   3.654   5.991  0.6431 -1.2276 -0.0948
  168SAPE   C1218922   2.038   3.716   6.176 -0.3611  0.7909 -1.0210
  168SAPE  H12A18923   1.997   3.724   6.279 -1.0860 -0.7599 -1.1590
  168SAPE  H12B18924   2.030   3.820   6.140 -0.0715  1.6154  1.1506
  168SAPE   C1118925   2.173   3.649   6.162 -1.1115 -0.6826  0.4518
  168SAPE  H11A18926   2.165   3.544   6.199  1.0200 -1.9360 -2.1947
  168SAPE  H11B18927   2.254   3.702   6.216  0.6508 -3.4295  0.7008
  168SAPE     P18928   2.270   3.536   5.932  0.1053  0.0595  0.1792
  168SAPE   O1318929   2.178   3.524   5.820  0.0579 -0.7782 -0.2136
  168SAPE   O1418930   2.412   3.547   5.902 -0.0646  0.5078  0.7741
  168SAPE   O1218931   2.212   3.655   6.023 -0.2281 -0.2056  0.4803
  168SAPE   O1118932   2.246   3.414   6.018  0.1395 -0.0096  0.7027
  168SAPE    C118933   2.326   3.297   6.017 -0.3307  0.0634 -0.4232
  168SAPE    HA18934   2.295   3.235   5.931 -1.9394 -0.7332  0.6806
  168SAPE    HB18935   2.435   3.317   6.017 -0.3678  0.4873 -2.3635
  168SAPE    C218936   2.306   3.212   6.147 -0.3992  0.2046 -0.4320
  168SAPE    HS18937   2.385   3.134   6.145 -0.5725  0.0333 -0.8186
  168SAPE   O2118938   2.180   3.145   6.161  0.1655 -0.4048 -0.3910
  168SAPE   C2118939   2.159   3.036   6.085  0.1290  0.1588  0.0881
  168SAPE   O2218940   2.233   2.992   5.999  0.0814 -0.2348 -0.0191
  168SAPE   C2218941   2.023   2.969   6.132 -0.1170  0.3846  0.2661
  168SAPE   H2R18942   2.013   2.998   6.239 -2.1629  1.3075 -0.1185
  168SAPE   H2S18943   1.934   3.011   6.081 -0.2309 -0.2698 -0.0904
  168SAPE    C318944   2.335   3.297   6.278 -0.5516  0.5715  0.6205
  168SAPE    HX18945   2.243   3.353   6.302 -0.3401  0.7002  1.1494
  168SAPE    HY18946   2.405   3.378   6.250  0.1972  0.1781  1.2906
  168SAPE   O3118947   2.375   3.224   6.390  0.1023 -0.0683 -0.2174
  168SAPE   C3118948   2.506   3.182   6.404 -0.0082 -0.3215 -0.6430
  168SAPE   O3218949   2.592   3.200   6.322 -0.5668  0.6967  0.2871
  168SAPE   C3218950   2.527   3.118   6.539 -0.4953  0.0782  0.7888
  168SAPE   H2X18951   2.454   3.035   6.536 -4.9188  3.5716 -2.4750
  168SAPE   H2Y18952   2.499   3.197   6.612  4.2459  1.8016  1.1124
  168SAPE   C2318953   2.012   2.807   6.100 -0.3334 -0.3267  1.0592
  168SAPE   H3R18954   2.110   2.763   6.126 -0.5351 -1.0055  0.6860
  168SAPE   H3S18955   1.995   2.805   5.991  4.1581  2.5648  0.0416
  168SAPE   C2418956   1.889   2.732   6.166  0.0536  0.3418  1.0969
  168SAPE   H4R18957   1.849   2.654   6.098 -0.6357  1.5110  0.1097
  168SAPE   H4S18958   1.800   2.797   6.180  1.0414  1.6415  1.5497
  168SAPE   C2518959   1.938   2.661   6.287  0.8050  0.1223  0.2475
  168SAPE   H5R18960   1.990   2.565   6.272 -0.1852 -0.3192 -0.4339
  168SAPE   C2618961   1.917   2.700   6.410 -0.4502 -0.7494  0.4146
  168SAPE   H6R18962   1.945   2.636   6.494  1.6114 -1.3619 -0.6790
  168SAPE   C2718963   1.848   2.830   6.454 -0.3935 -0.4131 -0.7438
  168SAPE   H7R18964   1.849   2.912   6.379  3.1554  1.1280  0.7646
  168SAPE   H7S18965   1.905   2.874   6.539 -0.9810  0.7930 -0.9552
  168SAPE   C2818966   1.704   2.805   6.500 -0.4120 -0.0355 -0.3684
  168SAPE   H8R18967   1.652   2.719   6.456 -0.0775 -0.0735 -0.6863
  168SAPE   C2918968   1.640   2.880   6.588 -0.3784  0.3067  0.4533
  168SAPE   H9R18969   1.539   2.848   6.618 -0.3166 -0.3442 -0.0317
  168SAPE  C21018970   1.696   2.994   6.666  0.1517 -0.2632 -0.8862
  168SAPE  H10R18971   1.729   3.077   6.600  0.3797  1.1498  0.9323
  168SAPE  H10S18972   1.783   2.944   6.713 -0.1854 -0.1842 -0.1751
  168SAPE  C21118973   1.617   3.060   6.776  0.6765  0.6100  0.2071
  168SAPE  H11R18974   1.565   3.152   6.746 -2.5705 -0.3859  2.2866
  168SAPE  C21218975   1.612   3.023   6.907 -0.4326 -0.2808 -0.6188
  168SAPE  H12R18976   1.563   3.095   6.975 -1.2510 -1.0997 -0.3211
  168SAPE  C21318977   1.696   2.912   6.972  0.7957  0.3333 -0.5666
  168SAPE  H13R18978   1.800   2.944   6.994  1.8113 -2.9124 -0.0551
  168SAPE  H13S18979   1.704   2.827   6.901  1.2357 -1.1718  1.2191
  168SAPE  C21418980   1.620   2.868   7.098 -0.4563  0.0094  0.2785
  168SAPE  H14R18981   1.523   2.819   7.081  0.2527 -1.5903  0.6500
  168SAPE  C21518982   1.657   2.884   7.224  0.3958 -0.9298 -0.2954
  168SAPE  H15R18983   1.592   2.848   7.306  0.4518  0.4935  0.4104
  168SAPE  C21618984   1.792   2.937   7.281  0.1541  0.1715  0.6731
  168SAPE  H16R18985   1.880   2.886   7.236 -0.2433  0.8722 -0.9506
  168SAPE  H16S18986   1.796   2.930   7.392 -0.0185  0.5809  0.7047
  168SAPE  C21718987   1.807   3.090   7.269  0.4190 -0.4808 -0.4336
  168SAPE  H17R18988   1.718   3.140   7.312  0.0546  0.1037 -1.8103
  168SAPE  H17S18989   1.811   3.128   7.165 -1.3590  0.8750 -0.0580
  168SAPE  C21818990   1.917   3.156   7.348 -0.0858  0.1840  0.5291
  168SAPE  H18R18991   1.935   3.120   7.451  1.9337 -1.5318 -0.3489
  168SAPE  H18S18992   1.890   3.264   7.342  2.3899  0.9946  2.5881
  168SAPE  C21918993   2.055   3.137   7.286 -0.4939  0.4691  0.0259
  168SAPE  H19R18994   2.049   3.174   7.181  1.5145  0.5925 -0.0822
  168SAPE  H19S18995   2.078   3.029   7.278 -0.9293  0.3577  0.2838
  168SAPE  C22018996   2.162   3.220   7.355 -0.3488  0.1167 -0.6017
  168SAPE  H20R18997   2.255   3.179   7.309  0.7802  1.4210  0.4171
  168SAPE  H20S18998   2.182   3.193   7.461 -0.4124  0.5964 -0.4656
  168SAPE  H20T18999   2.153   3.331   7.350 -1.0872  0.1059  0.3296
  168SAPE   C3319000   2.667   3.058   6.556  0.3155 -0.2906  0.3180
  168SAPE   H3X19001   2.750   3.131   6.565 -0.4025  0.3406  2.5532
  168SAPE   H3Y19002   2.686   2.983   6.476 -1.2720 -1.5623  1.0777
  168SAPE   C3419003   2.675   3.000   6.695 -0.1418  0.6837 -1.1116
  168SAPE   H4X19004   2.585   2.936   6.708 -0.2019  0.9775  0.0054
  168SAPE   H4Y19005   2.669   3.078   6.773  1.8414 -1.4545  1.3702
  168SAPE   C3519006   2.799   2.915   6.721 -0.5439  0.6500 -0.0663
  168SAPE   H5X19007   2.870   2.998   6.706 -1.2509  1.7605  2.1984
  168SAPE   H5Y19008   2.810   2.829   6.652 -0.6614 -0.0202  0.7294
  168SAPE   C3619009   2.786   2.852   6.861  0.3096 -0.8054 -1.1364
  168SAPE   H6X19010   2.696   2.787   6.862 -1.2239  1.1833 -2.2170
  168SAPE   H6Y19011   2.762   2.927   6.940 -1.9159 -2.1410 -0.4297
  168SAPE   C3719012   2.916   2.775   6.896  0.2786  0.3261  0.2722
  168SAPE   H7X19013   2.912   2.673   6.853  1.1121 -0.2258  1.4294
  168SAPE   H7Y19014   2.909   2.751   7.004 -1.1619 -0.9190 -0.0744
  168SAPE   C3819015   3.050   2.840   6.880  0.0068 -0.0780  0.9860
  168SAPE   H8X19016   3.086   2.854   6.776 -0.7223  1.0533  0.8794
  168SAPE   H8Y19017   3.124   2.774   6.930 -0.1594 -0.9041  0.1715
  168SAPE   C3919018   3.071   2.982   6.944  0.2755  0.5929  1.0756
  168SAPE   H9X19019   3.007   3.051   6.886 -0.9927 -1.5541 -0.1978
  168SAPE   H9Y19020   3.177   3.009   6.928 -0.2120  1.8386 -0.2917
  168SAPE  C31019021   3.043   3.001   7.100 -0.4568 -0.1420  0.1319
  168SAPE  H10X19022   2.939   2.971   7.124 -0.4343 -1.4292 -1.2329
  168SAPE  H10Y19023   3.046   3.111   7.110  1.2535 -0.1749  0.1710
  168SAPE  C31119024   3.129   2.915   7.197  0.4857 -0.0464 -0.1971
  168SAPE  H11X19025   3.224   2.971   7.188 -0.5895  1.9550  0.2645
  168SAPE  H11Y19026   3.144   2.812   7.158  1.3102  0.5412 -1.4854
  168SAPE  C31219027   3.089   2.920   7.355 -0.9301  0.0891 -0.5862
  168SAPE  H12X19028   3.181   2.876   7.399 -2.5111 -1.9543  0.8871
  168SAPE  H12Y19029   3.009   2.848   7.382  1.3174 -2.7072 -0.9123
  168SAPE  C31319030   3.047   3.055   7.421  0.1299 -0.1838 -0.0780
  168SAPE  H13X19031   2.945   3.083   7.387  0.4756 -2.4584 -3.4675
  168SAPE  H13Y19032   3.115   3.140   7.399 -0.3552  0.5504  1.2099
  168SAPE  C31419033   3.055   3.037   7.575  0.0543  0.4757  0.4541
  168SAPE  H14X19034   3.160   3.002   7.588 -0.2886 -1.9591 -2.2658
  168SAPE  H14Y19035   2.997   2.955   7.624 -1.6103  1.7557  0.7071
  168SAPE  C31519036   3.041   3.165   7.649 -0.0880  0.1830  0.3557
  168SAPE  H15X19037   2.950   3.225   7.624  0.9415  1.8481  0.4807
  168SAPE  H15Y19038   3.133   3.223   7.628 -1.4334  2.6296  0.7775
  168SAPE  C31619039   3.044   3.144   7.802  0.0550 -0.1505 -0.3759
  168SAPE  H16X19040   3.141   3.099   7.834  0.1783 -0.6238 -1.3700
  168SAPE  H16Y19041   2.963   3.074   7.831  0.5330 -0.7220 -0.3907
  168SAPE  C31719042   3.032   3.277   7.866 -0.5653 -0.5064  0.7347
  168SAPE  H17X19043   2.926   3.308   7.851 -0.9296 -1.3954  1.3772
  168SAPE  H17Y19044   3.099   3.356   7.825 -0.3632 -1.2744 -0.4539
  168SAPE  C31819045   3.060   3.285   8.014 -0.2157  0.1060 -0.4698
  168SAPE  H18X19046   2.978   3.227   8.062 -0.2001  1.2129  0.9608
  168SAPE  H18Y19047   3.058   3.389   8.052 -1.1497  0.0052 -0.2216
  168SAPE  H18Z19048   3.160   3.248   8.045 -0.2925  0.9201  0.8237
  169SAPE     N19049   0.424   4.846   6.440  0.1555 -0.2903 -0.0616
  169SAPE   HN119050   0.519   4.824   6.475  0.3646 -0.7449 -0.9084
  169SAPE   HN219051   0.431   4.837   6.337 -0.6908  1.4687 -0.3193
  169SAPE   HN319052   0.404   4.943   6.471 -3.2133 -1.4105  1.8739
  169SAPE   C1219053   0.325   4.756   6.498  0.3852  0.6264  0.2032
  169SAPE  H12A19054   0.223   4.791   6.474  0.9488  0.5711 -2.6724
  169SAPE  H12B19055   0.352   4.751   6.605  0.6830 -2.6283  0.0805
  169SAPE   C1119056   0.348   4.608   6.441  0.3248  0.1592 -0.0809
  169SAPE  H11A19057   0.267   4.542   6.478 -0.5316  0.4715 -1.3247
  169SAPE  H11B19058   0.451   4.576   6.467 -0.0182 -0.3446  0.6782
  169SAPE     P19059   0.330   4.471   6.226 -0.1510  0.2352  0.1769
  169SAPE   O1319060   0.190   4.431   6.237  0.1056 -0.6060 -0.7215
  169SAPE   O1419061   0.387   4.483   6.092  0.3482  0.2862 -0.2040
  169SAPE   O1219062   0.353   4.610   6.300 -0.1238  0.2952  0.2627
  169SAPE   O1119063   0.411   4.361   6.306  0.0135 -0.3744 -0.5136
  169SAPE    C119064   0.556   4.368   6.316  0.1059  0.4472  0.2709
  169SAPE    HA19065   0.592   4.324   6.220 -1.6698 -1.6827  0.5136
  169SAPE    HB19066   0.592   4.472   6.331 -0.3263  1.1278 -2.7068
  169SAPE    C219067   0.621   4.269   6.419  0.0222 -1.1273  0.9027
  169SAPE    HS19068   0.589   4.164   6.402 -0.3054 -0.8656 -0.1810
  169SAPE   O2119069   0.603   4.320   6.552  0.1406 -0.1596  0.1269
  169SAPE   C2119070   0.489   4.281   6.599 -0.5622 -0.4618 -0.1379
  169SAPE   O2219071   0.404   4.212   6.547 -0.3248  0.3014 -0.2920
  169SAPE   C2219072   0.475   4.360   6.727  0.2842  1.0837 -0.2224
  169SAPE   H2R19073   0.569   4.350   6.786 -0.6760 -1.9670  0.9720
  169SAPE   H2S19074   0.473   4.465   6.689  2.2305  0.9899 -0.7127
  169SAPE    C319075   0.773   4.264   6.386 -0.5306 -0.3064  0.6490
  169SAPE    HX19076   0.810   4.368   6.381  0.0664 -0.5486 -0.1407
  169SAPE    HY19077   0.784   4.217   6.286 -0.0047  1.0645  0.0396
  169SAPE   O3119078   0.851   4.189   6.482 -0.3559  0.4593  0.2659
  169SAPE   C3119079   0.919   4.250   6.572  0.8945  0.5837 -1.4017
  169SAPE   O3219080   0.921   4.372   6.596 -0.5901 -0.1131 -0.3768
  169SAPE   C3219081   0.999   4.141   6.640 -0.0940 -0.2151 -0.1988
  169SAPE   H2X19082   1.062   4.096   6.559  0.8840  0.6318  0.0668
  169SAPE   H2Y19083   0.940   4.054   6.675  0.9569 -0.6347  0.5697
  169SAPE   C2319084   0.346   4.322   6.804  0.1942  0.2666  0.1232
  169SAPE   H3R19085   0.260   4.340   6.736  1.1550  0.2219 -1.1349
  169SAPE   H3S19086   0.341   4.400   6.884  1.3865  0.2896  0.1933
  169SAPE   C2419087   0.348   4.187   6.874 -0.1763  0.4572 -0.8052
  169SAPE   H4R19088   0.359   4.109   6.795 -0.7252 -1.5119  0.9606
  169SAPE   H4S19089   0.244   4.182   6.914 -0.4187  0.9511 -1.3542
  169SAPE   C2519090   0.446   4.178   6.987 -0.1120  0.8490 -0.0238
  169SAPE   H5R19091   0.549   4.187   6.948  0.9886  1.5312  2.8255
  169SAPE   C2619092   0.413   4.182   7.119 -0.0752 -0.8208  0.5328
  169SAPE   H6R19093   0.501   4.184   7.186  1.2166  0.9922 -1.0840
  169SAPE   C2719094   0.273   4.206   7.178 -0.8473  0.4256 -0.3056
  169SAPE   H7R19095   0.192   4.210   7.103 -0.1961 -0.3224 -1.0638
  169SAPE   H7S19096   0.267   4.305   7.230  1.8750 -0.5997  2.2848
  169SAPE   C2819097   0.252   4.089   7.272  0.5866 -0.1986  0.1157
  169SAPE   H8R19098   0.201   4.000   7.233  0.1386 -0.8881  2.1569
  169SAPE   C2919099   0.281   4.083   7.405  0.0979 -0.2660  0.0650
  169SAPE   H9R19100   0.270   3.985   7.455  1.0415 -0.1497  0.5225
  169SAPE  C21019101   0.352   4.190   7.489 -0.2073 -0.6478 -0.4497
  169SAPE  H10R19102   0.282   4.270   7.521 -1.1093 -1.7605  0.4371
  169SAPE  H10S19103   0.426   4.244   7.426  0.7237 -1.0576  0.2653
  169SAPE  C21119104   0.428   4.135   7.611  0.7299 -0.5123 -0.1706
  169SAPE  H11R19105   0.464   4.032   7.594 -1.3004 -1.6503  1.8167
  169SAPE  C21219106   0.446   4.183   7.733 -0.5781 -0.6326 -0.9418
  169SAPE  H12R19107   0.497   4.132   7.816  1.5681  0.2739 -1.6167
  169SAPE  C21319108   0.385   4.316   7.770 -0.1257 -0.2038  0.3848
  169SAPE  H13R19109   0.274   4.307   7.766 -0.2056  1.0338 -1.2745
  169SAPE  H13S19110   0.402   4.393   7.692  0.8405  0.8454  1.5974
  169SAPE  C21419111   0.437   4.376   7.897 -0.0796 -0.4676  0.3519
  169SAPE  H14R19112   0.523   4.442   7.879 -2.1830  2.3234 -0.0849
  169SAPE  C21519113   0.386   4.393   8.018 -0.6188  0.1430 -0.1153
  169SAPE  H15R19114   0.432   4.449   8.101 -1.1325 -0.9469  0.9469
  169SAPE  C21619115   0.257   4.332   8.060 -0.5515 -0.1851  0.2340
  169SAPE  H16R19116   0.225   4.249   7.994 -2.6951  0.7925 -0.0517
  169SAPE  H16S19117   0.188   4.418   8.042  2.5218  2.6059  0.9700
  169SAPE  C21719118   0.259   4.288   8.211  0.2066 -0.6946  0.6412
  169SAPE  H17R19119   0.236   4.381   8.267  1.6385  1.0672 -1.5048
  169SAPE  H17S19120   0.355   4.236   8.235  0.9000  0.6623  0.9118
  169SAPE  C21819121   0.142   4.196   8.254 -0.0924  0.5032  0.6973
  169SAPE  H18R19122   0.164   4.093   8.220  0.9383  1.0835 -0.4390
  169SAPE  H18S19123   0.045   4.236   8.216 -0.5329 -0.5705  0.6583
  169SAPE  C21919124   0.131   4.176   8.405 -0.1221 -0.5730 -0.3327
  169SAPE  H19R19125   0.128   4.274   8.458 -2.9407 -1.0352  0.5139
  169SAPE  H19S19126   0.227   4.128   8.435 -0.0728 -1.1462 -1.3678
  169SAPE  C22019127   0.021   4.090   8.453 -0.0177  0.4842  0.6895
  169SAPE  H20R19128  -0.072   4.148   8.471 -0.5348 -0.0397 -0.2151
  169SAPE  H20S19129   0.050   4.047   8.551 -0.5237  0.5701  0.8799
  169SAPE  H20T19130   0.009   4.001   8.386  1.4631  0.9578 -0.2464
  169SAPE   C3319131   1.087   4.185   6.758 -0.0198  0.5682  0.4821
  169SAPE   H3X19132   1.154   4.270   6.733 -1.1399  1.4873  0.5072
  169SAPE   H3Y19133   1.145   4.093   6.781  2.4581  1.7509 -0.7151
  169SAPE   C3419134   1.016   4.213   6.896 -0.2313 -0.0854 -0.0150
  169SAPE   H4X19135   0.969   4.115   6.918  3.0587 -1.6970  0.4988
  169SAPE   H4Y19136   0.934   4.285   6.875  1.8774  1.6351 -3.2269
  169SAPE   C3519137   1.114   4.269   7.009  0.0734  0.5236  0.1620
  169SAPE   H5X19138   1.115   4.381   7.010 -0.4862  0.5329  0.3963
  169SAPE   H5Y19139   1.220   4.243   6.991  0.0246  1.3396 -1.5383
  169SAPE   C3619140   1.073   4.201   7.142 -0.4299 -0.2641  0.2660
  169SAPE   H6X19141   1.082   4.090   7.144  0.8108 -0.2306 -1.3968
  169SAPE   H6Y19142   0.965   4.211   7.164 -0.2922 -3.9575  3.8941
  169SAPE   C3719143   1.155   4.259   7.260  0.0624 -0.6160 -1.1798
  169SAPE   H7X19144   1.150   4.370   7.253 -2.0252 -0.5158  0.6694
  169SAPE   H7Y19145   1.261   4.226   7.255  1.1442  1.8519  1.8811
  169SAPE   C3819146   1.084   4.218   7.390 -0.7257 -0.5794  0.2355
  169SAPE   H8X19147   1.120   4.113   7.397  2.2319  0.1321 -2.2320
  169SAPE   H8Y19148   0.973   4.210   7.382 -0.5555 -2.9865 -0.5249
  169SAPE   C3919149   1.125   4.305   7.507 -0.0324 -0.6923 -0.1479
  169SAPE   H9X19150   1.113   4.414   7.490 -2.1028 -1.1806 -2.3025
  169SAPE   H9Y19151   1.232   4.284   7.529  0.9426  1.1496 -2.6228
  169SAPE  C31019152   1.049   4.271   7.639  0.9973  0.1581 -0.1475
  169SAPE  H10X19153   1.033   4.163   7.655 -0.9104  0.4281 -0.0600
  169SAPE  H10Y19154   0.951   4.323   7.638  0.8148 -0.1899 -0.3030
  169SAPE  C31119155   1.121   4.325   7.764 -0.3672  0.6526  0.4333
  169SAPE  H11X19156   1.149   4.429   7.735  0.1784  0.4134  0.0916
  169SAPE  H11Y19157   1.214   4.267   7.782  0.2038  1.0579 -0.9916
  169SAPE  C31219158   1.035   4.352   7.892 -0.4826  0.1264 -0.2851
  169SAPE  H12X19159   0.949   4.418   7.869  0.4135  1.1387 -0.8902
  169SAPE  H12Y19160   1.110   4.401   7.959  1.2419 -1.2946 -1.0741
  169SAPE  C31319161   0.988   4.220   7.951 -0.0419 -0.6412  0.6218
  169SAPE  H13X19162   1.071   4.159   7.993 -0.1674 -0.1758  1.5811
  169SAPE  H13Y19163   0.936   4.167   7.868  0.2797 -1.7344  1.0983
  169SAPE  C31419164   0.879   4.229   8.064  0.2074  0.3412 -0.0270
  169SAPE  H14X19165   0.821   4.135   8.082 -2.8025  1.9448 -0.6756
  169SAPE  H14Y19166   0.798   4.299   8.034 -0.0012  2.0548  3.8752
  169SAPE  C31519167   0.941   4.260   8.206  0.2295 -0.2656  0.5678
  169SAPE  H15X19168   0.901   4.356   8.245  0.7439 -0.9815  3.0097
  169SAPE  H15Y19169   1.050   4.275   8.195  0.5002 -0.9293  2.0810
  169SAPE  C31619170   0.932   4.143   8.302  1.0693  0.3126  0.0624
  169SAPE  H16X19171   1.002   4.151   8.388  1.2042 -1.4047  0.1597
  169SAPE  H16Y19172   0.960   4.048   8.250  0.4890 -0.5969  1.3711
  169SAPE  C31719173   0.789   4.123   8.357  0.5744  0.1204 -0.1989
  169SAPE  H17X19174   0.720   4.100   8.274  1.8542  0.6775 -1.4526
  169SAPE  H17Y19175   0.754   4.218   8.402 -1.4473 -1.0947  0.9280
  169SAPE  C31819176   0.778   4.010   8.462  0.4832  0.0545 -0.8433
  169SAPE  H18X19177   0.671   4.000   8.490  0.3396  1.3992 -0.8165
  169SAPE  H18Y19178   0.839   4.031   8.552 -2.8076  0.4456  1.4832
  169SAPE  H18Z19179   0.816   3.916   8.416 -0.5438 -0.4609 -0.6675
  170SAPE     N19180   1.930   1.184   6.001 -0.5239  0.1433  0.4041
  170SAPE   HN119181   1.876   1.101   5.968 -1.7762  1.2969 -0.5904
  170SAPE   HN219182   1.896   1.247   5.926  0.4880  0.3676  0.1295
  170SAPE   HN319183   2.031   1.171   5.983 -0.6167  1.2233 -1.1059
  170SAPE   C1219184   1.905   1.224   6.144  0.9685 -0.4198  0.5659
  170SAPE  H12A19185   1.795   1.217   6.153  1.0456 -0.0343  2.2429
  170SAPE  H12B19186   1.930   1.332   6.157 -0.3322  0.1438 -1.2371
  170SAPE   C1119187   1.988   1.134   6.236  0.0848 -0.4182  0.4195
  170SAPE  H11A19188   1.935   1.144   6.333 -1.6976 -1.4918 -0.3833
  170SAPE  H11B19189   2.093   1.163   6.254 -0.8003  3.9883 -0.3105
  170SAPE     P19190   2.066   0.891   6.260 -0.2178 -0.1084 -0.4061
  170SAPE   O1319191   1.993   0.767   6.259 -0.2983  0.7416  0.5966
  170SAPE   O1419192   2.199   0.900   6.192 -0.5349  0.0451 -0.2743
  170SAPE   O1219193   1.968   1.002   6.197 -0.3587  0.0015 -0.3159
  170SAPE   O1119194   2.081   0.950   6.403  0.2486 -0.0077 -0.1845
  170SAPE    C119195   2.214   0.964   6.468  0.6754 -0.3157  0.0322
  170SAPE    HA19196   2.279   1.031   6.407  0.3054 -0.1115 -0.1422
  170SAPE    HB19197   2.213   1.013   6.568  3.7944 -0.0316  0.0243
  170SAPE    C219198   2.283   0.822   6.496 -0.4097 -0.3955 -0.1005
  170SAPE    HS19199   2.271   0.761   6.404 -0.2069  1.2803 -1.2957
  170SAPE   O2119200   2.227   0.757   6.615  0.3345  0.0758  0.4663
  170SAPE   C2119201   2.257   0.627   6.621 -0.2731  0.0578 -0.1733
  170SAPE   O2219202   2.325   0.562   6.539 -0.3364 -0.1188  0.3544
  170SAPE   C2219203   2.191   0.558   6.735  0.4379  0.1832  0.3630
  170SAPE   H2R19204   2.238   0.574   6.835 -0.4767  0.1479  0.8113
  170SAPE   H2S19205   2.089   0.598   6.755 -1.5078 -3.3532 -1.6173
  170SAPE    C319206   2.429   0.858   6.537  0.3332  0.1103 -0.3623
  170SAPE    HX19207   2.472   0.919   6.455  1.1435 -0.1482 -0.1314
  170SAPE    HY19208   2.494   0.770   6.551  1.0434  0.9597  2.1056
  170SAPE   O3119209   2.428   0.946   6.654 -0.4915 -0.0091  0.4572
  170SAPE   C3119210   2.447   0.891   6.776 -0.5963  0.0651 -0.5934
  170SAPE   O3219211   2.457   0.769   6.797  0.1630  0.0951  0.1890
  170SAPE   C3219212   2.458   0.994   6.886  0.1445 -0.4539 -0.2185
  170SAPE   H2X19213   2.353   1.008   6.920 -0.1500 -1.1437 -0.8068
  170SAPE   H2Y19214   2.489   1.086   6.832  2.1477 -1.3204 -0.6162
  170SAPE   C2319215   2.181   0.401   6.722  0.1582 -1.2033 -0.7660
  170SAPE   H3R19216   2.281   0.367   6.688  0.3121 -0.7748 -0.7475
  170SAPE   H3S19217   2.111   0.379   6.639  1.2051 -3.0408 -1.1944
  170SAPE   C2419218   2.151   0.331   6.854  0.9089  0.3199 -0.5609
  170SAPE   H4R19219   2.227   0.348   6.932  0.4130 -0.4811  0.1110
  170SAPE   H4S19220   2.164   0.225   6.825 -0.4597  0.2681 -1.0834
  170SAPE   C2519221   2.017   0.358   6.916  0.0003  0.1440 -0.3117
  170SAPE   H5R19222   1.931   0.304   6.874 -0.2276  0.1376  0.1526
  170SAPE   C2619223   1.983   0.449   7.013  0.2288  0.2332  0.5027
  170SAPE   H6R19224   1.877   0.455   7.044  0.4735 -2.4290  2.2382
  170SAPE   C2719225   2.068   0.542   7.098  0.1592  0.0259  0.4253
  170SAPE   H7R19226   2.020   0.642   7.108 -1.4882 -0.5329 -1.2693
  170SAPE   H7S19227   2.166   0.559   7.048  0.2451  0.7366  0.8175
  170SAPE   C2819228   2.091   0.482   7.232  0.2516  0.8846 -0.3888
  170SAPE   H8R19229   2.117   0.375   7.220  2.0290  1.3417 -0.8973
  170SAPE   C2919230   2.079   0.528   7.358  0.0948 -0.3376 -0.3031
  170SAPE   H9R19231   2.099   0.470   7.449  1.9312  2.0902  0.9645
  170SAPE  C21019232   2.044   0.666   7.406 -0.5420 -0.2950  0.0567
  170SAPE  H10R19233   1.938   0.653   7.437 -0.8790 -3.1513 -1.8610
  170SAPE  H10S19234   2.053   0.738   7.323  0.6905  1.9749  2.0186
  170SAPE  C21119235   2.139   0.714   7.514  0.4449 -0.4182 -1.1004
  170SAPE  H11R19236   2.244   0.731   7.483  0.3632 -0.1789 -1.2491
  170SAPE  C21219237   2.108   0.747   7.641  0.1824 -0.3506  0.0649
  170SAPE  H12R19238   2.186   0.780   7.712  0.8443 -1.8746  0.0910
  170SAPE  C21319239   1.970   0.759   7.698 -0.9426 -0.3088  0.0206
  170SAPE  H13R19240   1.897   0.711   7.630 -1.4044  3.5208 -2.5215
  170SAPE  H13S19241   1.944   0.867   7.706  2.9449  0.8306 -1.0376
  170SAPE  C21419242   1.969   0.687   7.828  0.4795 -0.7933  0.6555
  170SAPE  H14R19243   2.001   0.582   7.824 -1.7313 -1.4891  0.1884
  170SAPE  C21519244   1.957   0.734   7.953  0.7120  0.2052  0.1421
  170SAPE  H15R19245   1.950   0.667   8.040 -1.5334 -1.9380 -1.5228
  170SAPE  C21619246   1.908   0.873   7.980 -0.1901 -0.2404  0.3760
  170SAPE  H16R19247   1.822   0.871   8.049 -1.4956 -1.1503 -1.2164
  170SAPE  H16S19248   1.868   0.927   7.891  0.2596 -0.2711  0.1516
  170SAPE  C21719249   2.026   0.961   8.043 -0.0404 -1.1049  0.1242
  170SAPE  H17R19250   1.996   1.068   8.043 -2.5573 -1.7484 -0.1037
  170SAPE  H17S19251   2.105   0.952   7.965  0.8825  1.3286  0.6640
  170SAPE  C21819252   2.077   0.921   8.174  0.6012  0.0597 -0.4305
  170SAPE  H18R19253   2.088   0.811   8.187 -4.5092 -0.5494  1.0030
  170SAPE  H18S19254   2.013   0.956   8.258 -0.3728  0.7005 -1.4051
  170SAPE  C21919255   2.213   0.989   8.196  0.1314  0.7261 -0.2089
  170SAPE  H19R19256   2.214   1.097   8.169 -0.0790  0.9826  0.7872
  170SAPE  H19S19257   2.291   0.929   8.144  0.6325 -0.3791  1.7223
  170SAPE  C22019258   2.261   0.984   8.347  0.1019  0.1997  0.6340
  170SAPE  H20R19259   2.253   0.878   8.381  0.1309  0.2308  0.7346
  170SAPE  H20S19260   2.196   1.047   8.411  0.0075  0.6334  0.1222
  170SAPE  H20T19261   2.367   1.014   8.361  0.1357  1.3669 -1.6729
  170SAPE   C3319262   2.557   0.968   6.996  0.0887 -0.0901 -1.0621
  170SAPE   H3X19263   2.657   0.944   6.954 -0.2687 -1.7960 -1.0016
  170SAPE   H3Y19264   2.527   0.878   7.054  2.2383  0.5703  1.2504
  170SAPE   C3419265   2.569   1.080   7.098 -0.6829 -0.2318  0.2856
  170SAPE   H4X19266   2.469   1.103   7.139 -1.3291 -3.2569  0.6568
  170SAPE   H4Y19267   2.614   1.176   7.063 -0.2945 -0.3913  0.3377
  170SAPE   C3519268   2.660   1.032   7.216 -0.1382  0.1419 -0.2769
  170SAPE   H5X19269   2.764   1.001   7.190 -0.3202 -1.1200  0.4249
  170SAPE   H5Y19270   2.619   0.934   7.247  1.5726 -0.3993  0.4371
  170SAPE   C3619271   2.666   1.126   7.335  0.0521 -0.7448 -0.6203
  170SAPE   H6X19272   2.568   1.127   7.387  0.8068 -0.9916  0.8656
  170SAPE   H6Y19273   2.674   1.232   7.305  0.4802 -0.2051  1.2774
  170SAPE   C3719274   2.768   1.094   7.442  0.4194 -0.6649 -0.0533
  170SAPE   H7X19275   2.873   1.083   7.407  0.7069 -4.2634  1.4709
  170SAPE   H7Y19276   2.741   0.997   7.489  0.9430 -0.2221  1.2178
  170SAPE   C3819277   2.757   1.196   7.554  0.0345  0.4091  0.1648
  170SAPE   H8X19278   2.660   1.204   7.607  0.8763  0.7327  1.7143
  170SAPE   H8Y19279   2.781   1.297   7.513 -1.7181 -0.0804 -2.3192
  170SAPE   C3919280   2.842   1.151   7.677  0.5066  0.0199  0.7283
  170SAPE   H9X19281   2.943   1.117   7.643  0.5823 -0.8711  1.8013
  170SAPE   H9Y19282   2.788   1.067   7.724 -0.1655 -0.5438 -0.9830
  170SAPE  C31019283   2.862   1.272   7.770  0.3208  0.3282  0.1320
  170SAPE  H10X19284   2.763   1.304   7.810  0.7101  1.2121  0.4045
  170SAPE  H10Y19285   2.920   1.352   7.721  0.0911  0.6670  0.4100
  170SAPE  C31119286   2.945   1.225   7.890 -0.0081 -0.5807  0.3775
  170SAPE  H11X19287   3.042   1.182   7.855 -0.8690  0.2124 -3.2881
  170SAPE  H11Y19288   2.886   1.152   7.949  3.5471 -2.9084  1.3955
  170SAPE  C31219289   2.971   1.344   7.993  0.0788  0.0583  0.2729
  170SAPE  H12X19290   3.013   1.429   7.935  1.8367  1.5596  3.5089
  170SAPE  H12Y19291   3.032   1.317   8.081 -0.5725  0.4172  0.8505
  170SAPE  C31319292   2.836   1.395   8.062  0.3547 -0.1392  0.1461
  170SAPE  H13X19293   2.796   1.315   8.128 -2.9275  1.3278  0.0945
  170SAPE  H13Y19294   2.769   1.423   7.978 -0.2680  0.6278  0.8913
  170SAPE  C31419295   2.865   1.522   8.151 -0.4553 -0.4237 -0.3341
  170SAPE  H14X19296   2.888   1.610   8.086 -1.0306 -0.3211 -0.4064
  170SAPE  H14Y19297   2.944   1.502   8.226 -0.9500  0.6966  0.5199
  170SAPE  C31519298   2.744   1.590   8.226 -0.9901 -0.1661  0.3232
  170SAPE  H15X19299   2.707   1.506   8.289  1.5838 -0.9351  0.9391
  170SAPE  H15Y19300   2.664   1.617   8.153 -0.1555 -3.0454 -1.8453
  170SAPE  C31619301   2.791   1.724   8.293 -0.1111  0.2135 -0.5600
  170SAPE  H16X19302   2.876   1.769   8.238  1.8342 -1.9496  0.4723
  170SAPE  H16Y19303   2.819   1.705   8.399 -4.3642  0.0722  0.7308
  170SAPE  C31719304   2.682   1.829   8.285  0.2093  0.2755 -0.1558
  170SAPE  H17X19305   2.606   1.809   8.363  0.1577 -0.2029 -0.3231
  170SAPE  H17Y19306   2.626   1.842   8.190 -0.5689 -0.7505  0.1420
  170SAPE  C31819307   2.722   1.975   8.314  0.4457 -0.0067 -1.1212
  170SAPE  H18X19308   2.772   1.988   8.413 -2.1469 -0.6677  0.3760
  170SAPE  H18Y19309   2.629   2.036   8.310  0.1420 -0.2487  0.9397
  170SAPE  H18Z19310   2.795   2.004   8.236 -0.3290 -0.7161 -2.1266
  171SAPE     N19311   4.039   1.919   6.157  0.0698 -0.4858 -0.5700
  171SAPE   HN119312   4.114   1.988   6.139  2.2916 -1.6897  2.9692
  171SAPE   HN219313   4.042   1.835   6.096 -4.6711 -0.6763 -0.9411
  171SAPE   HN319314   3.950   1.967   6.133  0.3556 -1.0606 -3.0048
  171SAPE   C1219315   4.028   1.884   6.303 -0.7076  0.2512  0.0126
  171SAPE  H12A19316   4.129   1.854   6.340 -0.7277 -1.2878 -1.0697
  171SAPE  H12B19317   3.967   1.791   6.307 -0.4310 -0.0171 -1.5425
  171SAPE   C1119318   3.976   1.985   6.402  0.3360 -0.6557  0.3714
  171SAPE  H11A19319   4.033   2.080   6.396  1.1174 -1.1165  0.3953
  171SAPE  H11B19320   3.986   1.946   6.505 -1.8668 -2.5076 -0.0301
  171SAPE     P19321   3.778   2.117   6.304  0.1777  0.2715  0.6343
  171SAPE   O1319322   3.861   2.140   6.184  0.4008 -0.2705  0.1777
  171SAPE   O1419323   3.632   2.111   6.279 -0.1507 -0.0108 -0.6627
  171SAPE   O1219324   3.830   1.996   6.385 -0.1321 -0.1520 -0.5761
  171SAPE   O1119325   3.805   2.232   6.403 -0.3018 -0.3515  0.4480
  171SAPE    C119326   3.816   2.374   6.364 -0.1852 -0.2302  0.2736
  171SAPE    HA19327   3.918   2.410   6.391  0.7074 -1.8173 -0.7766
  171SAPE    HB19328   3.792   2.385   6.256 -1.5682 -2.1527  0.3227
  171SAPE    C219329   3.708   2.464   6.426 -0.0303  0.2854 -0.0698
  171SAPE    HS19330   3.722   2.571   6.400 -1.1779  0.4974  0.1060
  171SAPE   O2119331   3.707   2.443   6.574  0.4405  0.0740 -0.5172
  171SAPE   C2119332   3.810   2.496   6.635 -0.0284  0.8457 -0.1922
  171SAPE   O2219333   3.877   2.590   6.596  0.8020  0.0029  0.1676
  171SAPE   C2219334   3.850   2.424   6.761  0.4478  0.7549 -0.1176
  171SAPE   H2R19335   3.771   2.429   6.839 -0.4433  2.2432 -1.0566
  171SAPE   H2S19336   3.863   2.318   6.732 -3.2051  0.8627 -2.9573
  171SAPE    C319337   3.569   2.422   6.361 -0.0279 -1.2163 -0.4613
  171SAPE    HX19338   3.554   2.313   6.379  1.2763 -1.2579  0.4927
  171SAPE    HY19339   3.572   2.438   6.251 -0.9112  2.9838 -0.0084
  171SAPE   O3119340   3.456   2.490   6.410 -0.7780 -0.7058 -0.6387
  171SAPE   C3119341   3.440   2.613   6.364  0.1637  0.5978  0.0463
  171SAPE   O3219342   3.516   2.662   6.283  0.0841 -0.7094 -0.4050
  171SAPE   C3219343   3.331   2.700   6.445  0.0215 -0.0952 -0.2230
  171SAPE   H2X19344   3.232   2.668   6.406 -2.2377  3.0811  2.3726
  171SAPE   H2Y19345   3.359   2.804   6.416  2.6518 -0.7430 -0.2991
  171SAPE   C2319346   3.983   2.484   6.820  0.4348  0.1734 -0.4283
  171SAPE   H3R19347   3.973   2.594   6.835 -0.7902 -0.1116  0.9834
  171SAPE   H3S19348   4.065   2.467   6.747  1.6388  0.8972  0.7053
  171SAPE   C2419349   4.020   2.415   6.949 -0.0244 -0.3519 -0.1156
  171SAPE   H4R19350   4.130   2.428   6.954 -0.0050 -0.1885 -0.8031
  171SAPE   H4S19351   3.998   2.308   6.932  0.9557 -0.8031  1.3120
  171SAPE   C2519352   3.947   2.464   7.067  0.1466 -0.2807  0.5634
  171SAPE   H5R19353   3.838   2.446   7.072  0.3717 -2.3470 -1.0762
  171SAPE   C2619354   3.998   2.534   7.166 -0.0164 -0.5931  0.2124
  171SAPE   H6R19355   3.927   2.565   7.244  0.0762  1.4358 -0.4410
  171SAPE   C2719356   4.144   2.569   7.182 -0.3637  0.4911 -0.8085
  171SAPE   H7R19357   4.147   2.662   7.242 -1.6707 -1.6299  2.9147
  171SAPE   H7S19358   4.181   2.597   7.081  1.2387  0.5644 -0.2277
  171SAPE   C2819359   4.229   2.457   7.241 -0.1144  0.2740  0.5645
  171SAPE   H8R19360   4.302   2.408   7.175 -1.4587 -0.7502 -0.2039
  171SAPE   C2919361   4.227   2.420   7.372  0.2767 -0.1218 -1.1196
  171SAPE   H9R19362   4.296   2.338   7.399 -0.8503 -0.7413  0.0267
  171SAPE  C21019363   4.134   2.469   7.491  0.0991 -0.0522  0.9389
  171SAPE  H10R19364   4.066   2.382   7.499  0.0957 -0.0587  0.8381
  171SAPE  H10S19365   4.066   2.554   7.466 -0.1921 -0.2671  0.9926
  171SAPE  C21119366   4.197   2.490   7.624  0.1085 -0.1402  0.8970
  171SAPE  H11R19367   4.306   2.483   7.613 -0.1820 -2.3624 -1.5535
  171SAPE  C21219368   4.129   2.527   7.734  0.2183 -0.2885  0.3210
  171SAPE  H12R19369   4.186   2.548   7.826  1.2152  1.3288 -0.6047
  171SAPE  C21319370   3.978   2.540   7.745  0.8441  0.5489  0.0199
  171SAPE  H13R19371   3.937   2.471   7.669  1.0474  1.5208 -1.0077
  171SAPE  H13S19372   3.945   2.646   7.733 -0.3675  0.2404  0.4758
  171SAPE  C21419373   3.943   2.491   7.888  0.5819 -0.6865  0.0337
  171SAPE  H14R19374   3.887   2.398   7.872 -0.4614  0.2480 -2.1277
  171SAPE  C21519375   3.949   2.541   8.009  0.6230  0.0590 -0.2155
  171SAPE  H15R19376   3.900   2.488   8.092  0.0335 -0.3062 -0.7817
  171SAPE  C21619377   4.026   2.670   8.047  0.4975  0.3561 -0.8517
  171SAPE  H16R19378   4.105   2.689   7.971 -0.0568  2.8420 -0.8919
  171SAPE  H16S19379   4.076   2.646   8.142  0.3677 -0.8108 -1.0652
  171SAPE  C21719380   3.943   2.796   8.077  0.8268 -0.5131 -0.0561
  171SAPE  H17R19381   4.006   2.882   8.108  2.4588 -1.4907 -0.5804
  171SAPE  H17S19382   3.876   2.783   8.165 -0.6204  1.6541 -0.7421
  171SAPE  C21819383   3.845   2.837   7.963 -0.1249  0.6186 -0.7282
  171SAPE  H18R19384   3.764   2.763   7.943  1.1081 -1.3137  0.9720
  171SAPE  H18S19385   3.903   2.863   7.872 -0.2201 -1.1940 -1.3531
  171SAPE  C21919386   3.757   2.962   8.002  0.4776  0.2063  0.0397
  171SAPE  H19R19387   3.719   3.004   7.907  2.8862 -1.6374 -1.8811
  171SAPE  H19S19388   3.827   3.031   8.055  1.0400 -1.5493  1.7348
  171SAPE  C22019389   3.642   2.929   8.100  0.3204 -0.7953  0.2107
  171SAPE  H20R19390   3.572   2.858   8.052 -0.4906 -0.5685  1.0213
  171SAPE  H20S19391   3.575   3.017   8.113  1.1766  0.1275 -1.3363
  171SAPE  H20T19392   3.687   2.887   8.192 -1.2609  2.3954  2.6422
  171SAPE   C3319393   3.347   2.688   6.596  0.9559  0.1927  0.6805
  171SAPE   H3X19394   3.357   2.578   6.611 -0.0235 -0.1923 -1.1539
  171SAPE   H3Y19395   3.252   2.719   6.644  0.4911 -3.2991  2.3547
  171SAPE   C3419396   3.466   2.752   6.651 -1.0069 -0.8097 -0.2855
  171SAPE   H4X19397   3.452   2.861   6.632 -2.3995 -1.2468 -2.0417
  171SAPE   H4Y19398   3.557   2.714   6.600  0.4651  1.5731  0.3975
  171SAPE   C3519399   3.514   2.707   6.796 -0.3555 -0.9602 -0.1722
  171SAPE   H5X19400   3.616   2.749   6.807 -1.8108  3.3475 -1.0396
  171SAPE   H5Y19401   3.518   2.596   6.794  0.5847 -0.9384  0.1318
  171SAPE   C3619402   3.430   2.764   6.908 -0.1620  0.3851 -0.1770
  171SAPE   H6X19403   3.323   2.769   6.878 -0.5315  1.9108  1.2579
  171SAPE   H6Y19404   3.451   2.871   6.927  0.4020  0.2477 -0.0310
  171SAPE   C3719405   3.449   2.680   7.036 -0.4607  0.3759  0.5079
  171SAPE   H7X19406   3.422   2.576   7.009 -0.8384  0.6227 -0.0785
  171SAPE   H7Y19407   3.377   2.729   7.106  0.7975  3.1676  0.0106
  171SAPE   C3819408   3.582   2.706   7.100  0.0026 -0.0735 -0.5980
  171SAPE   H8X19409   3.616   2.810   7.081  0.4177 -0.3675 -1.4966
  171SAPE   H8Y19410   3.655   2.636   7.055  0.2822 -0.7229  0.7910
  171SAPE   C3919411   3.590   2.670   7.253  0.0448 -0.9372 -0.2524
  171SAPE   H9X19412   3.695   2.646   7.278 -0.1648 -1.0538  0.5547
  171SAPE   H9Y19413   3.528   2.579   7.269 -0.1484 -1.1690 -2.0723
  171SAPE  C31019414   3.541   2.778   7.356 -0.5522  0.6641 -0.0644
  171SAPE  H10X19415   3.464   2.841   7.306 -0.6739  1.2279  0.8065
  171SAPE  H10Y19416   3.623   2.851   7.369 -0.0372 -0.4583  5.6068
  171SAPE  C31119417   3.513   2.712   7.489  0.3792 -0.3961  0.2434
  171SAPE  H11X19418   3.450   2.623   7.468 -1.2305  0.9346 -0.8109
  171SAPE  H11Y19419   3.439   2.773   7.546  2.6276  3.2684 -0.4106
  171SAPE  C31219420   3.639   2.689   7.571  0.8802 -0.0947  0.5314
  171SAPE  H12X19421   3.673   2.789   7.606  0.9393 -0.7100  2.3299
  171SAPE  H12Y19422   3.715   2.630   7.516 -0.4115 -0.2861 -1.1405
  171SAPE  C31319423   3.598   2.603   7.697 -0.1099 -0.2267  0.6825
  171SAPE  H13X19424   3.692   2.592   7.755 -0.1704 -0.3901  0.7509
  171SAPE  H13Y19425   3.566   2.502   7.661  0.4167 -1.0828  2.5107
  171SAPE  C31419426   3.496   2.665   7.795  0.0589  0.9194 -0.1036
  171SAPE  H14X19427   3.401   2.668   7.736  0.8623 -0.4477 -1.5520
  171SAPE  H14Y19428   3.523   2.767   7.829  2.8937  0.1916  0.0785
  171SAPE  C31519429   3.465   2.575   7.918 -0.8503 -0.2313  0.2994
  171SAPE  H15X19430   3.412   2.482   7.886 -0.3087 -0.1363 -0.9530
  171SAPE  H15Y19431   3.403   2.635   7.988  1.8476  3.4470 -0.1862
  171SAPE  C31619432   3.586   2.546   8.000  0.7075  0.3309  0.0770
  171SAPE  H16X19433   3.631   2.639   8.042  3.0832  0.7008 -2.9111
  171SAPE  H16Y19434   3.660   2.495   7.934  0.2307 -1.1952  0.6699
  171SAPE  C31719435   3.549   2.457   8.123  0.1162 -0.3206  0.4519
  171SAPE  H17X19436   3.443   2.481   8.149  0.2003  1.1882 -0.4990
  171SAPE  H17Y19437   3.620   2.491   8.201  2.2054 -0.3776 -1.3306
  171SAPE  C31819438   3.555   2.304   8.103 -0.3199  0.6838 -0.6510
  171SAPE  H18X19439   3.498   2.277   8.012 -0.1262  1.1832 -0.9240
  171SAPE  H18Y19440   3.497   2.262   8.188 -1.4420  1.9467 -0.7581
  171SAPE  H18Z19441   3.662   2.274   8.099 -0.9643 -2.2958  0.9237
  172SAPE     N19442   1.916   0.393   5.953  0.5520  0.2707  0.0149
  172SAPE   HN119443   1.946   0.464   5.883  2.3250 -0.3304  0.1187
  172SAPE   HN219444   1.975   0.409   6.038 -1.5114  0.8583  1.4134
  172SAPE   HN319445   1.944   0.303   5.908 -1.7624 -0.5423  0.0721
  172SAPE   C1219446   1.773   0.413   6.008  0.0276 -0.5542  0.3205
  172SAPE  H12A19447   1.713   0.332   5.961 -0.6409 -0.1992  0.5355
  172SAPE  H12B19448   1.733   0.505   5.960 -0.2107  0.8860  3.0634
  172SAPE   C1119449   1.763   0.414   6.156 -0.2143 -0.5100 -0.3797
  172SAPE  H11A19450   1.823   0.495   6.201  0.2649 -2.1095  2.0222
  172SAPE  H11B19451   1.814   0.322   6.191 -1.4087 -1.5727 -1.2973
  172SAPE     P19452   1.546   0.544   6.213  0.3071  0.3276  0.3342
  172SAPE   O1319453   1.587   0.643   6.116 -0.6650 -0.0358 -0.9283
  172SAPE   O1419454   1.407   0.499   6.207 -0.5492 -0.3284  0.1331
  172SAPE   O1219455   1.624   0.413   6.203 -0.1759 -0.3613 -0.4681
  172SAPE   O1119456   1.572   0.607   6.356  0.0798 -0.2500 -0.6449
  172SAPE    C119457   1.574   0.503   6.464 -0.0807  0.0119  0.4149
  172SAPE    HA19458   1.467   0.472   6.464 -0.6043  1.6002  2.0867
  172SAPE    HB19459   1.648   0.422   6.451 -1.3986 -1.0603 -0.7290
  172SAPE    C219460   1.609   0.571   6.605  0.2745 -0.9544 -0.2920
  172SAPE    HS19461   1.510   0.615   6.631  0.6038  1.0652 -2.1748
  172SAPE   O2119462   1.722   0.664   6.597  0.5321 -0.1276  0.9064
  172SAPE   C2119463   1.700   0.787   6.660  0.1912  0.9392 -0.1738
  172SAPE   O2219464   1.591   0.828   6.696  0.0555  0.2884 -0.2749
  172SAPE   C2219465   1.830   0.850   6.675 -0.3733 -0.0460  0.2269
  172SAPE   H2R19466   1.910   0.773   6.666 -0.2773  0.2427 -2.0428
  172SAPE   H2S19467   1.849   0.918   6.590  1.6341 -1.6489 -0.7122
  172SAPE    C319468   1.652   0.471   6.710  0.1231 -0.9057 -0.6299
  172SAPE    HX19469   1.746   0.420   6.680  1.5775 -1.2540  3.7037
  172SAPE    HY19470   1.582   0.385   6.707  1.0675 -1.7379  0.3342
  172SAPE   O3119471   1.665   0.525   6.850 -0.3823 -0.4134 -0.3479
  172SAPE   C3119472   1.546   0.516   6.924 -0.6166  0.1149 -0.1321
  172SAPE   O3219473   1.441   0.471   6.879 -0.0914 -0.5905  0.4252
  172SAPE   C3219474   1.574   0.572   7.066 -0.1421 -0.4175  0.1321
  172SAPE   H2X19475   1.495   0.646   7.091  0.0185 -0.5328  1.0422
  172SAPE   H2Y19476   1.672   0.623   7.057 -1.2614  1.6340 -1.1585
  172SAPE   C2319477   1.840   0.938   6.805 -0.4127  0.3805 -0.4186
  172SAPE   H3R19478   1.825   0.857   6.880  0.2867 -2.0022 -2.7204
  172SAPE   H3S19479   1.750   1.004   6.806 -0.8628 -0.2148 -1.2857
  172SAPE   C2419480   1.980   0.999   6.827 -0.3976  0.7363 -0.6601
  172SAPE   H4R19481   2.020   1.043   6.733  1.9691 -0.6885 -0.3797
  172SAPE   H4S19482   2.063   0.926   6.837 -2.5680 -1.7842  0.1413
  172SAPE   C2519483   1.982   1.112   6.935 -0.3007 -0.8053  0.2083
  172SAPE   H5R19484   1.966   1.207   6.881  0.7525 -1.5745 -1.5341
  172SAPE   C2619485   1.998   1.111   7.068 -0.5795  0.1558  0.5144
  172SAPE   H6R19486   2.008   1.207   7.119 -1.5842  0.7346 -0.3303
  172SAPE   C2719487   2.026   0.974   7.141  0.5340 -0.1217  0.0602
  172SAPE   H7R19488   1.992   0.889   7.079  0.6427  0.4699 -0.8146
  172SAPE   H7S19489   1.964   0.966   7.233  0.0078  1.0330 -0.1734
  172SAPE   C2819490   2.173   0.963   7.166  0.0005 -0.1749  0.4288
  172SAPE   H8R19491   2.238   0.904   7.099  0.6845 -3.0931  3.3813
  172SAPE   C2919492   2.236   1.018   7.267 -0.5321 -0.5546  0.0960
  172SAPE   H9R19493   2.346   1.015   7.274 -0.4449 -1.6349 -1.3115
  172SAPE  C21019494   2.170   1.091   7.374 -0.4029  0.3091 -1.0327
  172SAPE  H10R19495   2.150   1.015   7.452  0.2503 -0.3797 -1.5281
  172SAPE  H10S19496   2.070   1.127   7.340 -0.4703  0.1109 -1.0416
  172SAPE  C21119497   2.252   1.207   7.432 -0.2390 -0.6435 -0.4985
  172SAPE  H11R19498   2.229   1.303   7.382 -3.6720 -0.5381  1.0120
  172SAPE  C21219499   2.330   1.216   7.539  0.7832  0.0176  0.0390
  172SAPE  H12R19500   2.401   1.299   7.551  1.4257 -0.8318  2.7539
  172SAPE  C21319501   2.363   1.106   7.635  0.0907  0.6770 -0.9273
  172SAPE  H13R19502   2.473   1.110   7.651 -0.0650  1.5752 -0.0129
  172SAPE  H13S19503   2.352   1.005   7.590  1.5053 -0.0491  0.2530
  172SAPE  C21419504   2.286   1.112   7.767  0.0429  0.0157  0.1797
  172SAPE  H14R19505   2.228   1.023   7.794  2.2619 -1.3528  0.7364
  172SAPE  C21519506   2.284   1.214   7.860 -1.0588  0.3821  0.5704
  172SAPE  H15R19507   2.221   1.202   7.950  1.2044 -0.3773  2.1672
  172SAPE  C21619508   2.356   1.347   7.851  0.2066  0.4131  0.2766
  172SAPE  H16R19509   2.293   1.438   7.840 -0.6525  0.2299  2.8849
  172SAPE  H16S19510   2.426   1.341   7.766  1.7562 -1.1008  1.5874
  172SAPE  C21719511   2.430   1.374   7.980 -0.6951  1.2459 -0.5204
  172SAPE  H17R19512   2.507   1.452   7.966  2.1931 -1.6847 -2.4616
  172SAPE  H17S19513   2.483   1.282   8.013 -1.3609  0.9838 -0.1628
  172SAPE  C21819514   2.327   1.408   8.088  0.2009 -0.1941  0.1839
  172SAPE  H18R19515   2.270   1.326   8.136  0.2398 -1.1845 -1.4069
  172SAPE  H18S19516   2.242   1.466   8.046  0.0401 -0.3197  0.3393
  172SAPE  C21919517   2.383   1.501   8.202  0.2016 -0.4432  0.4380
  172SAPE  H19R19518   2.451   1.567   8.144 -0.7738  0.1372 -0.0633
  172SAPE  H19S19519   2.452   1.449   8.271 -0.7096  1.5357  3.0008
  172SAPE  C22019520   2.282   1.589   8.276  0.7892 -0.5316 -0.1898
  172SAPE  H20R19521   2.219   1.538   8.352  0.2807 -0.2657 -0.4211
  172SAPE  H20S19522   2.208   1.638   8.209  0.4645 -2.3231 -1.2143
  172SAPE  H20T19523   2.330   1.669   8.336 -0.4728 -1.3774  2.1066
  172SAPE   C3319524   1.581   0.462   7.179 -0.5676 -0.3829  0.0107
  172SAPE   H3X19525   1.654   0.386   7.146 -0.3937 -0.6091  0.8958
  172SAPE   H3Y19526   1.486   0.405   7.170  0.1367 -1.3577 -1.9925
  172SAPE   C3419527   1.619   0.519   7.313  0.3915 -0.9698 -0.2878
  172SAPE   H4X19528   1.534   0.585   7.342  2.1612  1.5042 -0.4277
  172SAPE   H4Y19529   1.700   0.594   7.303  0.0982 -0.5135  0.6125
  172SAPE   C3519530   1.667   0.418   7.420 -0.2740 -0.4039  0.3270
  172SAPE   H5X19531   1.762   0.371   7.385 -0.8857 -1.8158  0.5043
  172SAPE   H5Y19532   1.601   0.329   7.429 -1.6731  0.6627  0.9543
  172SAPE   C3619533   1.675   0.475   7.569 -0.2796 -0.2793  0.7942
  172SAPE   H6X19534   1.746   0.560   7.579 -0.9070  0.7385 -2.2430
  172SAPE   H6Y19535   1.725   0.399   7.632  1.9426 -0.5869 -1.1869
  172SAPE   C3719536   1.532   0.512   7.621 -0.2210 -0.1336  0.1745
  172SAPE   H7X19537   1.470   0.420   7.606 -0.2110  0.0268 -0.9963
  172SAPE   H7Y19538   1.477   0.589   7.563 -0.2681  0.0735  0.4912
  172SAPE   C3819539   1.534   0.544   7.771  0.4880 -0.2171  0.4860
  172SAPE   H8X19540   1.557   0.652   7.771  0.2586 -0.1535 -0.7465
  172SAPE   H8Y19541   1.610   0.495   7.835 -0.7787 -0.3675  1.9448
  172SAPE   C3919542   1.395   0.533   7.836 -0.4247  0.5423 -0.2562
  172SAPE   H9X19543   1.381   0.428   7.870 -0.8414  0.0981 -1.7267
  172SAPE   H9Y19544   1.315   0.565   7.766  2.0941  2.1860 -2.5910
  172SAPE  C31019545   1.370   0.629   7.954 -0.4855 -0.4053  0.0989
  172SAPE  H10X19546   1.399   0.730   7.918 -0.7721  0.4293  2.0446
  172SAPE  H10Y19547   1.446   0.609   8.032  0.6996  2.3156 -0.2674
  172SAPE  C31119548   1.239   0.630   8.014  1.0237  0.4110 -0.4071
  172SAPE  H11X19549   1.163   0.606   7.936  1.4418 -1.9630 -0.1852
  172SAPE  H11Y19550   1.216   0.733   8.047  0.3907  0.7330 -1.7606
  172SAPE  C31219551   1.222   0.531   8.140  0.1785  0.2296  0.1118
  172SAPE  H12X19552   1.300   0.560   8.213 -2.4257  1.6085  2.5444
  172SAPE  H12Y19553   1.249   0.427   8.109  1.2745  0.9726 -1.5913
  172SAPE  C31319554   1.081   0.526   8.208  0.2160  0.3027  0.6102
  172SAPE  H13X19555   1.064   0.451   8.288 -0.9969 -0.3201 -0.2057
  172SAPE  H13Y19556   1.013   0.492   8.127  0.4455 -1.0023  0.9414
  172SAPE  C31419557   1.028   0.659   8.260  0.1744 -0.9783 -0.5298
  172SAPE  H14X19558   0.927   0.679   8.219 -1.6727  0.3056  3.9714
  172SAPE  H14Y19559   1.101   0.735   8.224 -0.0533 -0.9430 -0.9166
  172SAPE  C31519560   1.037   0.655   8.418  0.0792 -0.0924  0.5806
  172SAPE  H15X19561   1.137   0.630   8.460 -0.6262  2.4831  4.3534
  172SAPE  H15Y19562   0.966   0.576   8.450  0.7905 -1.9177 -1.9985
  172SAPE  C31619563   1.001   0.790   8.477 -0.4835  0.3509 -0.0484
  172SAPE  H16X19564   0.894   0.814   8.456  0.2450  1.9927 -2.2644
  172SAPE  H16Y19565   1.054   0.865   8.415  0.7693 -0.0398  0.5271
  172SAPE  C31719566   1.035   0.812   8.627 -0.0576  0.0825  0.5073
  172SAPE  H17X19567   0.963   0.770   8.699  0.8671  2.4679  2.9760
  172SAPE  H17Y19568   1.021   0.921   8.643 -1.1965 -0.1145  0.8906
  172SAPE  C31819569   1.186   0.793   8.667  0.2920  0.1759  0.6643
  172SAPE  H18X19570   1.204   0.837   8.767  0.8752  1.1615  0.1415
  172SAPE  H18Y19571   1.254   0.849   8.599 -0.2030  1.5233  1.2447
  172SAPE  H18Z19572   1.204   0.684   8.662 -0.8177 -0.0041  0.2248
  173SOPE     N19573   5.391   4.945  10.309  0.4113  0.0447 -0.1533
  173SOPE   HN119574   5.334   4.967  10.224  0.3493  0.0858 -0.1009
  173SOPE   HN219575   5.347   4.975  10.398  2.4666  0.9811  0.5975
  173SOPE   HN319576   5.473   5.009  10.304  0.8443 -0.3521  1.2925
  173SOPE   C1219577   5.423   4.803  10.331  0.6731 -0.2418  0.0703
  173SOPE  H12A19578   5.490   4.776  10.247  1.1418  2.1728 -0.4010
  173SOPE  H12B19579   5.328   4.750  10.350 -0.0718  0.7554 -0.7939
  173SOPE   C1119580   5.505   4.797  10.457 -0.7288  0.5469  0.0269
  173SOPE  H11A19581   5.536   4.691  10.456  0.9216  0.9573  1.7482
  173SOPE  H11B19582   5.442   4.821  10.546  1.2874  1.2891  1.3221
  173SOPE     P19583   5.759   4.862  10.512 -0.2171 -0.1204  0.2750
  173SOPE   O1319584   5.737   4.758  10.618 -0.0009 -0.0684 -0.0502
  173SOPE   O1419585   5.842   4.977  10.546 -1.2655  0.0512 -0.2254
  173SOPE   O1219586   5.615   4.893  10.458 -0.1026  0.7484  0.1870
  173SOPE   O1119587   5.811   4.793  10.377 -0.0614  0.5714  0.4885
  173SOPE    C119588   5.876   4.873  10.278 -0.6585 -0.2770  0.4832
  173SOPE    HA19589   5.965   4.820  10.236  0.0190  0.0749  1.4301
  173SOPE    HB19590   5.905   4.975  10.312 -1.4787  0.8843 -2.0556
  173SOPE    C219591   5.789   4.877  10.147 -0.3162 -0.8165 -0.3752
  173SOPE    HS19592   5.695   4.934  10.164  0.8551  0.8662  0.9672
  173SOPE   O2119593   5.770   4.739  10.108 -0.0477  0.1423  0.3651
  173SOPE   C2119594   5.678   4.721  10.014 -0.5065 -0.8100  0.3187
  173SOPE   O2219595   5.602   4.809   9.978 -0.0345 -0.2296 -0.3656
  173SOPE   C2219596   5.661   4.585   9.966 -0.3096  0.0921 -0.1605
  173SOPE   H2R19597   5.554   4.559   9.971 -0.2624 -0.3348 -1.1432
  173SOPE   H2S19598   5.709   4.507  10.029 -2.2454 -0.7881  0.2787
  173SOPE    C319599   5.869   4.944  10.031 -0.3807  0.0368  0.2824
  173SOPE    HX19600   5.795   4.958   9.950 -0.6521 -0.0583  0.5118
  173SOPE    HY19601   5.946   4.875   9.989 -0.5355  1.2964 -2.2117
  173SOPE   O3119602   5.926   5.069  10.067  0.2683  0.1241  0.0812
  173SOPE   C3119603   5.848   5.178  10.057  0.3045  0.1323 -0.1672
  173SOPE   O3219604   5.730   5.178  10.026  0.0676  0.4653  0.3720
  173SOPE   C3219605   5.926   5.296  10.114 -0.5335  0.6295 -0.1945
  173SOPE   H2X19606   6.035   5.286  10.094  0.0466  1.6715  2.1107
  173SOPE   H2Y19607   5.915   5.294  10.224 -1.0396  1.4607 -0.2215
  173SOPE   C2319608   5.708   4.574   9.820 -0.3015 -0.1317 -0.7127
  173SOPE   H3R19609   5.647   4.639   9.755  0.5282  0.3207 -1.0516
  173SOPE   H3S19610   5.686   4.469   9.792 -0.2245 -0.4546  0.3646
  173SOPE   C2419611   5.855   4.598   9.801 -0.0692 -0.8763 -0.1597
  173SOPE   H4R19612   5.866   4.708   9.806  1.6852 -1.0688  0.9626
  173SOPE   H4S19613   5.919   4.570   9.887  0.4556 -0.0499 -0.2707
  173SOPE   C2519614   5.904   4.537   9.665  0.1801 -1.2037  0.0521
  173SOPE   H5R19615   5.998   4.588   9.636 -0.4468 -0.4430 -0.6911
  173SOPE   H5S19616   5.928   4.429   9.665 -0.7598 -1.4223 -0.5090
  173SOPE   C2619617   5.813   4.558   9.543 -0.3312 -0.4483 -0.0078
  173SOPE   H6R19618   5.753   4.464   9.540  1.5566 -1.9431  3.4095
  173SOPE   H6S19619   5.753   4.650   9.557  0.5977 -0.0122  1.3172
  173SOPE   C2719620   5.898   4.565   9.412  0.2641  0.4178 -0.0989
  173SOPE   H7R19621   5.975   4.645   9.408 -0.4160  1.0629 -3.1308
  173SOPE   H7S19622   5.949   4.467   9.396  0.2783  0.5557 -0.9997
  173SOPE   C2819623   5.807   4.580   9.292 -0.2115  0.0253 -0.1881
  173SOPE   H8R19624   5.860   4.559   9.196  1.0022  2.8687 -0.2490
  173SOPE   H8S19625   5.728   4.504   9.305 -0.7142  0.8688  2.1285
  173SOPE   C2919626   5.751   4.720   9.278  0.4028  0.2140  0.0937
  173SOPE   H9119627   5.658   4.737   9.335 -1.3308 -0.0973 -2.4538
  173SOPE  C21019628   5.783   4.813   9.185  1.0763 -0.6391  0.7442
  173SOPE  H10119629   5.719   4.903   9.179  1.4027 -0.4301  0.3562
  173SOPE  C21119630   5.897   4.804   9.089  0.0583  0.3181  0.4811
  173SOPE  H11R19631   5.968   4.724   9.118 -0.7311  0.0040  1.6206
  173SOPE  H11S19632   5.954   4.898   9.070 -0.5131  0.6126  0.1961
  173SOPE  C21219633   5.845   4.756   8.948  0.6599 -0.3996 -0.2803
  173SOPE  H12R19634   5.741   4.786   8.925 -0.3006 -1.6735  2.0986
  173SOPE  H12S19635   5.849   4.646   8.937 -0.2808 -0.4595 -0.0986
  173SOPE  C21319636   5.944   4.795   8.838 -0.0568 -0.2695 -0.1250
  173SOPE  H13R19637   5.953   4.905   8.823  1.2240 -0.5535 -1.6825
  173SOPE  H13S19638   5.898   4.755   8.745 -0.2528 -0.7351  0.1696
  173SOPE  C21419639   6.084   4.742   8.851 -0.0723  0.2273 -0.3868
  173SOPE  H14R19640   6.076   4.632   8.852 -1.6064  0.2808 -1.8571
  173SOPE  H14S19641   6.134   4.772   8.946  0.8221 -0.6620 -0.5702
  173SOPE  C21519642   6.175   4.788   8.734  0.1897 -0.1764 -0.2620
  173SOPE  H15R19643   6.164   4.895   8.704 -0.4539 -0.0768  0.3007
  173SOPE  H15S19644   6.136   4.731   8.647 -1.4595 -3.0627  2.1753
  173SOPE  C21619645   6.327   4.768   8.761  0.2998  0.3664 -0.1966
  173SOPE  H16R19646   6.376   4.783   8.663 -1.5268 -0.7205 -1.3519
  173SOPE  H16S19647   6.343   4.662   8.790 -0.9519  0.5062  1.1658
  173SOPE  C21719648   6.397   4.849   8.874  0.2583  0.2965  0.2374
  173SOPE  H17R19649   6.358   4.812   8.971  0.3900 -2.5033 -0.6751
  173SOPE  H17S19650   6.370   4.955   8.853  0.1030  0.1457 -0.3389
  173SOPE  C21819651   6.553   4.831   8.879 -0.4121  0.9105 -0.4032
  173SOPE  H18R19652   6.570   4.727   8.845 -0.8303  0.1496  1.6108
  173SOPE  H18S19653   6.592   4.821   8.982 -1.2928 -0.1428 -0.1486
  173SOPE  H18T19654   6.614   4.900   8.816  2.4173 -1.5353 -0.5441
  173SOPE   C3319655   5.866   5.433  10.086  0.2789  0.0058 -0.8169
  173SOPE   H3X19656   5.922   5.505  10.149 -1.6749  0.8514  0.0406
  173SOPE   H3Y19657   5.758   5.433  10.110  0.2486  1.2432 -0.8910
  173SOPE   C3419658   5.879   5.477   9.944  0.0073 -0.1478 -0.0726
  173SOPE   H4X19659   5.784   5.513   9.899 -2.0268 -1.2160  3.0600
  173SOPE   H4Y19660   5.916   5.395   9.879  2.2362  2.7412 -2.7685
  173SOPE   C3519661   5.964   5.605   9.935  0.5278 -0.2783  0.1595
  173SOPE   H5X19662   6.059   5.564   9.975  0.2632 -0.7689  0.2967
  173SOPE   H5Y19663   5.931   5.679  10.011 -0.0467 -1.3908  1.0146
  173SOPE   C3619664   5.965   5.678   9.801 -0.1357  0.0507  0.3085
  173SOPE   H6X19665   6.041   5.758   9.787  0.8968 -0.8154  0.8416
  173SOPE   H6Y19666   5.866   5.729   9.798  0.2751  0.9440  1.3191
  173SOPE   C3719667   5.990   5.591   9.674 -0.4222 -0.2297  0.2748
  173SOPE   H7X19668   5.921   5.505   9.681 -1.0975  0.0441 -2.0701
  173SOPE   H7Y19669   6.092   5.547   9.672 -0.1958  0.2995 -0.6164
  173SOPE   C3819670   5.955   5.673   9.554 -0.3837  0.0432  0.0608
  173SOPE   H8X19671   6.038   5.746   9.545  0.6455 -0.8433  1.8261
  173SOPE   H8Y19672   5.855   5.721   9.557 -0.8331 -0.8911  0.5811
  173SOPE   C3919673   5.973   5.589   9.427  0.2477  0.2683 -0.0429
  173SOPE   H9X19674   5.906   5.501   9.430  2.1717 -1.4785 -2.8662
  173SOPE   H9Y19675   6.079   5.555   9.420  0.4990  0.6086  1.6676
  173SOPE  C31019676   5.933   5.670   9.300  0.2588  0.0218 -0.2407
  173SOPE  H10X19677   6.002   5.757   9.306 -0.3038  0.4306  4.9238
  173SOPE  H10Y19678   5.827   5.703   9.310  0.3920  0.1932  0.6913
  173SOPE  C31119679   5.939   5.587   9.171  0.5215 -0.0213 -0.7075
  173SOPE  H11X19680   5.855   5.515   9.181 -1.2149  2.2441  2.6059
  173SOPE  H11Y19681   6.034   5.529   9.171 -0.2660 -1.3638 -0.0230
  173SOPE  C31219682   5.948   5.669   9.048  0.2701 -0.9894  0.0844
  173SOPE  H12X19683   5.955   5.605   8.958 -1.9247  0.5083 -1.2378
  173SOPE  H12Y19684   6.045   5.724   9.047 -0.4580  0.3359 -1.2812
  173SOPE  C31319685   5.825   5.765   9.014  0.4006  0.0709 -0.2250
  173SOPE  H13X19686   5.826   5.848   9.088 -1.0353  2.0135 -2.2523
  173SOPE  H13Y19687   5.739   5.696   9.026  2.1150 -2.4349 -1.4543
  173SOPE  C31419688   5.833   5.824   8.873  0.0112  0.6655 -0.2315
  173SOPE  H14X19689   5.747   5.894   8.869 -0.9208 -0.4788 -0.6295
  173SOPE  H14Y19690   5.805   5.746   8.798 -1.6500 -1.6911  2.6415
  173SOPE  C31519691   5.958   5.896   8.822 -0.4530 -0.1507 -0.7242
  173SOPE  H15X19692   6.044   5.832   8.851 -0.0898  0.7028  0.1409
  173SOPE  H15Y19693   5.977   5.987   8.883 -0.9353 -0.4750 -0.0760
  173SOPE  C31619694   5.963   5.934   8.674 -0.0842  0.6321  0.4793
  173SOPE  H16X19695   5.958   5.838   8.617  0.9112 -0.6731  2.4726
  173SOPE  H16Y19696   6.067   5.964   8.646  0.6171 -2.4036 -0.6078
  173SOPE  C31719697   5.846   6.014   8.626 -0.4661 -0.8114  0.5935
  173SOPE  H17X19698   5.753   5.959   8.650 -0.1826 -0.5535  2.4419
  173SOPE  H17Y19699   5.848   6.012   8.515 -0.4694  0.0568  0.5732
  173SOPE  C31819700   5.850   6.160   8.677  0.0547  0.1801 -0.0873
  173SOPE  H18X19701   5.760   6.221   8.654 -0.8841 -0.2422  2.2144
  173SOPE  H18Y19702   5.938   6.207   8.628  0.1114  2.4490  1.9992
  173SOPE  H18Z19703   5.870   6.159   8.786 -1.2165  0.8294  0.1740
  174SOPE     N19704   6.267   4.317  10.868 -1.2013  0.1177 -0.4494
  174SOPE   HN119705   6.275   4.213  10.870 -0.8156  0.1236 -1.2121
  174SOPE   HN219706   6.358   4.358  10.837 -1.1092 -0.0690 -0.4272
  174SOPE   HN319707   6.226   4.352  10.956  0.3725 -0.7972  0.7017
  174SOPE   C1219708   6.165   4.341  10.757  0.6085  0.5730  0.0797
  174SOPE  H12A19709   6.159   4.450  10.740  0.8618  0.9455  2.0855
  174SOPE  H12B19710   6.069   4.320  10.808  1.4060  0.0539  1.4364
  174SOPE   C1119711   6.201   4.242  10.642 -0.0771 -0.5716 -0.2520
  174SOPE  H11A19712   6.255   4.150  10.674 -0.3666 -0.5380  0.3547
  174SOPE  H11B19713   6.272   4.300  10.581 -0.2312  0.4612  0.5253
  174SOPE     P19714   6.011   4.084  10.569  0.0023  0.0538 -0.4459
  174SOPE   O1319715   5.906   4.105  10.671 -0.0873 -0.3258 -0.6966
  174SOPE   O1419716   6.097   3.967  10.593  0.5295  0.3743 -0.2311
  174SOPE   O1219717   6.094   4.215  10.555 -0.4349 -0.1598 -0.2289
  174SOPE   O1119718   5.954   4.086  10.423 -0.3851  0.6574  0.1256
  174SOPE    C119719   6.026   4.094  10.298  0.1827 -0.2387 -0.5531
  174SOPE    HA19720   6.077   3.999  10.272 -0.5075 -0.6446 -0.4390
  174SOPE    HB19721   6.107   4.170  10.304 -0.2584  0.1244  2.2059
  174SOPE    C219722   5.917   4.111  10.180 -0.3527 -0.1379 -0.7548
  174SOPE    HS19723   5.868   4.013  10.197 -0.1308  0.0306  1.1666
  174SOPE   O2119724   5.980   4.132  10.056  0.0332 -0.6606 -0.1144
  174SOPE   C2119725   5.927   4.066   9.958 -0.6861  0.8614 -0.0960
  174SOPE   O2219726   5.846   3.978   9.959 -0.4717  0.4098  0.8166
  174SOPE   C2219727   6.009   4.101   9.829  0.2558  0.0882 -0.0825
  174SOPE   H2R19728   6.115   4.085   9.858  0.3961  0.4949 -0.3604
  174SOPE   H2S19729   6.002   4.212   9.826 -0.5660  0.0220 -1.7318
  174SOPE    C319730   5.823   4.229  10.211 -0.0543  0.1516 -0.4903
  174SOPE    HX19731   5.879   4.322  10.187 -1.3432  1.2067  0.4229
  174SOPE    HY19732   5.788   4.221  10.316 -2.1479  0.4428 -1.1117
  174SOPE   O3119733   5.697   4.230  10.124  1.0186  0.0082 -0.0445
  174SOPE   C3119734   5.586   4.165  10.167 -1.2792 -1.0588  0.0666
  174SOPE   O3219735   5.582   4.103  10.272  0.1177 -0.1306  0.5279
  174SOPE   C3219736   5.468   4.200  10.079 -0.2215 -0.0060 -0.5685
  174SOPE   H2X19737   5.425   4.298  10.108 -2.4138 -1.0489 -0.0157
  174SOPE   H2Y19738   5.398   4.118  10.110  0.6752 -0.5708  0.0074
  174SOPE   C2319739   5.949   4.044   9.691 -0.4389  1.0654 -0.2672
  174SOPE   H3R19740   5.843   4.077   9.694 -0.3748  1.5440  3.9202
  174SOPE   H3S19741   5.952   3.933   9.686 -1.4859  1.0734 -1.5252
  174SOPE   C2419742   6.013   4.111   9.563 -0.4296  0.0984 -0.2136
  174SOPE   H4R19743   6.045   4.215   9.585  1.6949 -0.3581 -0.8766
  174SOPE   H4S19744   6.111   4.062   9.544 -0.7238 -0.6304  0.0982
  174SOPE   C2519745   5.938   4.096   9.426  0.7944 -0.0537  0.3473
  174SOPE   H5R19746   5.947   3.989   9.401 -1.3127 -0.4363  1.0251
  174SOPE   H5S19747   5.830   4.120   9.432  0.5619 -1.1120  0.5979
  174SOPE   C2619748   5.984   4.172   9.301  0.1915 -0.1168 -0.2378
  174SOPE   H6R19749   5.952   4.277   9.317  0.3309 -0.0603 -0.3244
  174SOPE   H6S19750   6.095   4.176   9.301  0.1786  1.5585 -2.1349
  174SOPE   C2719751   5.923   4.121   9.175  0.5842  0.0955 -0.2360
  174SOPE   H7R19752   5.933   4.010   9.172  0.5342  0.0784  0.1415
  174SOPE   H7S19753   5.814   4.141   9.169  0.7740  0.6775 -2.6856
  174SOPE   C2819754   5.986   4.182   9.048  0.3520 -0.2434 -0.2316
  174SOPE   H8R19755   5.983   4.291   9.072  1.2623 -0.3790  0.5717
  174SOPE   H8S19756   6.094   4.160   9.047  0.3576 -0.3391  0.9646
  174SOPE   C2919757   5.918   4.153   8.916 -0.1236 -0.1189 -0.8728
  174SOPE   H9119758   5.812   4.182   8.917 -1.0283 -3.1284 -0.7266
  174SOPE  C21019759   5.969   4.132   8.798 -0.9274  0.4761  0.3251
  174SOPE  H10119760   5.909   4.095   8.714 -1.6582 -1.0459  1.4745
  174SOPE  C21119761   6.122   4.118   8.774  0.3342  0.4111 -0.5308
  174SOPE  H11R19762   6.182   4.152   8.861 -1.5786 -0.5919  1.2812
  174SOPE  H11S19763   6.147   4.189   8.693 -1.2271  2.8329  0.9903
  174SOPE  C21219764   6.138   3.973   8.732 -0.2777 -1.1162  0.0003
  174SOPE  H12R19765   6.069   3.964   8.646 -1.0418  1.0928  0.3119
  174SOPE  H12S19766   6.110   3.900   8.811  1.1193 -1.2310  0.4117
  174SOPE  C21319767   6.278   3.940   8.698  0.3033  0.0478  0.1024
  174SOPE  H13R19768   6.325   4.014   8.630  1.7322  0.8733  1.9105
  174SOPE  H13S19769   6.282   3.840   8.651 -0.4552  0.3875 -0.7138
  174SOPE  C21419770   6.367   3.917   8.823 -0.1878  0.2823 -0.2185
  174SOPE  H14R19771   6.334   3.842   8.899  0.7034 -0.1930 -0.2861
  174SOPE  H14S19772   6.361   4.016   8.874  2.5669  0.4502 -0.0597
  174SOPE  C21519773   6.508   3.886   8.779  0.0923  0.4434  0.4787
  174SOPE  H15R19774   6.568   3.977   8.756  0.7081 -0.3612 -1.2694
  174SOPE  H15S19775   6.523   3.830   8.684 -0.3279  0.9635  0.0968
  174SOPE  C21619776   6.601   3.802   8.870  0.1949 -0.1273  0.8273
  174SOPE  H16R19777   6.571   3.696   8.877  2.5480 -0.8839  0.4272
  174SOPE  H16S19778   6.610   3.849   8.970  1.0371 -0.7309  1.0480
  174SOPE  C21719779   6.744   3.792   8.814 -0.4954 -0.1594 -0.6561
  174SOPE  H17R19780   6.797   3.887   8.791  1.0103 -0.6269  0.6723
  174SOPE  H17S19781   6.739   3.732   8.721  0.9835 -0.6044 -0.4698
  174SOPE  C21819782   6.826   3.714   8.914 -0.1471 -0.4543  0.3335
  174SOPE  H18R19783   6.861   3.782   8.994  0.3830  2.3235 -2.0871
  174SOPE  H18S19784   6.921   3.670   8.877 -0.7509 -1.8417  0.3715
  174SOPE  H18T19785   6.773   3.625   8.954 -0.6416 -0.2575  0.1214
  174SOPE   C3319786   5.494   4.196   9.927  0.4523  0.0204 -0.6762
  174SOPE   H3X19787   5.577   4.127   9.900 -0.7746 -1.1614 -1.5865
  174SOPE   H3Y19788   5.538   4.295   9.906  0.9630 -0.0141  0.1573
  174SOPE   C3419789   5.374   4.171   9.832 -0.0741 -0.3845 -0.2950
  174SOPE   H4X19790   5.301   4.254   9.845  0.9949  0.5481 -0.0366
  174SOPE   H4Y19791   5.325   4.076   9.860  3.6604 -2.8085 -1.2810
  174SOPE   C3519792   5.429   4.154   9.688  0.3931 -0.3352  0.1352
  174SOPE   H5X19793   5.360   4.102   9.617 -0.8576  2.9992 -1.2967
  174SOPE   H5Y19794   5.523   4.095   9.687  0.5778 -0.0595 -1.8034
  174SOPE   C3619795   5.459   4.295   9.623 -0.2305  1.1527 -0.4546
  174SOPE   H6X19796   5.540   4.340   9.684 -1.4665  1.4250  1.0548
  174SOPE   H6Y19797   5.367   4.357   9.630 -0.7273  0.3916  0.0557
  174SOPE   C3719798   5.505   4.284   9.477 -0.0031  0.7901  0.2137
  174SOPE   H7X19799   5.594   4.218   9.471 -1.7149 -1.6327  0.1944
  174SOPE   H7Y19800   5.530   4.385   9.437  0.7844  0.3317 -0.4756
  174SOPE   C3819801   5.405   4.233   9.378 -0.4964 -0.0778 -0.3179
  174SOPE   H8X19802   5.316   4.300   9.371 -0.4023  0.3399  1.8444
  174SOPE   H8Y19803   5.379   4.130   9.409  0.6317 -0.9505 -2.1431
  174SOPE   C3919804   5.474   4.217   9.238  0.2325  0.3683 -0.1953
  174SOPE   H9X19805   5.409   4.145   9.184  0.4153  0.1631 -0.1443
  174SOPE   H9Y19806   5.568   4.161   9.255  0.7919  1.8344  1.9775
  174SOPE  C31019807   5.486   4.351   9.153  0.5194 -0.3188  0.2377
  174SOPE  H10X19808   5.576   4.407   9.185  0.7398  0.1336 -1.0896
  174SOPE  H10Y19809   5.391   4.408   9.155 -0.8866 -2.5185  0.0510
  174SOPE  C31119810   5.517   4.306   9.009  0.0383 -0.3260 -0.3807
  174SOPE  H11X19811   5.435   4.242   8.968  1.3655 -2.0341 -0.5099
  174SOPE  H11Y19812   5.614   4.252   9.019  0.9257  1.5095  1.6338
  174SOPE  C31219813   5.541   4.421   8.918  0.5624  0.2756 -0.1136
  174SOPE  H12X19814   5.570   4.517   8.967  2.4934  0.0960 -0.8111
  174SOPE  H12Y19815   5.454   4.444   8.853  0.7233 -2.6155 -1.5170
  174SOPE  C31319816   5.654   4.398   8.818 -0.0031 -0.2585 -0.4463
  174SOPE  H13X19817   5.638   4.290   8.797  0.5540 -0.4146 -0.1042
  174SOPE  H13Y19818   5.756   4.390   8.861  0.0149  1.4242 -0.1038
  174SOPE  C31419819   5.642   4.485   8.689  0.2969 -0.0168 -0.1253
  174SOPE  H14X19820   5.725   4.472   8.616 -0.0981  2.8071 -1.2069
  174SOPE  H14Y19821   5.669   4.591   8.710 -0.2890  0.3704 -1.2680
  174SOPE  C31519822   5.508   4.485   8.619 -0.9232  0.1304 -0.2058
  174SOPE  H15X19823   5.516   4.542   8.524  0.9229  1.4292  0.6577
  174SOPE  H15Y19824   5.425   4.537   8.669 -1.1726  1.3237 -1.7822
  174SOPE  C31619825   5.470   4.339   8.597  0.2226  0.5066  0.0526
  174SOPE  H16X19826   5.437   4.273   8.680 -2.4778  1.9527  0.2509
  174SOPE  H16Y19827   5.552   4.284   8.546  0.2312 -0.6315  1.2456
  174SOPE  C31719828   5.352   4.342   8.497  0.6184  0.2934  0.2341
  174SOPE  H17X19829   5.343   4.233   8.475  0.4272  0.5290 -0.9273
  174SOPE  H17Y19830   5.384   4.393   8.404  1.0695  1.2556  0.8981
  174SOPE  C31819831   5.213   4.396   8.548 -0.4979  0.7329 -0.0814
  174SOPE  H18X19832   5.132   4.367   8.477  1.2062 -2.1394 -0.9840
  174SOPE  H18Y19833   5.207   4.507   8.559 -0.6540  0.6169  1.2356
  174SOPE  H18Z19834   5.197   4.344   8.645  1.7124  0.7707  0.3567
  175SOPE     N19835   2.654   3.315  10.871 -0.6473  0.3983  0.4496
  175SOPE   HN119836   2.752   3.295  10.899 -0.0428  0.9461 -1.1853
  175SOPE   HN219837   2.608   3.388  10.929 -1.3042 -0.9883  1.7454
  175SOPE   HN319838   2.594   3.230  10.881 -1.6354  0.6406 -2.6033
  175SOPE   C1219839   2.655   3.335  10.727 -0.5176 -0.1171 -0.4059
  175SOPE  H12A19840   2.552   3.361  10.694 -0.2196  1.6413 -0.0922
  175SOPE  H12B19841   2.687   3.238  10.683  0.0500 -0.0670 -0.1077
  175SOPE   C1119842   2.746   3.459  10.695  0.4987  0.2713  0.0174
  175SOPE  H11A19843   2.741   3.468  10.584  2.8162  3.7168  0.0571
  175SOPE  H11B19844   2.848   3.442  10.735  0.6412  1.5837  0.2315
  175SOPE     P19845   2.705   3.725  10.697  0.2873 -0.3116  0.4111
  175SOPE   O1319846   2.847   3.727  10.641 -0.1052  0.1722 -0.0763
  175SOPE   O1419847   2.663   3.825  10.800 -0.2517 -0.3553 -0.2317
  175SOPE   O1219848   2.686   3.572  10.760 -0.0565 -0.4058  0.2209
  175SOPE   O1119849   2.602   3.738  10.571  0.7558  0.1636 -0.3292
  175SOPE    C119850   2.492   3.644  10.555 -1.3843 -0.2888 -0.1558
  175SOPE    HA19851   2.408   3.678  10.618 -1.2132  1.8374 -0.9818
  175SOPE    HB19852   2.514   3.542  10.593  1.9254  0.6674  0.8451
  175SOPE    C219853   2.453   3.630  10.401 -0.0554 -0.7584 -0.0832
  175SOPE    HS19854   2.373   3.553  10.412 -0.7323 -0.0470  0.1092
  175SOPE   O2119855   2.557   3.591  10.313  0.0396  0.0592  0.3655
  175SOPE   C2119856   2.578   3.461  10.307  0.4541  0.1968  0.3979
  175SOPE   O2219857   2.507   3.375  10.356  0.1302 -0.3155  0.7134
  175SOPE   C2219858   2.709   3.435  10.230 -0.0814  0.2631 -0.0648
  175SOPE   H2R19859   2.709   3.328  10.201 -0.6997  0.6070 -1.4092
  175SOPE   H2S19860   2.787   3.451  10.308  0.0492  1.3786 -0.4109
  175SOPE    C319861   2.379   3.756  10.351  0.0215 -0.0155  0.1603
  175SOPE    HX19862   2.442   3.847  10.354 -1.1905  0.8244  1.4991
  175SOPE    HY19863   2.317   3.779  10.440  2.8752  0.9355  2.0590
  175SOPE   O3119864   2.303   3.739  10.226  0.7345 -0.2018 -0.7955
  175SOPE   C3119865   2.171   3.717  10.250  0.0052  0.5724 -0.2923
  175SOPE   O3219866   2.123   3.701  10.360  0.2085  0.0606 -0.1896
  175SOPE   C3219867   2.094   3.696  10.119  0.6183 -0.0065 -0.4851
  175SOPE   H2X19868   2.146   3.631  10.046  2.0272  1.2334 -0.6337
  175SOPE   H2Y19869   2.083   3.796  10.073 -3.0081 -0.3848 -0.6876
  175SOPE   C2319870   2.742   3.521  10.112  0.1692 -0.2590  0.4539
  175SOPE   H3R19871   2.842   3.504  10.067 -0.8398  0.9818 -2.5231
  175SOPE   H3S19872   2.730   3.629  10.132  1.8942  0.7250 -3.0603
  175SOPE   C2419873   2.653   3.493   9.986  0.2124 -0.0638 -0.0045
  175SOPE   H4R19874   2.652   3.384   9.965  2.0688 -0.2043  0.4999
  175SOPE   H4S19875   2.548   3.521  10.007  0.5550  0.3451  1.2115
  175SOPE   C2519876   2.686   3.572   9.858  0.5256  0.2429  0.4551
  175SOPE   H5R19877   2.672   3.682   9.865 -0.7273  0.2250 -1.1456
  175SOPE   H5S19878   2.788   3.562   9.816  0.6914  3.4141 -0.1585
  175SOPE   C2619879   2.593   3.535   9.736 -0.1973 -0.3125 -0.2615
  175SOPE   H6R19880   2.571   3.426   9.736  1.4759 -0.7095  1.5153
  175SOPE   H6S19881   2.496   3.587   9.744 -0.4825 -0.7214 -0.9373
  175SOPE   C2719882   2.656   3.578   9.605  0.2813 -0.1058 -0.0380
  175SOPE   H7R19883   2.667   3.687   9.624 -0.8325 -0.2451  1.7421
  175SOPE   H7S19884   2.748   3.518   9.589 -0.6522 -0.7342 -4.2853
  175SOPE   C2819885   2.566   3.546   9.484 -0.4100 -0.5313  0.8948
  175SOPE   H8R19886   2.635   3.540   9.397  0.4028  3.6844  1.0443
  175SOPE   H8S19887   2.518   3.447   9.492  0.6336 -1.2075 -0.6922
  175SOPE   C2919888   2.462   3.659   9.452 -0.2323  0.2914  0.3460
  175SOPE   H9119889   2.365   3.656   9.504  0.0453 -1.1283  0.8360
  175SOPE  C21019890   2.472   3.741   9.349  0.8667  0.1098  0.1769
  175SOPE  H10119891   2.380   3.788   9.310  0.0682 -1.9004 -0.4772
  175SOPE  C21119892   2.580   3.748   9.250 -0.1635 -0.5498 -0.0472
  175SOPE  H11R19893   2.674   3.710   9.296 -0.4961 -1.4453 -0.0928
  175SOPE  H11S19894   2.602   3.850   9.212  1.2552 -0.7754  0.1263
  175SOPE  C21219895   2.575   3.670   9.116  0.0993  0.7712 -0.4031
  175SOPE  H12R19896   2.532   3.568   9.130 -0.1376  0.8736 -0.3873
  175SOPE  H12S19897   2.679   3.666   9.076 -0.0655  0.8097 -0.8384
  175SOPE  C21319898   2.492   3.738   9.005 -0.8092  0.0887 -0.0667
  175SOPE  H13R19899   2.535   3.839   8.986  0.0492 -0.0708  0.9227
  175SOPE  H13S19900   2.388   3.755   9.039 -1.1717 -0.4896 -0.8554
  175SOPE  C21419901   2.490   3.657   8.874  0.3338 -0.8233  0.0978
  175SOPE  H14R19902   2.458   3.554   8.901 -1.5092  0.1747  1.9508
  175SOPE  H14S19903   2.587   3.647   8.820  0.3613 -2.8273  0.4525
  175SOPE  C21519904   2.391   3.708   8.765  0.5205  0.3826 -0.3731
  175SOPE  H15R19905   2.420   3.815   8.762  1.0492  0.2801  0.8610
  175SOPE  H15S19906   2.283   3.698   8.788  0.1970  0.5454 -1.7029
  175SOPE  C21619907   2.422   3.636   8.631 -0.0675 -0.5707  0.5612
  175SOPE  H16R19908   2.398   3.528   8.633 -1.3925 -0.2914  0.7604
  175SOPE  H16S19909   2.531   3.649   8.617 -0.2758 -1.0184 -1.8188
  175SOPE  C21719910   2.345   3.702   8.514 -0.3978 -0.8749  0.4725
  175SOPE  H17R19911   2.239   3.708   8.547 -0.2074  1.0039  0.8286
  175SOPE  H17S19912   2.357   3.627   8.433  0.9510 -0.4753  0.2689
  175SOPE  C21819913   2.406   3.832   8.474  0.4606 -0.6154  0.1221
  175SOPE  H18R19914   2.505   3.841   8.524  0.0322  0.7995  0.7800
  175SOPE  H18S19915   2.334   3.914   8.493  0.7432  0.0981 -1.6562
  175SOPE  H18T19916   2.405   3.823   8.363 -1.8798  1.7154 -0.1427
  175SOPE   C3319917   1.945   3.652  10.140  0.0328 -0.2784  0.4996
  175SOPE   H3X19918   1.871   3.721  10.186 -1.6642 -0.8497 -1.2188
  175SOPE   H3Y19919   1.935   3.560  10.202  1.9013 -0.0076  1.2640
  175SOPE   C3419920   1.891   3.620   9.997 -0.3760  0.2194  0.0035
  175SOPE   H4X19921   1.794   3.568   9.997 -1.3798  1.9703  1.5174
  175SOPE   H4Y19922   1.965   3.541   9.973  1.9308  2.2462  0.0295
  175SOPE   C3519923   1.909   3.731   9.892 -0.7450  0.1884 -0.4457
  175SOPE   H5X19924   2.009   3.776   9.885 -0.7780  0.0357 -2.7656
  175SOPE   H5Y19925   1.831   3.806   9.917 -1.3878 -0.7374  0.4176
  175SOPE   C3619926   1.848   3.684   9.756 -0.2438 -0.1913 -0.1154
  175SOPE   H6X19927   1.740   3.660   9.769  0.1084 -1.6016  0.4399
  175SOPE   H6Y19928   1.903   3.593   9.722  0.4819  0.5801 -1.0518
  175SOPE   C3719929   1.853   3.792   9.649  0.4549  0.0504 -0.5194
  175SOPE   H7X19930   1.839   3.744   9.550  1.3010 -0.2978 -0.4823
  175SOPE   H7Y19931   1.949   3.847   9.655 -1.4211  3.4180  2.0236
  175SOPE   C3819932   1.737   3.893   9.674 -0.6573 -0.0723 -0.0062
  175SOPE   H8X19933   1.765   3.948   9.767 -1.2584  1.9456 -0.9611
  175SOPE   H8Y19934   1.642   3.842   9.701 -1.1179  1.0992  0.6844
  175SOPE   C3919935   1.717   3.984   9.548 -0.4970  0.0388 -0.1302
  175SOPE   H9X19936   1.819   3.978   9.503  1.0598 -4.3700  3.2250
  175SOPE   H9Y19937   1.688   4.083   9.588 -2.5191 -1.2549  1.8501
  175SOPE  C31019938   1.618   3.926   9.443  0.1955 -0.9334  0.0670
  175SOPE  H10X19939   1.514   3.939   9.481  0.5535  0.0364  0.7562
  175SOPE  H10Y19940   1.646   3.820   9.428 -0.4060 -0.8720 -1.6961
  175SOPE  C31119941   1.619   4.003   9.310 -0.3862  0.1090  0.1509
  175SOPE  H11X19942   1.601   4.111   9.330 -0.7569  0.7658 -3.1634
  175SOPE  H11Y19943   1.537   3.961   9.247 -0.7838  0.4471  0.4426
  175SOPE  C31219944   1.741   3.994   9.222  0.5573  0.2393 -0.9912
  175SOPE  H12X19945   1.757   3.885   9.202  1.1580  0.1774 -0.2230
  175SOPE  H12Y19946   1.829   4.024   9.282  0.0681  0.5902 -0.4450
  175SOPE  C31319947   1.723   4.063   9.090 -0.2670  0.9814  0.0685
  175SOPE  H13X19948   1.720   4.173   9.106  1.5875  0.8734  1.4645
  175SOPE  H13Y19949   1.627   4.039   9.039  0.4502  1.0321 -1.3546
  175SOPE  C31419950   1.840   4.030   8.987 -0.0324  0.0386  0.2090
  175SOPE  H14X19951   1.829   3.928   8.946 -1.7005 -0.3421  1.5019
  175SOPE  H14Y19952   1.924   4.038   9.060 -0.8904  0.9415  1.1341
  175SOPE  C31519953   1.843   4.136   8.882  0.3383  0.5224  0.0849
  175SOPE  H15X19954   1.932   4.121   8.816  0.4121  0.6362  0.1575
  175SOPE  H15Y19955   1.849   4.236   8.928  1.1551  1.0815 -1.1678
  175SOPE  C31619956   1.714   4.137   8.801 -0.2974  0.0721  0.2442
  175SOPE  H16X19957   1.628   4.165   8.866 -1.0848 -0.5915 -0.4865
  175SOPE  H16Y19958   1.714   4.034   8.760  1.0158 -0.3725  1.2698
  175SOPE  C31719959   1.731   4.230   8.675 -0.0681 -0.1266 -0.3896
  175SOPE  H17X19960   1.651   4.208   8.601  1.9340 -2.1483 -2.1052
  175SOPE  H17Y19961   1.828   4.197   8.632  1.3344  2.0339  0.9008
  175SOPE  C31819962   1.745   4.382   8.699  0.2047  0.2515  0.1447
  175SOPE  H18X19963   1.718   4.446   8.613 -2.8760 -1.0671  0.0194
  175SOPE  H18Y19964   1.852   4.396   8.727 -0.2860  0.7718  1.8713
  175SOPE  H18Z19965   1.677   4.422   8.777 -0.7413  0.1639 -0.6146
  176SOPE     N19966   0.450   4.035  10.774 -0.1376  0.8207  0.0367
  176SOPE   HN119967   0.419   4.111  10.837 -0.4791  0.5577  0.1877
  176SOPE   HN219968   0.548   4.013  10.801 -0.5140  1.1005  1.7189
  176SOPE   HN319969   0.438   4.073  10.678 -1.4807  1.3062  0.3746
  176SOPE   C1219970   0.363   3.913  10.781  0.3328  0.2219 -0.5550
  176SOPE  H12A19971   0.260   3.938  10.747  1.5395  2.4228 -2.8988
  176SOPE  H12B19972   0.361   3.876  10.886 -0.4068  1.6915 -0.0121
  176SOPE   C1119973   0.414   3.803  10.689 -0.0289 -0.5881  0.4222
  176SOPE  H11A19974   0.410   3.819  10.579  0.0455 -2.4791  0.1135
  176SOPE  H11B19975   0.343   3.718  10.696  0.2446 -0.9101 -0.5881
  176SOPE     P19976   0.568   3.629  10.800  0.2492  0.2070 -0.2619
  176SOPE   O1319977   0.437   3.555  10.815  0.3420 -0.4179 -0.0382
  176SOPE   O1419978   0.633   3.659  10.928  0.7538 -0.0870  0.7100
  176SOPE   O1219979   0.549   3.766  10.721 -0.5970  0.5695  0.4279
  176SOPE   O1119980   0.672   3.548  10.707  0.0901 -0.7556  0.1516
  176SOPE    C119981   0.792   3.614  10.663 -0.0384 -0.1485  0.2886
  176SOPE    HA19982   0.871   3.539  10.642 -1.8503 -1.5334 -2.1068
  176SOPE    HB19983   0.835   3.686  10.735  0.9032 -1.3153  0.9363
  176SOPE    C219984   0.765   3.693  10.533 -0.2203  0.4595  0.6623
  176SOPE    HS19985   0.700   3.780  10.558 -3.1698 -1.0614 -1.2525
  176SOPE   O2119986   0.711   3.600  10.440 -0.3281  0.0817  0.3943
  176SOPE   C2119987   0.612   3.648  10.369 -0.4587  1.0168 -0.8051
  176SOPE   O2219988   0.593   3.763  10.339 -0.2677  0.2306  0.1389
  176SOPE   C2219989   0.516   3.525  10.329 -0.4475 -0.4819 -0.4121
  176SOPE   H2R19990   0.490   3.478  10.426  1.0298 -0.3636  0.0656
  176SOPE   H2S19991   0.573   3.452  10.268 -1.7228 -0.5142 -1.6161
  176SOPE    C319992   0.898   3.752  10.483 -0.0507 -0.2642 -0.0723
  176SOPE    HX19993   0.966   3.665  10.491 -0.5215 -0.6214  0.0192
  176SOPE    HY19994   0.937   3.827  10.556  1.4953 -1.6515  0.5991
  176SOPE   O3119995   0.901   3.803  10.349  0.2737 -0.2980  0.2995
  176SOPE   C3119996   0.845   3.925  10.336  0.0021 -0.0899 -0.2230
  176SOPE   O3219997   0.817   3.998  10.428  0.0889  0.3577 -0.5890
  176SOPE   C3219998   0.825   3.957  10.190 -0.6562  0.7676  0.8372
  176SOPE   H2X19999   0.809   4.066  10.178 -0.8122  0.7107  0.4978
  176SOPE   H2Y20000   0.744   3.900  10.139  1.0497 -0.1756 -0.9592
  176SOPE   C2320001   0.390   3.574  10.258  0.0437 -0.5653 -0.0130
  176SOPE   H3R20002   0.330   3.647  10.316  0.6862 -0.4090  0.4638
  176SOPE   H3S20003   0.317   3.490  10.252  1.1492 -1.5054 -0.9532
  176SOPE   C2420004   0.404   3.622  10.108  0.0086 -0.2792 -0.4647
  176SOPE   H4R20005   0.309   3.671  10.076 -0.9807 -1.4060  0.6817
  176SOPE   H4S20006   0.494   3.687  10.105  0.5007 -0.6167  3.0977
  176SOPE   C2520007   0.442   3.505  10.011  0.9818  0.1745  0.5741
  176SOPE   H5R20008   0.524   3.448  10.060  2.6520  1.8529 -0.1712
  176SOPE   H5S20009   0.351   3.441  10.003  1.7025 -0.9165  0.8063
  176SOPE   C2620010   0.475   3.549   9.869  0.0329  0.1042  0.2983
  176SOPE   H6R20011   0.549   3.632   9.877 -1.4249  1.3363  1.4327
  176SOPE   H6S20012   0.528   3.463   9.821  1.9424  1.3163  0.1374
  176SOPE   C2720013   0.347   3.606   9.799  0.0521 -0.2438  0.0238
  176SOPE   H7R20014   0.258   3.541   9.797 -0.0266 -0.1577  0.5154
  176SOPE   H7S20015   0.309   3.694   9.856 -1.3692 -2.0133  1.9413
  176SOPE   C2820016   0.370   3.637   9.651  0.9428 -0.3739 -0.4714
  176SOPE   H8R20017   0.297   3.716   9.625  1.5381 -0.4919 -2.7329
  176SOPE   H8S20018   0.469   3.686   9.635  1.1513 -0.6125  0.0535
  176SOPE   C2920019   0.372   3.519   9.553 -0.5887  0.8850 -0.4821
  176SOPE   H9120020   0.421   3.430   9.593 -0.7298  0.7965 -0.5061
  176SOPE  C21020021   0.316   3.508   9.433 -0.1048  0.8112 -0.2526
  176SOPE  H10120022   0.317   3.409   9.384 -1.1232  0.8889 -0.4582
  176SOPE  C21120023   0.226   3.612   9.369  0.2745  0.1296  0.0165
  176SOPE  H11R20024   0.253   3.627   9.263  0.4313  0.8210  0.1497
  176SOPE  H11S20025   0.236   3.710   9.421  0.2363  0.6097 -0.8727
  176SOPE  C21220026   0.079   3.568   9.392  0.0605  0.8711  0.1458
  176SOPE  H12R20027   0.055   3.558   9.500 -0.0125 -1.6630 -0.0377
  176SOPE  H12S20028   0.070   3.468   9.344 -1.0523 -0.2134  2.4817
  176SOPE  C21320029  -0.020   3.668   9.329  0.2508  0.6094  0.4088
  176SOPE  H13R20030  -0.116   3.617   9.306 -0.2778  1.3385  0.9297
  176SOPE  H13S20031   0.024   3.718   9.240  0.3120  2.5062  1.4583
  176SOPE  C21420032  -0.048   3.796   9.409  0.7327 -0.0378 -0.0415
  176SOPE  H14R20033   0.052   3.840   9.429  1.3743 -1.3144 -0.3355
  176SOPE  H14S20034  -0.090   3.776   9.510 -0.3356 -1.4066 -0.7392
  176SOPE  C21520035  -0.137   3.888   9.327 -1.0823  0.0703 -0.2523
  176SOPE  H15R20036  -0.222   3.832   9.283  0.6633 -2.3546 -0.7331
  176SOPE  H15S20037  -0.076   3.914   9.238  2.1271 -0.0967  1.7247
  176SOPE  C21620038  -0.191   4.006   9.400  0.3489 -0.5579  0.0536
  176SOPE  H16R20039  -0.117   4.064   9.459 -0.7581 -1.4872  2.4876
  176SOPE  H16S20040  -0.271   3.980   9.472  1.7138  1.1074  2.2881
  176SOPE  C21720041  -0.248   4.104   9.302  0.5985  0.5050  0.5503
  176SOPE  H17R20042  -0.163   4.145   9.244  1.0917 -0.1104  0.8267
  176SOPE  H17S20043  -0.300   4.186   9.355 -1.1506 -0.3316  0.2010
  176SOPE  C21820044  -0.342   4.043   9.198  0.2502  0.2717  0.2887
  176SOPE  H18R20045  -0.413   3.976   9.252  1.0605  0.0357  1.1055
  176SOPE  H18S20046  -0.287   3.986   9.120 -2.2145  1.0572 -2.1498
  176SOPE  H18T20047  -0.391   4.119   9.135  0.1672 -1.8117 -2.3263
  176SOPE   C3320048   0.952   3.938  10.106  1.0237  0.5415 -0.5771
  176SOPE   H3X20049   0.964   3.830  10.083  0.2440  0.5168 -0.9048
  176SOPE   H3Y20050   1.041   3.957  10.169  0.4872 -0.7588  0.6310
  176SOPE   C3420051   0.952   3.999   9.959  0.1548  0.0400  0.2292
  176SOPE   H4X20052   1.042   3.956   9.910  1.8391  1.6095  1.7972
  176SOPE   H4Y20053   0.969   4.109   9.954 -0.2968  0.0979 -0.0545
  176SOPE   C3520054   0.842   3.951   9.861 -0.2046 -0.2743  0.1398
  176SOPE   H5X20055   0.752   3.989   9.914 -0.4995 -0.9568  0.1492
  176SOPE   H5Y20056   0.833   3.840   9.865 -0.1776 -0.2943  4.0700
  176SOPE   C3620057   0.864   3.990   9.715 -0.0162  0.6916  0.1940
  176SOPE   H6X20058   0.962   3.952   9.680  0.4086  1.4174  0.5621
  176SOPE   H6Y20059   0.868   4.101   9.713 -2.2069  0.8105 -1.5227
  176SOPE   C3720060   0.755   3.938   9.623 -0.9005 -0.5783 -0.4589
  176SOPE   H7X20061   0.649   3.963   9.646 -0.9278 -0.4329 -0.7358
  176SOPE   H7Y20062   0.754   3.827   9.626 -2.0047 -0.5556  0.6256
  176SOPE   C3820063   0.790   3.984   9.482  0.1501 -0.4077 -0.4264
  176SOPE   H8X20064   0.899   3.975   9.460  0.4095  2.4307 -0.7115
  176SOPE   H8Y20065   0.777   4.093   9.463  1.2662  0.1110  1.5177
  176SOPE   C3920066   0.713   3.901   9.374 -0.6333 -0.1847  0.5665
  176SOPE   H9X20067   0.608   3.881   9.405 -0.7967 -2.0023 -0.9982
  176SOPE   H9Y20068   0.757   3.800   9.367  1.0171  0.6280 -2.8098
  176SOPE  C31020069   0.712   3.979   9.234  0.2460  0.2308 -0.5876
  176SOPE  H10X20070   0.813   3.983   9.186 -0.2060  0.6304 -1.5345
  176SOPE  H10Y20071   0.681   4.085   9.243  0.6105  0.3146 -0.2936
  176SOPE  C31120072   0.617   3.912   9.138 -0.2935 -0.1197  0.3165
  176SOPE  H11X20073   0.522   3.890   9.190  0.4824 -0.9524  1.4428
  176SOPE  H11Y20074   0.652   3.808   9.117 -0.4585 -0.2247  0.5581
  176SOPE  C31220075   0.603   3.983   9.006  0.0315 -0.0070 -0.0334
  176SOPE  H12X20076   0.699   4.005   8.954 -0.2030  0.2108 -0.3761
  176SOPE  H12Y20077   0.568   4.086   9.030 -1.0514 -0.4913  0.4896
  176SOPE  C31320078   0.507   3.916   8.908 -0.2794  0.4266 -0.2998
  176SOPE  H13X20079   0.417   3.903   8.972  0.8476  1.0431  1.5076
  176SOPE  H13Y20080   0.538   3.824   8.854  0.0931  0.1339  0.3969
  176SOPE  C31420081   0.456   4.020   8.798 -0.4719 -0.1915  1.0524
  176SOPE  H14X20082   0.541   4.033   8.728 -1.4102 -2.0140 -0.5274
  176SOPE  H14Y20083   0.422   4.113   8.848 -0.9241  0.6550 -0.7566
  176SOPE  C31520084   0.329   3.970   8.725 -0.3996  0.0716  0.5534
  176SOPE  H15X20085   0.322   4.045   8.643 -0.2113  2.4449  2.6032
  176SOPE  H15Y20086   0.231   3.956   8.775  0.1951 -0.2555  1.6656
  176SOPE  C31620087   0.355   3.838   8.659  0.4431  0.6250  0.3876
  176SOPE  H16X20088   0.345   3.756   8.733 -2.2997 -0.0646 -0.6210
  176SOPE  H16Y20089   0.459   3.835   8.620  0.2398  3.9007 -0.7424
  176SOPE  C31720090   0.264   3.805   8.544 -1.1399  0.7424  0.2002
  176SOPE  H17X20091   0.259   3.886   8.468 -0.9311 -0.3164 -0.9813
  176SOPE  H17Y20092   0.164   3.800   8.591 -0.8162  0.2308  0.8519
  176SOPE  C31820093   0.298   3.685   8.462 -0.3753 -0.2378  0.3669
  176SOPE  H18X20094   0.287   3.585   8.507  0.9850 -0.2267  0.7460
  176SOPE  H18Y20095   0.398   3.688   8.414 -0.5606 -3.0652 -0.3719
  176SOPE  H18Z20096   0.233   3.679   8.372  1.8310 -1.1958 -1.2481
  177SOPE     N20097   0.703   1.365  10.932 -0.0104  0.3284 -0.3462
  177SOPE   HN120098   0.766   1.416  10.866  2.3809  0.1436  1.6541
  177SOPE   HN220099   0.659   1.428  11.002  0.9786  0.9959 -0.3057
  177SOPE   HN320100   0.757   1.290  10.979  1.7599  1.8742  0.2243
  177SOPE   C1220101   0.596   1.303  10.849 -0.6107  0.2162 -0.7433
  177SOPE  H12A20102   0.623   1.307  10.741 -0.3565 -0.1248 -0.6922
  177SOPE  H12B20103   0.499   1.359  10.851 -1.2972 -0.9486 -0.8369
  177SOPE   C1120104   0.575   1.160  10.896  0.3994 -0.0742 -0.6178
  177SOPE  H11A20105   0.484   1.125  10.843 -0.6217  1.7073 -0.1258
  177SOPE  H11B20106   0.551   1.158  11.005 -0.6242 -0.1284 -0.8306
  177SOPE     P20107   0.696   0.936  10.865  0.3419 -0.3643 -0.1748
  177SOPE   O1320108   0.742   0.898  11.005  0.3306 -0.3368  0.0999
  177SOPE   O1420109   0.785   0.897  10.755 -0.7743  0.3309  0.4332
  177SOPE   O1220110   0.690   1.090  10.860 -0.1143 -0.2015 -0.0024
  177SOPE   O1120111   0.552   0.878  10.834 -0.1337 -0.3636  0.1450
  177SOPE    C120112   0.517   0.746  10.790 -0.0629  0.1941  0.2097
  177SOPE    HA20113   0.438   0.697  10.851 -1.7767 -0.5554 -2.4267
  177SOPE    HB20114   0.606   0.683  10.772  0.8496  1.4764  0.1004
  177SOPE    C220115   0.456   0.743  10.648  0.4125 -0.2968  0.1403
  177SOPE    HS20116   0.527   0.775  10.569  1.6435  1.6598  1.9472
  177SOPE   O2120117   0.342   0.833  10.652  0.1832 -0.3115 -0.3323
  177SOPE   C2120118   0.376   0.951  10.609  0.7928  0.6888  0.3762
  177SOPE   O2220119   0.484   0.981  10.561  0.0169 -0.0238  0.3938
  177SOPE   C2220120   0.255   1.046  10.636  0.3842 -0.2103 -0.0075
  177SOPE   H2R20121   0.254   1.075  10.743 -0.3628 -1.8844  0.4767
  177SOPE   H2S20122   0.161   0.992  10.616  1.3715 -1.6092 -1.0924
  177SOPE    C320123   0.412   0.602  10.608  0.5650 -0.2571  0.7870
  177SOPE    HX20124   0.341   0.558  10.682  0.9708 -1.1180  0.6825
  177SOPE    HY20125   0.505   0.540  10.612  0.0668 -1.2923 -1.8247
  177SOPE   O3120126   0.351   0.598  10.474 -0.4026  0.4575 -0.0496
  177SOPE   C3120127   0.342   0.478  10.429 -0.1144 -0.1156  0.7462
  177SOPE   O3220128   0.397   0.378  10.473  0.2456 -0.0320 -0.0235
  177SOPE   C3220129   0.262   0.481  10.301  0.0500 -0.3661  0.2004
  177SOPE   H2X20130   0.270   0.574  10.240  1.6130  0.4827  1.6388
  177SOPE   H2Y20131   0.155   0.476  10.327 -0.6687 -1.9635 -2.5452
  177SOPE   C2320132   0.263   1.174  10.548 -0.2883 -0.8947 -0.2501
  177SOPE   H3R20133   0.367   1.213  10.540 -0.1850 -0.9872  0.6017
  177SOPE   H3S20134   0.215   1.259  10.602  4.8475  2.2659  0.0122
  177SOPE   C2420135   0.192   1.164  10.414  0.6229  0.0213  0.0579
  177SOPE   H4R20136   0.084   1.146  10.433 -0.4538  2.9674 -2.3735
  177SOPE   H4S20137   0.184   1.261  10.360 -1.6246 -1.1006 -1.7892
  177SOPE   C2520138   0.240   1.057  10.319  0.4918 -0.1478 -0.7664
  177SOPE   H5R20139   0.351   1.070  10.321  0.7266 -2.0207  0.9420
  177SOPE   H5S20140   0.221   0.952  10.347  0.4692  0.3497  1.2039
  177SOPE   C2620141   0.182   1.070  10.179 -0.4464 -0.0562  0.2003
  177SOPE   H6R20142   0.075   1.040  10.177 -0.2130 -1.2544  2.2351
  177SOPE   H6S20143   0.192   1.175  10.144  0.8493 -0.6172 -1.2643
  177SOPE   C2720144   0.251   0.990  10.075 -0.2020 -0.2859  1.0540
  177SOPE   H7R20145   0.358   1.016  10.058 -0.8083  0.7288 -1.6705
  177SOPE   H7S20146   0.238   0.881  10.092 -1.1457 -0.2710  0.4981
  177SOPE   C2820147   0.180   1.019   9.938  1.0748  0.0741  0.4883
  177SOPE   H8R20148   0.072   1.005   9.957  1.0982 -1.4866 -0.3521
  177SOPE   H8S20149   0.193   1.127   9.918 -0.1902  0.2096  0.3361
  177SOPE   C2920150   0.218   0.932   9.820 -0.3919  0.0498  0.0545
  177SOPE   H9120151   0.197   0.825   9.830  1.0914 -0.6187 -2.7819
  177SOPE  C21020152   0.290   0.972   9.711  0.9715  0.8443 -0.7144
  177SOPE  H10120153   0.293   0.890   9.638  0.2549  0.1764 -0.0145
  177SOPE  C21120154   0.344   1.104   9.675 -0.3043 -0.3151  0.3777
  177SOPE  H11R20155   0.337   1.167   9.767 -0.7153  1.1952 -0.6477
  177SOPE  H11S20156   0.272   1.149   9.603  1.1829 -1.1501 -1.7376
  177SOPE  C21220157   0.488   1.115   9.620  0.1863 -0.6656  0.5649
  177SOPE  H12R20158   0.496   1.044   9.535  2.2258 -0.7105  0.7448
  177SOPE  H12S20159   0.559   1.097   9.703 -1.2492 -1.6471  1.6150
  177SOPE  C21320160   0.525   1.259   9.570 -0.3095  0.3063 -0.2847
  177SOPE  H13R20161   0.504   1.326   9.657 -1.7348  0.3236 -0.6129
  177SOPE  H13S20162   0.452   1.296   9.495 -0.1557  2.0804  0.3841
  177SOPE  C21420163   0.659   1.272   9.502 -0.1754 -0.1188  0.1119
  177SOPE  H14R20164   0.743   1.258   9.572  0.3621  2.9136  0.2249
  177SOPE  H14S20165   0.669   1.379   9.474 -1.1182 -0.2415 -0.7792
  177SOPE  C21520166   0.674   1.182   9.376  0.4224 -0.3596  0.5463
  177SOPE  H15R20167   0.680   1.079   9.417 -1.8081 -1.0455 -0.6757
  177SOPE  H15S20168   0.772   1.202   9.327 -0.4008  1.4480 -0.4894
  177SOPE  C21620169   0.552   1.191   9.276 -0.3056 -0.6050  0.5428
  177SOPE  H16R20170   0.537   1.297   9.246  0.4219 -0.0814  1.9602
  177SOPE  H16S20171   0.458   1.165   9.330 -2.3069  0.8263 -2.0064
  177SOPE  C21720172   0.576   1.116   9.141 -0.0384  0.2571  0.0388
  177SOPE  H17R20173   0.583   1.010   9.174  0.6683 -0.1492 -1.3062
  177SOPE  H17S20174   0.670   1.135   9.086  0.8173 -0.1848  1.3096
  177SOPE  C21820175   0.454   1.118   9.040  0.5964 -0.3683  0.2292
  177SOPE  H18R20176   0.371   1.069   9.096  0.4370  0.7995  1.0388
  177SOPE  H18S20177   0.459   1.062   8.944 -0.9900  0.5991 -0.4474
  177SOPE  H18T20178   0.408   1.217   9.022 -0.3374 -1.1623 -2.0420
  177SOPE   C3320179   0.300   0.364  10.215  0.2111 -0.5188  0.7482
  177SOPE   H3X20180   0.246   0.271  10.244 -1.1330  0.4043  1.2909
  177SOPE   H3Y20181   0.410   0.347  10.221  0.2357  0.0972  2.7111
  177SOPE   C3420182   0.273   0.385  10.058  0.4957  0.0021 -0.8657
  177SOPE   H4X20183   0.318   0.302  10.001  0.2838  0.1759 -1.2850
  177SOPE   H4Y20184   0.319   0.484  10.034  0.4442  0.1453 -0.3957
  177SOPE   C3520185   0.122   0.392  10.030 -0.5346 -0.2466 -0.2516
  177SOPE   H5X20186   0.079   0.482  10.080 -1.0846 -0.6590  0.0333
  177SOPE   H5Y20187   0.078   0.295  10.062 -0.2050 -1.0203 -2.0248
  177SOPE   C3620188   0.101   0.408   9.881  0.2022 -0.8134 -0.0741
  177SOPE   H6X20189   0.010   0.354   9.847 -1.0312 -0.0858  1.8561
  177SOPE   H6Y20190   0.186   0.353   9.836 -0.7717 -1.1830 -1.5275
  177SOPE   C3720191   0.093   0.554   9.825 -0.2007  0.2199 -0.6387
  177SOPE   H7X20192   0.194   0.595   9.847  1.1575 -2.3373 -1.6659
  177SOPE   H7Y20193   0.009   0.609   9.871 -0.0006 -0.2479  0.3091
  177SOPE   C3820194   0.096   0.544   9.677 -0.1274 -0.5126  0.7559
  177SOPE   H8X20195   0.016   0.472   9.652 -1.3845  0.6424  1.3606
  177SOPE   H8Y20196   0.192   0.508   9.634 -0.1425  0.2985  0.0146
  177SOPE   C3920197   0.051   0.677   9.617 -0.0707 -0.3722 -0.4794
  177SOPE   H9X20198   0.129   0.754   9.632  1.5480 -1.7063 -1.5995
  177SOPE   H9Y20199  -0.038   0.714   9.672  0.0775 -0.4783 -0.1632
  177SOPE  C31020200   0.033   0.674   9.469 -0.2000 -0.3773  0.3678
  177SOPE  H10X20201  -0.066   0.628   9.446  0.4842 -2.1590  0.8251
  177SOPE  H10Y20202   0.109   0.607   9.421 -0.9992  0.4854 -2.2787
  177SOPE  C31120203   0.039   0.811   9.405  0.5690  0.1504 -0.0708
  177SOPE  H11X20204   0.135   0.855   9.437  1.0890 -1.4742  0.7044
  177SOPE  H11Y20205  -0.042   0.877   9.444  1.2911  2.8022 -2.6620
  177SOPE  C31220206   0.048   0.818   9.252  0.0855 -0.2169 -0.0246
  177SOPE  H12X20207   0.138   0.760   9.221  0.8988  2.3568 -2.9584
  177SOPE  H12Y20208   0.045   0.925   9.221 -1.7169 -0.4037 -0.6158
  177SOPE  C31320209  -0.074   0.743   9.179 -0.0759 -0.1992 -0.9166
  177SOPE  H13X20210  -0.161   0.771   9.242  1.4243  0.9553  0.7336
  177SOPE  H13Y20211  -0.065   0.633   9.192  0.8048 -0.1166 -0.7781
  177SOPE  C31420212  -0.102   0.795   9.039 -0.7660  0.0026 -0.7252
  177SOPE  H14X20213  -0.005   0.794   8.986 -1.0139  0.1685 -1.1871
  177SOPE  H14Y20214  -0.128   0.903   9.052 -0.3737  0.1372 -1.0470
  177SOPE  C31520215  -0.208   0.722   8.963  0.0884 -0.1432  0.4859
  177SOPE  H15X20216  -0.306   0.731   9.017  1.1944  1.8922  2.3194
  177SOPE  H15Y20217  -0.179   0.614   8.965 -0.6067 -0.3494 -0.1581
  177SOPE  C31620218  -0.219   0.765   8.813 -0.2308  0.6089  0.3396
  177SOPE  H16X20219  -0.115   0.782   8.778  0.4509  0.8436  2.3093
  177SOPE  H16Y20220  -0.281   0.856   8.806 -1.5090 -0.3408 -1.3440
  177SOPE  C31720221  -0.297   0.674   8.717 -0.9921  0.6410  0.0715
  177SOPE  H17X20222  -0.243   0.578   8.706  0.0419  1.3456 -1.3760
  177SOPE  H17Y20223  -0.286   0.727   8.620 -2.8609  1.0090  0.0209
  177SOPE  C31820224  -0.443   0.648   8.758 -0.4727 -0.4940  0.3182
  177SOPE  H18X20225  -0.503   0.596   8.681  0.1628  0.1745 -0.6483
  177SOPE  H18Y20226  -0.499   0.744   8.770  0.2705 -0.0785  0.5110
  177SOPE  H18Z20227  -0.446   0.592   8.854  4.3762  1.7400  2.1250
  178SOPE     N20228   3.466   6.725  10.934  0.2426  1.1781 -0.1832
  178SOPE   HN120229   3.507   6.799  10.995  0.2826  0.8101  0.2422
  178SOPE   HN220230   3.397   6.767  10.869  0.3732  1.1444 -0.3444
  178SOPE   HN320231   3.418   6.655  10.993  1.0628  0.7314 -0.0206
  178SOPE   C1220232   3.585   6.672  10.859  0.0392 -0.3445 -0.4070
  178SOPE  H12A20233   3.673   6.679  10.927 -1.8669  0.4225  2.0965
  178SOPE  H12B20234   3.603   6.744  10.775 -0.1590 -1.3978 -1.3718
  178SOPE   C1120235   3.571   6.527  10.804 -0.4989 -0.0291 -0.3594
  178SOPE  H11A20236   3.667   6.493  10.761 -0.9162  1.2627 -2.4409
  178SOPE  H11B20237   3.492   6.524  10.726 -2.3839 -0.7165  1.4787
  178SOPE     P20238   3.431   6.328  10.927 -0.4747 -0.4655 -0.2952
  178SOPE   O1320239   3.306   6.402  10.933  0.5299  0.3777  0.0331
  178SOPE   O1420240   3.465   6.231  11.035 -0.1238  0.3672 -0.0487
  178SOPE   O1220241   3.542   6.441  10.922 -0.2335  0.4702 -0.1533
  178SOPE   O1120242   3.446   6.263  10.783 -0.0449 -0.2326  0.0159
  178SOPE    C120243   3.576   6.201  10.758  0.1047  0.9209  0.4237
  178SOPE    HA20244   3.639   6.171  10.845 -1.4003 -1.5228  0.7928
  178SOPE    HB20245   3.635   6.262  10.687 -1.1661  0.6300 -0.9377
  178SOPE    C220246   3.572   6.052  10.688 -0.1393  0.1598  0.2190
  178SOPE    HS20247   3.674   6.049  10.645 -0.1294 -0.3952  0.2717
  178SOPE   O2120248   3.482   6.048  10.578  0.2661  0.0917  0.3158
  178SOPE   C2120249   3.514   6.110  10.460  0.8422 -0.7312  0.1139
  178SOPE   O2220250   3.628   6.152  10.431  0.9665 -0.1871  0.1838
  178SOPE   C2220251   3.400   6.094  10.358 -0.1099  0.6146 -0.5689
  178SOPE   H2R20252   3.342   6.189  10.347  1.2460  1.5453  0.0704
  178SOPE   H2S20253   3.324   6.030  10.408 -0.0404  0.1663 -1.0321
  178SOPE    C320254   3.559   5.942  10.793 -0.1268 -0.1749  0.3787
  178SOPE    HX20255   3.465   5.957  10.850 -0.5595  0.5490 -0.4995
  178SOPE    HY20256   3.639   5.953  10.870 -1.2479  1.8840  1.3395
  178SOPE   O3120257   3.558   5.811  10.736  0.1616  0.5738  0.6425
  178SOPE   C3120258   3.672   5.762  10.696  0.2764 -0.1189 -0.0676
  178SOPE   O3220259   3.779   5.826  10.703 -0.1851 -0.0488 -0.0808
  178SOPE   C3220260   3.659   5.610  10.656  0.3291  0.0851  0.3976
  178SOPE   H2X20261   3.570   5.566  10.706 -1.8052  1.2803 -2.1095
  178SOPE   H2Y20262   3.742   5.551  10.700 -0.2693  0.5975  2.3062
  178SOPE   C2320263   3.441   6.046  10.216 -1.4581  0.8263  0.0486
  178SOPE   H3R20264   3.520   5.969  10.223 -1.0992  1.0760 -1.0840
  178SOPE   H3S20265   3.478   6.131  10.155  4.4227 -1.4344 -0.1374
  178SOPE   C2420266   3.323   5.975  10.133  0.7478 -0.6565  0.1111
  178SOPE   H4R20267   3.377   5.926  10.049  1.3405  0.6079 -0.2635
  178SOPE   H4S20268   3.283   5.903  10.208 -1.2945  0.2543 -0.0382
  178SOPE   C2520269   3.211   6.070  10.086  0.6025  0.0394  0.4998
  178SOPE   H5R20270   3.152   6.118  10.167 -1.6262  0.3726 -1.2239
  178SOPE   H5S20271   3.240   6.153  10.018 -0.0582  0.4405  0.7045
  178SOPE   C2620272   3.093   5.992  10.013  0.0628 -0.3391 -0.0120
  178SOPE   H6R20273   3.078   5.899  10.072  0.1328  0.7726  1.8570
  178SOPE   H6S20274   2.999   6.050  10.022 -1.4981 -2.9721  2.0960
  178SOPE   C2720275   3.123   5.958   9.866  0.3927  0.1199 -0.3005
  178SOPE   H7R20276   3.149   6.057   9.821  1.0952 -0.3017 -0.8481
  178SOPE   H7S20277   3.224   5.911   9.866  0.8582  1.0624 -1.6407
  178SOPE   C2820278   3.016   5.880   9.779 -0.5384  0.3314  0.1024
  178SOPE   H8R20279   3.073   5.881   9.684  2.3446 -0.6378  1.6923
  178SOPE   H8S20280   2.982   5.777   9.802  0.6966  0.0813  0.8851
  178SOPE   C2920281   2.901   5.966   9.747 -0.8034  0.4091 -0.5838
  178SOPE   H9120282   2.871   6.039   9.823 -3.0198 -2.0157  1.0148
  178SOPE  C21020283   2.821   5.939   9.645 -0.0604  0.5675  0.5355
  178SOPE  H10120284   2.759   6.021   9.606 -0.6821 -0.0035  0.3097
  178SOPE  C21120285   2.839   5.830   9.545  0.7117 -0.4131  0.1783
  178SOPE  H11R20286   2.736   5.801   9.514  0.4405  1.3793 -0.7063
  178SOPE  H11S20287   2.878   5.733   9.583 -1.0823 -0.5777  1.7906
  178SOPE  C21220288   2.907   5.872   9.414 -0.3375 -0.2578 -0.1290
  178SOPE  H12R20289   2.901   5.779   9.355 -1.6520  1.7041 -3.3743
  178SOPE  H12S20290   3.010   5.906   9.439 -0.2509  0.8933 -1.8679
  178SOPE  C21320291   2.836   5.996   9.348 -0.4885 -0.3637  0.1385
  178SOPE  H13R20292   2.848   6.077   9.423  1.3519 -1.6700  1.3591
  178SOPE  H13S20293   2.727   5.978   9.333 -0.0894 -0.8100 -2.6916
  178SOPE  C21420294   2.895   6.031   9.204  0.1319  0.0553  0.8951
  178SOPE  H14R20295   2.833   6.113   9.161 -1.8499 -2.2990 -1.0525
  178SOPE  H14S20296   2.883   5.938   9.144 -0.5433 -0.1939  1.4001
  178SOPE  C21520297   3.048   6.053   9.202  0.0005 -0.8166  0.1393
  178SOPE  H15R20298   3.101   5.964   9.242 -1.4445 -0.1527  3.8726
  178SOPE  H15S20299   3.059   6.140   9.270 -1.6587  0.0214 -0.6034
  178SOPE  C21620300   3.085   6.092   9.059 -0.1769  0.2565 -0.0756
  178SOPE  H16R20301   3.037   6.187   9.026  2.5152  2.0764  0.9053
  178SOPE  H16S20302   3.065   6.013   8.983 -0.0000  0.0617  0.0825
  178SOPE  C21720303   3.231   6.114   9.048 -0.5523 -0.2758  0.3013
  178SOPE  H17R20304   3.256   6.090   8.943 -3.6138 -1.1177 -0.3500
  178SOPE  H17S20305   3.288   6.042   9.111  0.0488  0.0584  0.1446
  178SOPE  C21820306   3.288   6.253   9.076 -1.0634  0.3857 -0.4182
  178SOPE  H18R20307   3.392   6.259   9.036 -1.1663 -0.3240 -0.8262
  178SOPE  H18S20308   3.301   6.284   9.181  1.7606  3.7286 -1.5766
  178SOPE  H18T20309   3.237   6.333   9.018  0.8835  1.5025 -0.6940
  178SOPE   C3320310   3.653   5.589  10.498 -0.0012 -0.6716 -0.1693
  178SOPE   H3X20311   3.707   5.498  10.465  2.1371  0.0701  1.0674
  178SOPE   H3Y20312   3.709   5.671  10.448 -0.0117 -1.3302 -1.3063
  178SOPE   C3420313   3.516   5.591  10.443 -0.1987 -0.4019 -0.0849
  178SOPE   H4X20314   3.449   5.676  10.469  0.0532 -0.3588  0.4336
  178SOPE   H4Y20315   3.466   5.497  10.474 -1.1606  0.3652  0.7580
  178SOPE   C3520316   3.528   5.600  10.286  0.3270 -0.3627 -0.3505
  178SOPE   H5X20317   3.601   5.523  10.253  1.9886  1.4093 -0.9200
  178SOPE   H5Y20318   3.572   5.697  10.255 -1.1288  0.6545  0.6576
  178SOPE   C3620319   3.391   5.570  10.220  0.2714 -0.0580 -0.9657
  178SOPE   H6X20320   3.304   5.626  10.261  0.3316 -1.7814  1.8171
  178SOPE   H6Y20321   3.380   5.460  10.233  1.2365 -0.2879 -1.9805
  178SOPE   C3720322   3.387   5.569  10.062  0.3131  0.4117  0.5309
  178SOPE   H7X20323   3.465   5.492  10.043 -0.5740 -0.8391  1.7526
  178SOPE   H7Y20324   3.415   5.667  10.018  0.7859  0.5763  1.1850
  178SOPE   C3820325   3.262   5.510  10.000  0.0274  0.1136  0.5290
  178SOPE   H8X20326   3.185   5.590  10.006  0.9909  0.9476  3.0132
  178SOPE   H8Y20327   3.222   5.419  10.050  0.7994 -0.6799 -0.2771
  178SOPE   C3920328   3.285   5.463   9.853  1.2196 -0.4192  0.2949
  178SOPE   H9X20329   3.356   5.379   9.869  0.0622 -1.2766  1.1221
  178SOPE   H9Y20330   3.336   5.543   9.796  0.2163  0.4373  0.5534
  178SOPE  C31020331   3.158   5.416   9.778  0.2016  0.1126  0.0275
  178SOPE  H10X20332   3.113   5.338   9.844 -2.1908  0.2954 -1.2869
  178SOPE  H10Y20333   3.190   5.381   9.678 -1.2259 -0.4717 -0.2479
  178SOPE  C31120334   3.053   5.521   9.757 -0.4597 -0.5889  0.4670
  178SOPE  H11X20335   3.098   5.607   9.702 -0.3292 -0.0685  1.3508
  178SOPE  H11Y20336   3.018   5.557   9.856 -1.4724  1.2353 -0.5081
  178SOPE  C31220337   2.924   5.483   9.677  0.2788  0.2599 -0.0682
  178SOPE  H12X20338   2.848   5.563   9.690 -2.2271 -2.1366  1.0392
  178SOPE  H12Y20339   2.883   5.383   9.702 -0.5753  0.6401  0.0849
  178SOPE  C31320340   2.958   5.463   9.525  0.3907 -0.4042  0.1971
  178SOPE  H13X20341   3.047   5.396   9.524  0.0268 -0.9017 -1.6426
  178SOPE  H13Y20342   2.990   5.562   9.488  0.0417 -0.5792 -0.5885
  178SOPE  C31420343   2.832   5.418   9.449  0.0716  0.4745  0.0435
  178SOPE  H14X20344   2.740   5.476   9.473 -1.0351 -1.1606 -0.0943
  178SOPE  H14Y20345   2.801   5.319   9.488 -2.3819  1.2972  0.3757
  178SOPE  C31520346   2.852   5.417   9.299 -0.5144 -0.7360 -0.2527
  178SOPE  H15X20347   2.956   5.395   9.267 -0.3314 -0.8031  0.3695
  178SOPE  H15Y20348   2.829   5.522   9.270 -0.9823  0.0068  2.5185
  178SOPE  C31620349   2.761   5.317   9.223 -0.2331 -0.1073  0.7936
  178SOPE  H16X20350   2.659   5.340   9.260 -0.0594 -0.9524  1.8746
  178SOPE  H16Y20351   2.784   5.210   9.244 -2.9548 -1.0678 -0.6078
  178SOPE  C31720352   2.755   5.329   9.066  0.5718  0.9901  0.5888
  178SOPE  H17X20353   2.676   5.257   9.036  1.4004  0.3577 -0.1344
  178SOPE  H17Y20354   2.848   5.282   9.026  1.4432  0.4127  3.1001
  178SOPE  C31820355   2.724   5.460   9.009  0.1494 -0.2894 -0.1939
  178SOPE  H18X20356   2.698   5.447   8.902  0.9606 -2.2608 -0.1953
  178SOPE  H18Y20357   2.809   5.530   9.017 -0.1658  0.6382 -3.5226
  178SOPE  H18Z20358   2.634   5.504   9.057 -1.0371  1.6451 -3.8383
  179SOPE     N20359   6.293   3.615   6.282 -0.2099 -0.3161  0.2924
  179SOPE   HN120360   6.395   3.615   6.301 -0.1268 -2.7241  0.2148
  179SOPE   HN220361   6.276   3.581   6.185  1.0076 -1.3225  0.4020
  179SOPE   HN320362   6.254   3.711   6.280 -1.5540 -0.8431  0.4337
  179SOPE   C1220363   6.226   3.527   6.384 -0.0106 -0.1383  0.2673
  179SOPE  H12A20364   6.220   3.586   6.478  2.3036 -0.2009  0.5198
  179SOPE  H12B20365   6.274   3.431   6.412  1.5306  1.3079  2.9993
  179SOPE   C1120366   6.074   3.511   6.342  0.0006  0.0625  0.4547
  179SOPE  H11A20367   6.036   3.615   6.332  1.0945  0.5325  1.0656
  179SOPE  H11B20368   6.013   3.466   6.424  0.3310  0.9015  1.1773
  179SOPE     P20369   6.060   3.304   6.200  0.3915  0.0763  0.1594
  179SOPE   O1320370   6.185   3.246   6.248 -0.3706  0.0619  0.0118
  179SOPE   O1420371   6.007   3.277   6.063  0.9169  0.4858 -0.2780
  179SOPE   O1220372   6.069   3.459   6.214  0.5160 -0.2557 -0.3095
  179SOPE   O1120373   5.942   3.277   6.296 -0.0774  0.0049  0.1277
  179SOPE    C120374   5.903   3.152   6.352 -0.5927 -0.7034  0.4356
  179SOPE    HA20375   5.926   3.062   6.291 -0.3811 -0.4184  0.0949
  179SOPE    HB20376   5.792   3.160   6.353 -0.5075  0.5915  0.9871
  179SOPE    C220377   5.945   3.149   6.501 -0.0545 -0.3886 -0.8015
  179SOPE    HS20378   5.935   3.254   6.535 -1.7480  0.0503 -2.4752
  179SOPE   O2120379   6.080   3.106   6.508  0.3875  0.0603 -0.2685
  179SOPE   C2120380   6.152   3.171   6.599 -0.7761 -0.0076 -0.2163
  179SOPE   O2220381   6.126   3.279   6.656 -0.5310  0.0360 -0.0993
  179SOPE   C2220382   6.285   3.087   6.597 -0.3373  0.4734  0.5557
  179SOPE   H2R20383   6.325   3.078   6.494 -0.8003  1.7565  0.2428
  179SOPE   H2S20384   6.260   2.985   6.635  1.9539 -1.5438 -2.7987
  179SOPE    C320385   5.856   3.052   6.585  0.0647  0.1488 -0.2494
  179SOPE    HX20386   5.871   2.943   6.570  2.0747 -0.0302  2.4235
  179SOPE    HY20387   5.754   3.072   6.544 -0.3589 -0.0124  0.7023
  179SOPE   O3120388   5.844   3.088   6.726 -0.2863  0.1237 -0.6952
  179SOPE   C3120389   5.922   3.021   6.815  0.3569  0.0593 -0.5825
  179SOPE   O3220390   5.999   2.933   6.779 -0.5096 -0.0767 -0.8443
  179SOPE   C3220391   5.901   3.090   6.949 -0.1229  0.0572  0.2176
  179SOPE   H2X20392   5.794   3.074   6.975  0.8740 -1.0348  4.3345
  179SOPE   H2Y20393   5.898   3.199   6.927 -4.1745  0.4069  1.5529
  179SOPE   C2320394   6.402   3.154   6.679  0.0155 -0.9471 -0.8900
  179SOPE   H3R20395   6.489   3.085   6.676  0.1750 -0.7764 -0.3105
  179SOPE   H3S20396   6.380   3.161   6.787 -1.7573 -2.0588 -1.1262
  179SOPE   C2420397   6.442   3.290   6.622  0.1881  0.0408  0.4368
  179SOPE   H4R20398   6.476   3.274   6.517  0.4310 -0.8571  0.6485
  179SOPE   H4S20399   6.353   3.356   6.634 -1.5670 -1.3874 -3.2650
  179SOPE   C2520400   6.564   3.360   6.685  0.2822 -0.2698 -0.0031
  179SOPE   H5R20401   6.654   3.311   6.644  1.2804 -0.4105  2.2396
  179SOPE   H5S20402   6.575   3.461   6.640 -2.0180  0.0169 -0.0499
  179SOPE   C2620403   6.574   3.348   6.843  0.5357  0.2572  0.3751
  179SOPE   H6R20404   6.474   3.380   6.881 -0.5743 -0.6489 -1.6474
  179SOPE   H6S20405   6.588   3.244   6.879  0.9097 -0.0300 -0.5737
  179SOPE   C2720406   6.680   3.434   6.903  0.3731 -0.0305 -0.1917
  179SOPE   H7R20407   6.765   3.437   6.831 -1.2198 -0.0402 -2.1411
  179SOPE   H7S20408   6.650   3.541   6.904 -1.3687 -0.4819 -1.2000
  179SOPE   C2820409   6.722   3.386   7.048 -0.4100 -0.1492 -0.1326
  179SOPE   H8R20410   6.790   3.468   7.079 -0.8230  1.6173 -3.4139
  179SOPE   H8S20411   6.640   3.390   7.123  0.1968 -0.5384  0.5647
  179SOPE   C2920412   6.784   3.249   7.040 -0.5102  0.2970 -0.5098
  179SOPE   H9120413   6.866   3.240   6.967  1.0993 -1.0035  1.3409
  179SOPE  C21020414   6.764   3.148   7.123  0.4906 -0.1829  0.2406
  179SOPE  H10120415   6.817   3.053   7.109  0.9136  0.3023 -1.6744
  179SOPE  C21120416   6.676   3.150   7.250  0.2069  0.2580 -0.3362
  179SOPE  H11R20417   6.692   3.061   7.315 -0.6009  0.3635  0.0249
  179SOPE  H11S20418   6.570   3.150   7.218 -0.5236 -0.4661  1.8866
  179SOPE  C21220419   6.684   3.254   7.366  1.2259  0.3984  0.4855
  179SOPE  H12R20420   6.640   3.350   7.334  2.4908  0.0605 -2.6285
  179SOPE  H12S20421   6.790   3.279   7.387  1.5217 -0.5288  0.1737
  179SOPE  C21320422   6.619   3.203   7.495 -0.0766  0.8521 -0.2960
  179SOPE  H13R20423   6.661   3.103   7.523 -2.5174 -0.2180 -0.1898
  179SOPE  H13S20424   6.510   3.184   7.505 -0.3160  2.7187  1.2030
  179SOPE  C21420425   6.653   3.303   7.607 -0.4399 -0.4280  0.8479
  179SOPE  H14R20426   6.616   3.404   7.579  0.4754 -0.5316 -0.8947
  179SOPE  H14S20427   6.763   3.313   7.625  0.0878 -0.8837 -1.6579
  179SOPE  C21520428   6.600   3.250   7.740 -0.2180 -0.0153  0.8559
  179SOPE  H15R20429   6.648   3.155   7.772  0.3078 -0.2147 -0.4529
  179SOPE  H15S20430   6.493   3.224   7.732 -0.0031 -0.7658  0.1735
  179SOPE  C21620431   6.632   3.352   7.845 -0.1539 -0.3205 -0.8377
  179SOPE  H16R20432   6.562   3.439   7.845  1.3743  0.9886  0.6802
  179SOPE  H16S20433   6.735   3.392   7.836 -0.4109  0.5063 -0.2806
  179SOPE  C21720434   6.621   3.301   7.988 -0.7607 -0.2526 -0.6269
  179SOPE  H17R20435   6.666   3.202   8.011  0.6612  0.2755 -0.9993
  179SOPE  H17S20436   6.516   3.273   8.011 -0.8824 -0.3450 -1.2785
  179SOPE  C21820437   6.678   3.406   8.089 -0.3193  0.1948  0.8183
  179SOPE  H18R20438   6.687   3.355   8.188  0.8983 -0.5746  0.3330
  179SOPE  H18S20439   6.622   3.502   8.099 -0.8808  0.0080 -0.4325
  179SOPE  H18T20440   6.781   3.434   8.060  0.9850 -3.0149  1.9268
  179SOPE   C3320441   5.984   3.043   7.060 -0.0708 -0.9090 -0.5423
  179SOPE   H3X20442   6.093   3.047   7.035 -0.0749  0.3039 -0.4315
  179SOPE   H3Y20443   5.951   2.942   7.091 -1.3645 -0.1835  0.5597
  179SOPE   C3420444   5.965   3.123   7.196 -0.7152 -0.2676 -0.0400
  179SOPE   H4X20445   5.862   3.119   7.239 -0.9160 -0.5119 -0.5343
  179SOPE   H4Y20446   5.985   3.228   7.165 -1.5308 -1.1411 -4.0177
  179SOPE   C3520447   6.059   3.068   7.299  0.1970  0.2671 -0.0042
  179SOPE   H5X20448   6.168   3.083   7.286  0.1837 -0.4187 -1.0102
  179SOPE   H5Y20449   6.064   2.957   7.297  1.8796  0.3418 -0.8560
  179SOPE   C3620450   6.027   3.115   7.443  0.0283  0.4709  0.2621
  179SOPE   H6X20451   5.924   3.091   7.476 -0.0162  1.0297  0.5347
  179SOPE   H6Y20452   6.032   3.226   7.446 -0.7794  0.5092  0.3260
  179SOPE   C3720453   6.124   3.074   7.557  0.0912  0.3112  0.0821
  179SOPE   H7X20454   6.228   3.109   7.535 -0.0189 -0.1961 -1.3778
  179SOPE   H7Y20455   6.143   2.966   7.572  1.5080  0.6147  0.6659
  179SOPE   C3820456   6.072   3.141   7.690  0.1711  0.4416  0.5700
  179SOPE   H8X20457   5.964   3.118   7.696 -0.0435  1.4858  0.9326
  179SOPE   H8Y20458   6.083   3.251   7.676 -0.4440  0.4344 -0.0171
  179SOPE   C3920459   6.155   3.091   7.806  0.4050  0.4923  0.3126
  179SOPE   H9X20460   6.264   3.089   7.783  1.4527 -1.0593  4.5611
  179SOPE   H9Y20461   6.133   2.983   7.820 -0.7329  0.9158  2.0417
  179SOPE  C31020462   6.142   3.171   7.939 -0.0817  0.1922  0.3268
  179SOPE  H10X20463   6.044   3.161   7.991  0.9446 -3.3600  1.9262
  179SOPE  H10Y20464   6.181   3.270   7.909  2.0007 -0.4637  0.7334
  179SOPE  C31120465   6.256   3.121   8.039  0.0975 -0.5106 -0.7416
  179SOPE  H11X20466   6.359   3.143   8.003 -0.3749 -2.3482 -3.5448
  179SOPE  H11Y20467   6.249   3.010   8.047 -1.6900 -0.4355 -0.9127
  179SOPE  C31220468   6.232   3.181   8.181 -0.1316 -0.1412 -0.1513
  179SOPE  H12X20469   6.143   3.137   8.231 -0.1112 -0.5601 -0.4842
  179SOPE  H12Y20470   6.201   3.287   8.167  1.2004  0.3039  0.1092
  179SOPE  C31320471   6.353   3.171   8.269  0.4296 -0.0696  0.2778
  179SOPE  H13X20472   6.442   3.199   8.209 -1.5099  0.0680 -2.6942
  179SOPE  H13Y20473   6.362   3.072   8.318 -0.6377 -0.6049 -0.5738
  179SOPE  C31420474   6.345   3.277   8.386 -0.0173 -0.8146 -0.0224
  179SOPE  H14X20475   6.243   3.265   8.427 -1.2322  1.7049 -2.0714
  179SOPE  H14Y20476   6.358   3.376   8.338  0.5178 -0.3080  1.1178
  179SOPE  C31520477   6.458   3.279   8.483 -0.1640  0.5645 -0.5748
  179SOPE  H15X20478   6.548   3.280   8.418 -2.4462  0.4177 -4.0168
  179SOPE  H15Y20479   6.455   3.188   8.547  0.9350  0.9402  0.0437
  179SOPE  C31620480   6.472   3.405   8.577 -0.0005  0.0462 -0.4147
  179SOPE  H16X20481   6.506   3.493   8.518  0.0908  0.0675 -0.3310
  179SOPE  H16Y20482   6.554   3.386   8.650  1.0672  3.7964 -0.4127
  179SOPE  C31720483   6.347   3.451   8.647  0.0231 -0.5611 -0.3580
  179SOPE  H17X20484   6.302   3.361   8.694  2.9588 -0.7184  2.5027
  179SOPE  H17Y20485   6.278   3.489   8.568 -1.1695  2.4134  1.9171
  179SOPE  C31820486   6.358   3.548   8.760 -0.2509  0.0198  0.5985
  179SOPE  H18X20487   6.261   3.551   8.813 -0.7904  1.2546 -0.3970
  179SOPE  H18Y20488   6.374   3.653   8.726 -2.7030 -0.3502 -2.0576
  179SOPE  H18Z20489   6.434   3.514   8.834 -0.6535 -1.5910  0.3016
  180SOPE     N20490   0.174   1.594   5.819  0.3538  0.0157 -0.4058
  180SOPE   HN120491   0.233   1.623   5.738 -0.1906  2.4184 -0.0216
  180SOPE   HN220492   0.220   1.524   5.882  0.0111  2.1380  2.3996
  180SOPE   HN320493   0.085   1.551   5.788  0.4863  0.2942 -1.1868
  180SOPE   C1220494   0.146   1.720   5.893  0.2380 -0.6303 -0.1322
  180SOPE  H12A20495   0.110   1.796   5.820 -1.1097 -1.3028 -0.1888
  180SOPE  H12B20496   0.237   1.759   5.944 -0.2470  0.1290  0.1545
  180SOPE   C1120497   0.033   1.698   5.991 -0.3050 -0.0108  0.0834
  180SOPE  H11A20498   0.031   1.784   6.061  2.3905  1.2973 -1.3321
  180SOPE  H11B20499   0.045   1.604   6.049 -0.4498 -0.3435 -0.4139
  180SOPE     P20500  -0.188   1.810   5.896  0.1579 -0.0641 -0.2373
  180SOPE   O1320501  -0.315   1.762   5.837 -1.0074 -0.2663  0.1356
  180SOPE   O1420502  -0.119   1.918   5.824 -0.1831 -0.1210  0.5213
  180SOPE   O1220503  -0.094   1.691   5.922  0.2231 -0.5399  0.2264
  180SOPE   O1120504  -0.227   1.851   6.044  0.2496 -0.6434 -0.0491
  180SOPE    C120505  -0.288   1.764   6.133 -0.5193  0.0908  0.2624
  180SOPE    HA20506  -0.253   1.659   6.122  0.7117  0.4835  0.2253
  180SOPE    HB20507  -0.398   1.778   6.125 -0.2298  1.9754 -1.3581
  180SOPE    C220508  -0.253   1.816   6.276  0.3680 -0.2028  0.1648
  180SOPE    HS20509  -0.292   1.920   6.285 -1.7509 -0.7497 -1.9668
  180SOPE   O2120510  -0.105   1.812   6.287  0.4124  0.3747  0.0437
  180SOPE   C2120511  -0.045   1.926   6.286  0.4290 -0.0616 -0.4071
  180SOPE   O2220512  -0.102   2.036   6.286 -0.4308 -0.2049 -0.3087
  180SOPE   C2220513   0.106   1.908   6.300 -0.0176 -0.0963  0.1136
  180SOPE   H2R20514   0.157   2.001   6.266  0.5843 -0.3020  0.4302
  180SOPE   H2S20515   0.132   1.815   6.244 -2.1600 -0.1812 -0.8377
  180SOPE    C320516  -0.312   1.741   6.396  0.0789 -0.3433 -0.4827
  180SOPE    HX20517  -0.274   1.638   6.380 -2.6055 -1.7355  1.3255
  180SOPE    HY20518  -0.421   1.726   6.377  0.1402 -0.0916 -1.0541
  180SOPE   O3120519  -0.269   1.786   6.530 -0.0042  0.2695  0.6289
  180SOPE   C3120520  -0.323   1.897   6.574  1.2052  0.0377  0.0552
  180SOPE   O3220521  -0.413   1.964   6.521 -0.0523 -0.0193  0.4014
  180SOPE   C3220522  -0.247   1.945   6.704  1.0421  0.2853  0.5078
  180SOPE   H2X20523  -0.233   2.055   6.706  0.5984  0.5002 -2.7882
  180SOPE   H2Y20524  -0.143   1.908   6.697  1.3478  0.8018  1.9500
  180SOPE   C2320525   0.158   1.882   6.449 -0.8369  0.1452  0.3370
  180SOPE   H3R20526   0.269   1.883   6.444 -0.8342 -0.7156  0.0948
  180SOPE   H3S20527   0.120   1.792   6.501  0.3772  1.1535  3.1448
  180SOPE   C2420528   0.131   1.993   6.546 -0.3002  0.1038  0.3861
  180SOPE   H4R20529   0.197   2.081   6.527 -0.3992  0.2908  0.8982
  180SOPE   H4S20530   0.028   2.031   6.532  0.3951  1.8598 -0.2063
  180SOPE   C2520531   0.144   1.951   6.693 -0.5542 -1.2419 -0.7935
  180SOPE   H5R20532   0.052   1.892   6.710 -1.0184 -1.0302 -2.3959
  180SOPE   H5S20533   0.236   1.895   6.718 -0.3425 -0.4935  0.1604
  180SOPE   C2620534   0.144   2.078   6.784  0.4498 -0.3845 -0.5094
  180SOPE   H6R20535   0.243   2.129   6.784 -0.4368  1.4398  0.3846
  180SOPE   H6S20536   0.075   2.150   6.735  1.3846 -0.5062 -2.0702
  180SOPE   C2720537   0.107   2.049   6.930 -0.6958 -0.8855  0.0124
  180SOPE   H7R20538   0.017   1.984   6.938 -0.9381 -0.3696  2.1585
  180SOPE   H7S20539   0.181   1.981   6.976  1.6054  1.6746  0.3885
  180SOPE   C2820540   0.108   2.167   7.024 -0.4875  0.2230  0.8313
  180SOPE   H8R20541   0.143   2.133   7.124  0.3747  1.2549  0.8971
  180SOPE   H8S20542   0.181   2.236   6.976  0.8103 -2.0422 -0.6612
  180SOPE   C2920543  -0.031   2.228   7.049  0.4635  0.3260  0.1750
  180SOPE   H9120544  -0.082   2.241   6.952  2.1493 -0.0251 -0.8160
  180SOPE  C21020545  -0.093   2.255   7.164 -0.0342  0.1398  0.0303
  180SOPE  H10120546  -0.180   2.322   7.169  0.4365  0.6617  1.6214
  180SOPE  C21120547  -0.028   2.252   7.299  0.0853 -0.4489  0.0223
  180SOPE  H11R20548   0.070   2.304   7.296 -1.0962  2.0156  1.2513
  180SOPE  H11S20549  -0.002   2.145   7.318 -2.6334 -1.4863 -1.5194
  180SOPE  C21220550  -0.113   2.301   7.412  0.4114 -0.2269 -0.3187
  180SOPE  H12R20551  -0.206   2.240   7.414  0.1572  0.0790 -1.6010
  180SOPE  H12S20552  -0.137   2.406   7.386  0.6675 -0.7081 -2.7058
  180SOPE  C21320553  -0.042   2.285   7.548  0.5592 -0.1007  0.6706
  180SOPE  H13R20554   0.051   2.344   7.532  1.1193 -1.1007  0.1387
  180SOPE  H13S20555  -0.027   2.177   7.568  0.0450 -0.6753 -1.6667
  180SOPE  C21420556  -0.112   2.343   7.672  0.3629 -0.0784  0.6884
  180SOPE  H14R20557  -0.218   2.309   7.670  0.7421 -1.4905  2.3191
  180SOPE  H14S20558  -0.106   2.454   7.670  0.7551 -0.0387  2.5084
  180SOPE  C21520559  -0.041   2.302   7.800 -0.3936 -0.4689 -0.2945
  180SOPE  H15R20560  -0.037   2.191   7.803 -0.1398 -0.6280 -3.5767
  180SOPE  H15S20561  -0.083   2.344   7.894 -1.0956 -1.7082 -0.0358
  180SOPE  C21620562   0.107   2.360   7.794  0.2433  0.6789  0.0950
  180SOPE  H16R20563   0.110   2.465   7.758  2.7699  0.0017 -1.9950
  180SOPE  H16S20564   0.162   2.303   7.716  1.4061  3.7023 -1.4578
  180SOPE  C21720565   0.183   2.353   7.929 -0.4080  0.5901 -0.2803
  180SOPE  H17R20566   0.118   2.413   7.997 -2.4546  0.2320 -1.8174
  180SOPE  H17S20567   0.285   2.397   7.920 -0.4160  1.3249  2.3822
  180SOPE  C21820568   0.191   2.216   8.003  0.0966 -0.7236  0.6408
  180SOPE  H18R20569   0.300   2.212   8.026  0.6618 -1.4977 -1.8321
  180SOPE  H18S20570   0.176   2.130   7.934 -0.0170 -0.0052 -0.2426
  180SOPE  H18T20571   0.127   2.206   8.093 -1.3305  1.1672 -0.1132
  180SOPE   C3320572  -0.325   1.892   6.829 -0.2128  0.0087  0.5206
  180SOPE   H3X20573  -0.335   1.783   6.815 -2.1751  0.1720  0.4102
  180SOPE   H3Y20574  -0.433   1.921   6.827 -0.1400  0.3344  1.1329
  180SOPE   C3420575  -0.267   1.943   6.960  0.3880 -0.7517  0.7489
  180SOPE   H4X20576  -0.268   2.054   6.963 -2.3899 -0.6515 -0.6923
  180SOPE   H4Y20577  -0.160   1.915   6.968  0.7055 -0.3796 -1.4768
  180SOPE   C3520578  -0.329   1.872   7.080 -0.6049 -0.4606 -0.7141
  180SOPE   H5X20579  -0.288   1.769   7.079 -1.4911 -0.8338 -0.2952
  180SOPE   H5Y20580  -0.439   1.870   7.064 -0.6636  0.3314 -0.4637
  180SOPE   C3620581  -0.297   1.928   7.218 -0.2962  0.0963  0.3427
  180SOPE   H6X20582  -0.329   2.034   7.216 -0.5061  0.0231 -0.6957
  180SOPE   H6Y20583  -0.186   1.935   7.220 -0.3043  0.1703  0.5514
  180SOPE   C3720584  -0.340   1.850   7.343  0.6155 -0.4013  0.2929
  180SOPE   H7X20585  -0.392   1.756   7.314  0.7753  0.1574 -1.9917
  180SOPE   H7Y20586  -0.417   1.909   7.397 -0.6095 -2.2086  0.6212
  180SOPE   C3820587  -0.226   1.834   7.444 -0.3319 -0.2258  0.3680
  180SOPE   H8X20588  -0.174   1.930   7.464  2.7269 -1.6106 -0.2390
  180SOPE   H8Y20589  -0.139   1.785   7.394 -0.1779  1.3320 -0.9621
  180SOPE   C3920590  -0.272   1.759   7.568 -0.7391  0.0149  0.5189
  180SOPE   H9X20591  -0.299   1.657   7.535 -0.5820  0.3734 -0.7485
  180SOPE   H9Y20592  -0.361   1.801   7.619 -1.8759  2.7310 -3.2725
  180SOPE  C31020593  -0.168   1.753   7.685 -0.4643 -0.1713  0.4139
  180SOPE  H10X20594  -0.077   1.696   7.658 -1.3384 -1.5291  0.2604
  180SOPE  H10Y20595  -0.217   1.686   7.757 -0.4685  1.0519  1.5943
  180SOPE  C31120596  -0.128   1.893   7.735  0.5287  0.0631  0.0768
  180SOPE  H11X20597  -0.220   1.944   7.772 -0.6884 -1.9426 -0.0362
  180SOPE  H11Y20598  -0.092   1.958   7.653 -0.0217  0.3073  0.0198
  180SOPE  C31220599  -0.013   1.893   7.838 -0.2898 -0.7371 -0.3034
  180SOPE  H12X20600  -0.036   1.842   7.934  1.4258 -2.0050 -0.5061
  180SOPE  H12Y20601   0.000   2.001   7.862  0.3579 -0.7900 -0.3898
  180SOPE  C31320602   0.111   1.825   7.787 -0.2029 -0.1479 -0.4834
  180SOPE  H13X20603   0.113   1.714   7.794 -0.1419 -0.1277 -0.1929
  180SOPE  H13Y20604   0.185   1.850   7.865 -0.9734 -2.7931  1.2315
  180SOPE  C31420605   0.164   1.874   7.655  0.0200  0.4322 -0.1462
  180SOPE  H14X20606   0.086   1.855   7.578 -1.2226 -0.2066  1.2261
  180SOPE  H14Y20607   0.244   1.815   7.606 -1.3803 -0.4539 -1.4461
  180SOPE  C31520608   0.226   2.013   7.649  0.8412  0.0835 -0.6873
  180SOPE  H15X20609   0.297   2.029   7.732  0.3280  0.7228 -0.3660
  180SOPE  H15Y20610   0.149   2.089   7.673  3.2396  2.2409  0.5189
  180SOPE  C31620611   0.288   2.039   7.515 -0.4101  0.2097  0.5328
  180SOPE  H16X20612   0.209   2.025   7.438  0.2193  3.5344 -0.8832
  180SOPE  H16Y20613   0.367   1.962   7.500 -0.7416 -0.2376  1.0278
  180SOPE  C31720614   0.344   2.176   7.507  0.4944 -0.0824 -0.0043
  180SOPE  H17X20615   0.401   2.206   7.598 -2.7870  1.8071  1.5791
  180SOPE  H17Y20616   0.251   2.236   7.515  2.7318  3.5388  1.6659
  180SOPE  C31820617   0.404   2.209   7.370 -0.3210 -0.1294 -0.5123
  180SOPE  H18X20618   0.500   2.155   7.359  0.0592  0.1325  1.2212
  180SOPE  H18Y20619   0.417   2.316   7.344  1.0565 -0.4574 -1.2511
  180SOPE  H18Z20620   0.346   2.171   7.283 -1.1128  0.1943 -0.1348
  181SOPE     N20621   0.366   0.972   6.002  0.3962  0.6606 -0.0676
  181SOPE   HN120622   0.267   0.998   6.021  0.0567 -1.3337  1.1255
  181SOPE   HN220623   0.406   1.017   5.917 -1.4779 -0.6131 -1.7174
  181SOPE   HN320624   0.359   0.871   5.980  2.6954  0.1612  1.1788
  181SOPE   C1220625   0.440   1.002   6.124 -0.1978  0.2214  0.2259
  181SOPE  H12A20626   0.545   0.973   6.104 -0.0858  1.7970 -1.8424
  181SOPE  H12B20627   0.401   0.935   6.203  3.1114 -1.6819  0.4066
  181SOPE   C1120628   0.426   1.152   6.152  0.4405 -0.7487  0.0149
  181SOPE  H11A20629   0.495   1.164   6.238 -1.4971  1.6405  1.3589
  181SOPE  H11B20630   0.322   1.185   6.174  1.1247  0.4014  1.7386
  181SOPE     P20631   0.484   1.379   6.033 -0.2623 -0.0134 -0.1922
  181SOPE   O1320632   0.358   1.415   5.972 -0.3529 -0.0616 -0.1150
  181SOPE   O1420633   0.609   1.421   5.962 -0.0551 -0.1303 -0.2673
  181SOPE   O1220634   0.488   1.217   6.041  0.1496  0.2866 -0.2850
  181SOPE   O1120635   0.478   1.411   6.183 -0.0529  0.3193 -0.2953
  181SOPE    C120636   0.443   1.547   6.220  0.5517 -1.1714  0.6914
  181SOPE    HA20637   0.404   1.601   6.131  1.5744  0.1541  1.0150
  181SOPE    HB20638   0.531   1.598   6.266 -0.7944  2.5502 -0.5343
  181SOPE    C220639   0.333   1.543   6.328  0.0616 -0.4958  0.4501
  181SOPE    HS20640   0.302   1.650   6.332  2.5330  0.2862  1.0493
  181SOPE   O2120641   0.379   1.490   6.457 -0.0982  0.1006  0.4695
  181SOPE   C2120642   0.457   1.571   6.523 -0.5218  0.5523  0.2940
  181SOPE   O2220643   0.482   1.685   6.490 -0.1354 -0.1122 -0.0196
  181SOPE   C2220644   0.505   1.504   6.645  0.7818  0.4320 -0.0910
  181SOPE   H2R20645   0.615   1.520   6.650  1.2511 -1.9778 -1.4110
  181SOPE   H2S20646   0.490   1.394   6.635  1.0462  0.0620  2.7453
  181SOPE    C320647   0.207   1.472   6.274  0.1990 -0.2319 -0.1977
  181SOPE    HX20648   0.219   1.362   6.282  2.0598 -0.1843 -1.4521
  181SOPE    HY20649   0.187   1.497   6.167 -1.0716  0.0702  0.1071
  181SOPE   O3120650   0.100   1.523   6.353 -0.9194  0.5234  0.2084
  181SOPE   C3120651   0.059   1.447   6.458  0.7850  0.1093 -0.8024
  181SOPE   O3220652   0.109   1.342   6.493  0.2113  0.2153  0.2939
  181SOPE   C3220653  -0.061   1.519   6.528 -0.1929 -0.1961  0.1591
  181SOPE   H2X20654  -0.150   1.455   6.511 -0.6067 -0.0521  1.6265
  181SOPE   H2Y20655  -0.073   1.614   6.472 -0.6778 -0.5108 -0.2783
  181SOPE   C2320656   0.430   1.554   6.770 -0.4546 -0.1506 -0.3073
  181SOPE   H3R20657   0.328   1.590   6.745  0.1636  0.4834 -2.0784
  181SOPE   H3S20658   0.485   1.644   6.806 -0.0008 -0.9964  1.2118
  181SOPE   C2420659   0.432   1.458   6.891 -0.1123 -0.3447 -0.3684
  181SOPE   H4R20660   0.338   1.481   6.946 -0.3512  2.5298 -1.7961
  181SOPE   H4S20661   0.449   1.352   6.862 -1.6875 -1.0688  1.1371
  181SOPE   C2520662   0.552   1.487   6.980 -0.2596 -0.8072 -0.1856
  181SOPE   H5R20663   0.645   1.506   6.923 -1.0359  0.0663 -1.1800
  181SOPE   H5S20664   0.523   1.578   7.038  1.7788 -1.4432  2.0025
  181SOPE   C2620665   0.587   1.379   7.084  0.4267 -0.6629  0.2554
  181SOPE   H6R20666   0.499   1.359   7.149  1.3040 -1.2425  1.2924
  181SOPE   H6S20667   0.609   1.287   7.025 -0.9237 -1.7259  1.3561
  181SOPE   C2720668   0.711   1.410   7.175  0.1675 -0.3817  0.8017
  181SOPE   H7R20669   0.790   1.466   7.120 -1.1315  1.4556  0.7530
  181SOPE   H7S20670   0.680   1.490   7.245  2.6427  1.1958  0.2382
  181SOPE   C2820671   0.760   1.283   7.249 -0.4013 -0.5837 -0.1700
  181SOPE   H8R20672   0.685   1.238   7.317 -1.5290  0.9848 -0.3280
  181SOPE   H8S20673   0.796   1.210   7.173 -1.4451  0.6407 -1.9083
  181SOPE   C2920674   0.887   1.325   7.327 -0.0614 -0.4901  0.2167
  181SOPE   H9120675   0.978   1.337   7.266 -0.0845 -2.3614 -0.2481
  181SOPE  C21020676   0.898   1.323   7.460 -0.3840  0.3131 -0.2738
  181SOPE  H10120677   0.997   1.328   7.507 -0.0824  1.3031 -0.9846
  181SOPE  C21120678   0.786   1.293   7.559 -0.4107  0.6450 -0.1757
  181SOPE  H11R20679   0.754   1.188   7.538  0.5258  0.0944  1.0628
  181SOPE  H11S20680   0.694   1.355   7.548 -1.3964 -1.0636 -2.5147
  181SOPE  C21220681   0.848   1.290   7.699 -0.0314  0.4928 -0.6098
  181SOPE  H12R20682   0.939   1.226   7.704 -0.1478  0.3955  2.0094
  181SOPE  H12S20683   0.782   1.227   7.763  0.2300  1.1130  0.2925
  181SOPE  C21320684   0.871   1.432   7.762 -1.5117 -0.5196  0.1281
  181SOPE  H13R20685   0.782   1.494   7.739 -0.8724  1.4676  2.5207
  181SOPE  H13S20686   0.957   1.485   7.717  0.2252 -1.4367  2.1720
  181SOPE  C21420687   0.904   1.424   7.914  0.1484  0.5180  0.1594
  181SOPE  H14R20688   0.996   1.363   7.916 -0.8633 -1.0605  2.1069
  181SOPE  H14S20689   0.830   1.376   7.981  2.8489  1.2525  3.9748
  181SOPE  C21520690   0.938   1.561   7.973 -0.1910  0.6496 -0.4916
  181SOPE  H15R20691   0.977   1.619   7.887  1.3553 -1.0684 -1.0170
  181SOPE  H15S20692   1.007   1.549   8.059  2.6776 -0.0064 -2.7301
  181SOPE  C21620693   0.819   1.625   8.043 -0.0644  0.0629  0.0820
  181SOPE  H16R20694   0.801   1.588   8.146 -2.9853  0.3415 -0.2350
  181SOPE  H16S20695   0.732   1.622   7.973  1.2408  2.1958 -1.7490
  181SOPE  C21720696   0.850   1.775   8.080 -0.1945  0.4962  0.1004
  181SOPE  H17R20697   0.757   1.829   8.112 -0.6119 -0.1965  0.0756
  181SOPE  H17S20698   0.884   1.812   7.981  2.7620  0.3884  0.9922
  181SOPE  C21820699   0.966   1.809   8.167 -0.0510 -0.3871  0.0535
  181SOPE  H18R20700   0.961   1.919   8.184  1.5361 -0.0266 -1.5190
  181SOPE  H18S20701   1.061   1.783   8.115  0.5347 -0.8901  1.3258
  181SOPE  H18T20702   0.970   1.747   8.259 -2.2806 -0.3892  0.1998
  181SOPE   C3320703  -0.030   1.548   6.673  0.0924  0.6188  0.3273
  181SOPE   H3X20704  -0.116   1.611   6.706 -0.4035  0.3191 -0.3804
  181SOPE   H3Y20705   0.066   1.604   6.676 -0.1954  1.3039 -1.6842
  181SOPE   C3420706  -0.019   1.425   6.770 -0.9622 -0.1597  0.5957
  181SOPE   H4X20707   0.059   1.362   6.721 -1.0382  1.1686 -1.3535
  181SOPE   H4Y20708  -0.115   1.370   6.767 -0.8494 -0.3419 -1.6459
  181SOPE   C3520709   0.033   1.460   6.910  0.2524  0.0286  0.2884
  181SOPE   H5X20710   0.132   1.504   6.887  0.7690 -2.1587 -2.2308
  181SOPE   H5Y20711   0.066   1.367   6.962  0.3565 -0.3899 -0.5115
  181SOPE   C3620712  -0.059   1.542   6.995 -0.1431  0.2910 -0.7229
  181SOPE   H6X20713  -0.158   1.497   7.018 -0.7236  0.8957 -1.9487
  181SOPE   H6Y20714  -0.074   1.633   6.934  1.9606  1.4353  0.3364
  181SOPE   C3720715   0.012   1.571   7.129  0.4431  0.5419  0.2754
  181SOPE   H7X20716   0.064   1.485   7.176  0.7368  0.5270 -0.0706
  181SOPE   H7Y20717  -0.069   1.609   7.195  0.5775  0.6124  0.4018
  181SOPE   C3820718   0.110   1.684   7.119  0.2920  0.1484  0.0510
  181SOPE   H8X20719   0.060   1.774   7.077 -1.9572 -1.2356 -0.4168
  181SOPE   H8Y20720   0.180   1.664   7.035 -0.6804  1.2669 -1.0638
  181SOPE   C3920721   0.187   1.731   7.237 -0.0138  0.6266  0.8336
  181SOPE   H9X20722   0.123   1.744   7.327 -0.7708  2.6495  0.0535
  181SOPE   H9Y20723   0.224   1.833   7.211  1.0747  0.0324 -0.0377
  181SOPE  C31020724   0.321   1.658   7.266 -0.6610 -1.2071 -0.6242
  181SOPE  H10X20725   0.389   1.729   7.317  0.7503 -1.4481 -2.0988
  181SOPE  H10Y20726   0.353   1.637   7.161  1.1476 -2.8143  0.1850
  181SOPE  C31120727   0.326   1.520   7.332 -0.9927 -0.9909 -0.5450
  181SOPE  H11X20728   0.426   1.476   7.313  0.7256  1.7021  1.5152
  181SOPE  H11Y20729   0.251   1.456   7.281 -0.7366 -1.0735 -0.8153
  181SOPE  C31220730   0.305   1.524   7.485  0.1462 -0.5405  0.9761
  181SOPE  H12X20731   0.291   1.416   7.505  1.6002 -1.5084 -2.5708
  181SOPE  H12Y20732   0.220   1.591   7.512  1.2105  2.0728 -1.6102
  181SOPE  C31320733   0.422   1.579   7.571 -1.3362  0.3001 -0.2572
  181SOPE  H13X20734   0.441   1.688   7.561 -0.7412  0.3831  1.5367
  181SOPE  H13Y20735   0.502   1.507   7.543 -1.8975 -0.4379  0.0124
  181SOPE  C31420736   0.406   1.556   7.726 -0.1781  0.0802 -0.4607
  181SOPE  H14X20737   0.403   1.446   7.743  2.3088 -0.0739 -0.7421
  181SOPE  H14Y20738   0.303   1.581   7.760 -0.2388 -1.3454  0.5001
  181SOPE  C31520739   0.513   1.598   7.820 -0.1064  0.8497 -0.9278
  181SOPE  H15X20740   0.552   1.700   7.803 -0.6746  1.7491  2.4629
  181SOPE  H15Y20741   0.595   1.525   7.803 -0.8162 -0.5606  1.2051
  181SOPE  C31620742   0.465   1.607   7.966 -0.4117  0.4809  0.5375
  181SOPE  H16X20743   0.362   1.647   7.963 -0.0997  1.2566 -0.5434
  181SOPE  H16Y20744   0.539   1.680   8.006  0.3104 -1.3518  2.7664
  181SOPE  C31720745   0.483   1.474   8.040  0.8912 -0.0765  0.0165
  181SOPE  H17X20746   0.573   1.419   8.005  1.2156  0.6336 -0.2725
  181SOPE  H17Y20747   0.391   1.413   8.024 -0.8186  2.1290  0.8697
  181SOPE  C31820748   0.500   1.509   8.189  0.7281 -0.4634 -0.3464
  181SOPE  H18X20749   0.519   1.415   8.245 -2.4546 -0.2151  1.3653
  181SOPE  H18Y20750   0.402   1.548   8.223 -0.9536 -3.1908 -1.7497
  181SOPE  H18Z20751   0.587   1.575   8.211  1.2954 -1.9120  2.0805
  182SOPE     N20752   5.280   0.469   6.156  0.1620  0.3870 -0.1371
  182SOPE   HN120753   5.299   0.513   6.064  3.1015 -0.1741  0.1040
  182SOPE   HN220754   5.361   0.490   6.217  1.4490 -1.7610 -0.9850
  182SOPE   HN320755   5.281   0.365   6.148  0.0273  0.3239  0.6251
  182SOPE   C1220756   5.146   0.517   6.212 -0.1403  0.3015 -0.0767
  182SOPE  H12A20757   5.145   0.482   6.317  0.7522  0.4610 -0.0070
  182SOPE  H12B20758   5.071   0.465   6.148 -0.0466 -0.5303  0.4648
  182SOPE   C1120759   5.128   0.667   6.219 -0.1732 -1.0035  0.1056
  182SOPE  H11A20760   5.217   0.708   6.270 -1.1320  1.8297 -0.3486
  182SOPE  H11B20761   5.045   0.700   6.283  1.6125  0.1854  1.9311
  182SOPE     P20762   5.227   0.771   6.000 -0.4864  0.1618 -0.0572
  182SOPE   O1320763   5.163   0.836   5.886  0.5455 -0.4038  0.0644
  182SOPE   O1420764   5.320   0.661   5.977  0.3422 -0.1108 -0.5166
  182SOPE   O1220765   5.117   0.719   6.091  0.9975 -0.3571  0.0412
  182SOPE   O1120766   5.296   0.872   6.099  0.3736  0.1446  0.0807
  182SOPE    C120767   5.251   1.007   6.110  0.5636 -0.3930  0.3325
  182SOPE    HA20768   5.155   1.023   6.164  0.9974  1.7013  0.5657
  182SOPE    HB20769   5.241   1.050   6.009  0.4299 -2.2872 -0.5048
  182SOPE    C220770   5.346   1.091   6.194 -0.4993 -0.2322 -0.1273
  182SOPE    HS20771   5.450   1.084   6.156 -1.1513  0.0262 -2.1193
  182SOPE   O2120772   5.343   1.047   6.327  0.0250 -1.3100  0.0418
  182SOPE   C2120773   5.425   0.950   6.363 -0.1493  0.1056 -0.2701
  182SOPE   O2220774   5.499   0.884   6.293 -0.2060 -0.3882 -0.2767
  182SOPE   C2220775   5.430   0.938   6.520 -0.3020 -0.4893 -0.3553
  182SOPE   H2R20776   5.375   1.028   6.554 -0.4090 -1.0035  0.8844
  182SOPE   H2S20777   5.535   0.949   6.555 -0.6143  0.3472  0.3415
  182SOPE    C320778   5.305   1.241   6.191  0.2929 -0.0919  0.7007
  182SOPE    HX20779   5.199   1.254   6.223 -0.2868  1.5180 -1.6457
  182SOPE    HY20780   5.307   1.265   6.083 -0.2456 -1.6437  0.3085
  182SOPE   O3120781   5.397   1.319   6.262 -0.0966 -0.6448  0.1545
  182SOPE   C3120782   5.383   1.450   6.238 -0.7469  0.3754 -0.1223
  182SOPE   O3220783   5.288   1.500   6.180 -0.3545  0.1804 -0.1569
  182SOPE   C3220784   5.509   1.530   6.286  0.5181 -0.0617  0.9604
  182SOPE   H2X20785   5.471   1.634   6.302  0.8681  0.2242 -0.0194
  182SOPE   H2Y20786   5.562   1.549   6.191  0.1699  2.0465  1.1207
  182SOPE   C2320787   5.350   0.832   6.592 -0.1718  0.0482  0.7105
  182SOPE   H3R20788   5.371   0.728   6.558 -0.3248  0.8470 -2.0587
  182SOPE   H3S20789   5.244   0.860   6.572  0.3790  2.7665  1.2546
  182SOPE   C2420790   5.370   0.847   6.739 -0.6036 -0.2507 -0.6796
  182SOPE   H4R20791   5.364   0.954   6.771 -0.4067  0.0988 -1.7479
  182SOPE   H4S20792   5.299   0.783   6.795 -0.3974  0.0376 -0.0814
  182SOPE   C2520793   5.506   0.795   6.775 -0.3936 -0.2979  0.3418
  182SOPE   H5R20794   5.520   0.687   6.757 -0.3426 -0.1005 -0.8620
  182SOPE   H5S20795   5.585   0.847   6.717 -2.0957  3.0923  0.8073
  182SOPE   C2620796   5.540   0.811   6.927  0.4674 -0.0344  0.3385
  182SOPE   H6R20797   5.542   0.921   6.943  1.6434  0.1283 -0.8598
  182SOPE   H6S20798   5.455   0.752   6.968 -0.8400 -0.6660 -2.9967
  182SOPE   C2720799   5.673   0.756   6.966  0.2590 -0.4843  0.2995
  182SOPE   H7R20800   5.676   0.651   6.930 -1.6319 -1.2770  2.2318
  182SOPE   H7S20801   5.745   0.827   6.920  2.1107 -1.8139  1.0537
  182SOPE   C2820802   5.700   0.756   7.119 -0.1665  0.4524  0.1040
  182SOPE   H8R20803   5.805   0.735   7.147  0.8111  0.6400 -3.0203
  182SOPE   H8S20804   5.689   0.862   7.152  0.7437  0.5428  0.1557
  182SOPE   C2920805   5.604   0.660   7.180 -1.0851 -0.1199 -0.7775
  182SOPE   H9120806   5.616   0.557   7.145  2.4613 -0.9646  2.1762
  182SOPE  C21020807   5.496   0.693   7.257 -0.5756  1.0930  1.3311
  182SOPE  H10120808   5.418   0.618   7.276 -0.7037  0.5865 -0.8704
  182SOPE  C21120809   5.471   0.833   7.314  0.5989  0.1408 -0.2807
  182SOPE  H11R20810   5.413   0.890   7.239  1.6527 -0.8141 -1.8925
  182SOPE  H11S20811   5.565   0.888   7.336  0.8710  0.3828 -1.8892
  182SOPE  C21220812   5.371   0.845   7.429 -0.3516  0.1521 -0.1233
  182SOPE  H12R20813   5.280   0.784   7.409  0.5948 -0.8978 -1.4313
  182SOPE  H12S20814   5.340   0.950   7.446 -0.6073  0.2651 -1.2019
  182SOPE  C21320815   5.439   0.799   7.561 -0.9128 -0.2180 -0.0615
  182SOPE  H13R20816   5.537   0.850   7.570  0.6985 -2.7943 -1.8260
  182SOPE  H13S20817   5.472   0.695   7.542 -1.9005 -0.5355 -0.1241
  182SOPE  C21420818   5.361   0.796   7.693 -0.3355 -0.5205  0.4148
  182SOPE  H14R20819   5.441   0.778   7.767  1.8411 -0.5278 -1.8344
  182SOPE  H14S20820   5.295   0.707   7.684  0.5819 -1.3048  1.2556
  182SOPE  C21520821   5.278   0.923   7.715  0.1087  0.2551 -0.6543
  182SOPE  H15R20822   5.203   0.937   7.634  0.1390  1.6768 -0.4675
  182SOPE  H15S20823   5.340   1.014   7.701  0.6668 -0.3205 -2.0975
  182SOPE  C21620824   5.215   0.916   7.865  0.0767  0.6844  0.0716
  182SOPE  H16R20825   5.286   0.882   7.943  0.9057  0.9852 -0.5481
  182SOPE  H16S20826   5.134   0.840   7.869  1.6258 -1.0763 -0.7278
  182SOPE  C21720827   5.155   1.044   7.926 -0.7851  0.9423 -0.4737
  182SOPE  H17R20828   5.242   1.112   7.936  1.2545 -1.3161 -1.6641
  182SOPE  H17S20829   5.105   1.034   8.024  0.3643  1.5611  0.1936
  182SOPE  C21820830   5.062   1.122   7.834  0.0245  0.3820  0.0035
  182SOPE  H18R20831   5.115   1.156   7.743 -0.9738  2.5896  0.1812
  182SOPE  H18S20832   5.018   1.209   7.887  0.7558  0.4400  0.5324
  182SOPE  H18T20833   4.975   1.061   7.803  1.3761 -1.4754 -0.3127
  182SOPE   C3320834   5.577   1.452   6.396  0.7084 -0.5779 -0.3145
  182SOPE   H3X20835   5.677   1.501   6.405  0.9170 -1.1466  0.5649
  182SOPE   H3Y20836   5.590   1.345   6.368 -0.2835  0.1490 -4.1426
  182SOPE   C3420837   5.511   1.459   6.531 -0.0351  0.3525  0.2026
  182SOPE   H4X20838   5.411   1.411   6.526 -0.0008  0.3370 -0.4055
  182SOPE   H4Y20839   5.497   1.563   6.567 -0.5981  0.6488 -0.8289
  182SOPE   C3520840   5.604   1.388   6.633  0.3666  0.1844  0.1501
  182SOPE   H5X20841   5.683   1.455   6.674  0.0871  0.7372 -0.1986
  182SOPE   H5Y20842   5.654   1.301   6.586  0.3524 -1.4290  2.9125
  182SOPE   C3620843   5.520   1.335   6.753  0.5359  0.1060  0.1295
  182SOPE   H6X20844   5.440   1.275   6.706  0.9835 -0.3048 -0.1113
  182SOPE   H6Y20845   5.466   1.421   6.800  1.4003  2.2505 -2.5221
  182SOPE   C3720846   5.605   1.264   6.855 -0.6008  0.2779 -0.3148
  182SOPE   H7X20847   5.708   1.306   6.856  0.6414 -2.5554  0.9032
  182SOPE   H7Y20848   5.614   1.156   6.833 -0.7721  0.6195 -2.1856
  182SOPE   C3820849   5.559   1.284   7.001 -0.0709 -0.7310 -0.3637
  182SOPE   H8X20850   5.463   1.230   7.018 -0.7643 -0.2859 -2.4958
  182SOPE   H8Y20851   5.552   1.393   7.021  1.7231 -0.7366  0.4260
  182SOPE   C3920852   5.659   1.228   7.109  0.4306 -0.5402  0.2432
  182SOPE   H9X20853   5.760   1.272   7.094  0.3305  0.1723  1.5606
  182SOPE   H9Y20854   5.666   1.119   7.088 -0.0945 -0.3187 -1.2160
  182SOPE  C31020855   5.610   1.263   7.246  0.5895  1.0899 -0.0412
  182SOPE  H10X20856   5.515   1.206   7.247  2.4020 -2.1208  0.2562
  182SOPE  H10Y20857   5.607   1.373   7.264 -0.9586  1.7024 -3.2070
  182SOPE  C31120858   5.704   1.202   7.354 -0.3203  0.6112 -0.0609
  182SOPE  H11X20859   5.808   1.235   7.332 -0.4495  1.5595  0.6957
  182SOPE  H11Y20860   5.700   1.092   7.344 -1.1090  0.2676  2.9588
  182SOPE  C31220861   5.658   1.241   7.495 -0.5176 -0.1613  0.2674
  182SOPE  H12X20862   5.550   1.218   7.506 -0.8351  0.4717 -1.2427
  182SOPE  H12Y20863   5.672   1.351   7.501 -2.5601  0.1196  0.6079
  182SOPE  C31320864   5.736   1.165   7.602 -0.9040 -0.5167 -0.1960
  182SOPE  H13X20865   5.830   1.221   7.620 -0.1588 -1.7889 -0.0958
  182SOPE  H13Y20866   5.764   1.061   7.576 -1.8035 -1.4139  2.1539
  182SOPE  C31420867   5.665   1.154   7.742 -0.2870  0.0554  0.2753
  182SOPE  H14X20868   5.559   1.124   7.731 -0.4469 -0.1050  2.0772
  182SOPE  H14Y20869   5.651   1.256   7.781 -0.8210 -0.1116  0.5170
  182SOPE  C31520870   5.741   1.074   7.849 -0.8110  0.0804 -0.2349
  182SOPE  H15X20871   5.849   1.085   7.826 -1.1725  0.4936 -1.8451
  182SOPE  H15Y20872   5.706   0.971   7.829 -1.6150  0.4661 -0.8491
  182SOPE  C31620873   5.697   1.114   7.989 -0.4956 -0.6004  0.2944
  182SOPE  H16X20874   5.596   1.073   8.009  0.6176 -2.6224  2.2765
  182SOPE  H16Y20875   5.698   1.225   7.995  0.0273 -0.3907 -2.2654
  182SOPE  C31720876   5.787   1.044   8.093 -0.3182 -0.0756  0.0229
  182SOPE  H17X20877   5.796   0.937   8.067 -0.5748  0.1592 -1.0621
  182SOPE  H17Y20878   5.736   1.039   8.192 -1.1984 -4.3204 -0.4513
  182SOPE  C31820879   5.918   1.120   8.094  0.2479 -0.3751  0.0093
  182SOPE  H18X20880   5.985   1.091   8.177  0.0779 -0.0682  0.2582
  182SOPE  H18Y20881   5.895   1.221   8.135  1.6702 -0.5600  1.3869
  182SOPE  H18Z20882   5.973   1.128   7.998 -2.0684  1.4237 -1.2720
  183SOPE     N20883   1.471   0.110   6.368 -0.4115  0.1330  0.3411
  183SOPE   HN120884   1.403   0.184   6.342  0.7645  1.6167  1.3520
  183SOPE   HN220885   1.566   0.142   6.342  0.0384 -0.8778  0.6926
  183SOPE   HN320886   1.447   0.020   6.322 -0.4733  0.2928  0.0589
  183SOPE   C1220887   1.429   0.081   6.511 -0.4474 -0.5998  0.1373
  183SOPE  H12A20888   1.464   0.172   6.564 -3.4453 -0.1408  1.5275
  183SOPE  H12B20889   1.501   0.008   6.552  0.0871 -0.7037 -0.9448
  183SOPE   C1120890   1.286   0.038   6.526 -0.3064 -0.2376  0.1760
  183SOPE  H11A20891   1.223   0.121   6.486 -0.2410 -0.2426  0.0617
  183SOPE  H11B20892   1.251   0.025   6.631 -2.3243 -0.2451 -0.4415
  183SOPE     P20893   1.289  -0.224   6.496 -0.3531  0.5149  0.5326
  183SOPE   O1320894   1.433  -0.245   6.527 -0.0195 -0.0885 -0.0695
  183SOPE   O1420895   1.228  -0.316   6.401 -0.4910  0.2080  0.1987
  183SOPE   O1220896   1.261  -0.076   6.445  0.1398 -0.5067 -0.4962
  183SOPE   O1120897   1.213  -0.223   6.636  0.3605  0.1160 -0.5743
  183SOPE    C120898   1.272  -0.309   6.739  0.1098 -0.2387  0.0102
  183SOPE    HA20899   1.337  -0.394   6.709  0.1386  0.7163 -2.9424
  183SOPE    HB20900   1.182  -0.362   6.774  0.0940 -0.8587 -0.9220
  183SOPE    C220901   1.328  -0.232   6.870  0.1558 -0.2810 -0.2049
  183SOPE    HS20902   1.347  -0.309   6.947  0.3986  0.8993  0.9495
  183SOPE   O2120903   1.231  -0.129   6.917 -0.1232 -0.3868  0.0707
  183SOPE   C2120904   1.132  -0.179   6.979 -0.1020 -0.4543 -0.6020
  183SOPE   O2220905   1.108  -0.299   6.998  0.0936 -0.1694  0.0231
  183SOPE   C2220906   1.050  -0.070   7.051  0.1513 -0.2060 -0.2616
  183SOPE   H2R20907   0.973  -0.130   7.104  1.6358 -3.1965 -1.2460
  183SOPE   H2S20908   1.007  -0.005   6.972  0.8675  1.7744  0.9235
  183SOPE    C320909   1.462  -0.163   6.846  0.0382 -0.7248 -0.4070
  183SOPE    HX20910   1.450  -0.102   6.754  0.6728  2.1456  1.2950
  183SOPE    HY20911   1.536  -0.245   6.833  0.6907 -0.4514  1.3431
  183SOPE   O3120912   1.515  -0.085   6.959 -0.0800  0.3309 -0.0290
  183SOPE   C3120913   1.562   0.037   6.939  0.4413 -0.0006 -0.0095
  183SOPE   O3220914   1.570   0.091   6.829  0.3597  0.1029  0.4261
  183SOPE   C3220915   1.599   0.096   7.076  0.2192 -0.1965 -0.4424
  183SOPE   H2X20916   1.513   0.085   7.145  1.3336  0.1105  1.0380
  183SOPE   H2Y20917   1.630   0.202   7.070 -2.4990  0.8415  1.8662
  183SOPE   C2320918   1.122   0.008   7.164 -0.3097  0.5145 -0.4628
  183SOPE   H3R20919   1.063   0.090   7.211  1.2266  0.5580  1.4801
  183SOPE   H3S20920   1.205   0.068   7.120 -0.9738  1.3438 -0.6275
  183SOPE   C2420921   1.175  -0.082   7.275 -0.3809  0.1522 -0.4307
  183SOPE   H4R20922   1.167  -0.036   7.376 -1.0145  1.7186 -1.1673
  183SOPE   H4S20923   1.111  -0.172   7.290 -0.7281  0.7449  2.0242
  183SOPE   C2520924   1.319  -0.130   7.249 -0.3901  0.1888 -0.2058
  183SOPE   H5R20925   1.319  -0.194   7.159  0.8426  1.8171 -1.4243
  183SOPE   H5S20926   1.377  -0.036   7.236 -1.2167  0.9539  1.3203
  183SOPE   C2620927   1.378  -0.208   7.365  0.2397  0.0019 -0.1089
  183SOPE   H6R20928   1.487  -0.215   7.343  0.4483  0.7678  0.6321
  183SOPE   H6S20929   1.364  -0.145   7.455 -2.8255  0.2395 -0.6426
  183SOPE   C2720930   1.319  -0.346   7.383 -0.0621  0.0655 -0.2020
  183SOPE   H7R20931   1.209  -0.339   7.376  0.0088  2.9056  0.0721
  183SOPE   H7S20932   1.356  -0.416   7.306 -0.7137  1.1868 -1.5780
  183SOPE   C2820933   1.359  -0.401   7.519  1.0631 -0.5474 -0.4538
  183SOPE   H8R20934   1.319  -0.340   7.603 -1.2690 -1.0783 -1.1177
  183SOPE   H8S20935   1.301  -0.495   7.521  0.0162  0.0863  0.0741
  183SOPE   C2920936   1.505  -0.434   7.534  0.4575 -0.4643  0.0214
  183SOPE   H9120937   1.537  -0.511   7.463  1.4849 -2.1624  2.2173
  183SOPE  C21020938   1.589  -0.376   7.618 -0.0705  0.3719  0.5144
  183SOPE  H10120939   1.689  -0.421   7.626 -0.5488 -1.6617 -2.9944
  183SOPE  C21120940   1.570  -0.254   7.697 -0.6084 -0.4000 -1.2758
  183SOPE  H11R20941   1.474  -0.202   7.678  0.2743  2.0987  0.6293
  183SOPE  H11S20942   1.660  -0.191   7.682 -0.5763 -0.2642 -0.5208
  183SOPE  C21220943   1.575  -0.290   7.845  0.2955 -0.5985 -0.8766
  183SOPE  H12R20944   1.569  -0.192   7.896  0.7292 -0.3850 -1.2301
  183SOPE  H12S20945   1.667  -0.337   7.888 -0.5950 -1.2252  0.4173
  183SOPE  C21320946   1.463  -0.379   7.905  0.0557 -0.0051  0.0861
  183SOPE  H13R20947   1.452  -0.476   7.853 -0.6599  0.2193 -0.1960
  183SOPE  H13S20948   1.371  -0.316   7.903  0.9045  1.2927  0.3780
  183SOPE  C21420949   1.497  -0.414   8.054  0.6275 -0.2296 -0.0864
  183SOPE  H14R20950   1.597  -0.462   8.061  0.6723 -0.2053 -0.5273
  183SOPE  H14S20951   1.415  -0.483   8.084  0.2476 -0.5707 -1.8231
  183SOPE  C21520952   1.513  -0.298   8.154  0.4678  0.1543 -0.2916
  183SOPE  H15R20953   1.423  -0.235   8.146  0.1049 -0.4492 -1.0732
  183SOPE  H15S20954   1.607  -0.239   8.143  0.9973 -0.6095  0.0117
  183SOPE  C21620955   1.522  -0.333   8.300 -0.3292 -0.0203 -0.6303
  183SOPE  H16R20956   1.621  -0.379   8.322  0.1696  1.0986 -0.4353
  183SOPE  H16S20957   1.446  -0.409   8.330 -1.8392  1.6562 -0.0091
  183SOPE  C21720958   1.509  -0.214   8.400 -0.0846 -0.2409 -0.5365
  183SOPE  H17R20959   1.496  -0.269   8.497  2.2381 -1.3134 -0.7768
  183SOPE  H17S20960   1.412  -0.162   8.382  0.7707  1.1551 -1.2421
  183SOPE  C21820961   1.621  -0.117   8.405 -0.1893  0.7323 -0.0438
  183SOPE  H18R20962   1.712  -0.178   8.424 -0.9236 -0.6987 -0.9811
  183SOPE  H18S20963   1.602  -0.042   8.485 -2.9244  0.9917 -0.8439
  183SOPE  H18T20964   1.626  -0.051   8.316 -0.1087  0.7057 -0.0597
  183SOPE   C3320965   1.711   0.017   7.145  0.6118  0.4533  0.6945
  183SOPE   H3X20966   1.799   0.041   7.081 -0.6189  0.1644 -1.1650
  183SOPE   H3Y20967   1.698  -0.093   7.147  0.9117  0.2643 -2.3468
  183SOPE   C3420968   1.742   0.071   7.287 -0.2316  0.1090 -0.0014
  183SOPE   H4X20969   1.660   0.032   7.352  1.9280 -1.7952  1.7351
  183SOPE   H4Y20970   1.724   0.181   7.283  1.1455  0.4131  1.3473
  183SOPE   C3520971   1.882   0.043   7.347 -0.2696  0.7237 -0.1741
  183SOPE   H5X20972   1.960   0.073   7.274 -2.2908 -2.1058 -3.8440
  183SOPE   H5Y20973   1.877  -0.068   7.341 -1.0351  0.7700 -0.5950
  183SOPE   C3620974   1.916   0.084   7.490  0.1082 -0.4822  0.6601
  183SOPE   H6X20975   1.951   0.189   7.480  0.2828 -0.6749 -1.0728
  183SOPE   H6Y20976   2.002   0.025   7.530  1.5382  1.3694  0.4976
  183SOPE   C3720977   1.808   0.062   7.597 -0.2312  0.0044 -0.3644
  183SOPE   H7X20978   1.779  -0.045   7.602  0.6918 -0.4006 -2.6202
  183SOPE   H7Y20979   1.722   0.127   7.570  0.0485  0.2472 -0.6758
  183SOPE   C3820980   1.835   0.115   7.742 -0.4888 -0.7317 -0.7863
  183SOPE   H8X20981   1.888   0.212   7.742 -2.7537  0.7621  3.1538
  183SOPE   H8Y20982   1.914   0.055   7.792  1.4608  0.4430 -2.3257
  183SOPE   C3920983   1.715   0.138   7.834 -0.6590 -0.5589  0.7362
  183SOPE   H9X20984   1.680   0.041   7.874  1.2446 -2.4453 -1.8649
  183SOPE   H9Y20985   1.636   0.181   7.769  0.6071  0.1739 -0.3696
  183SOPE  C31020986   1.763   0.233   7.953 -0.3472 -0.0419 -0.2543
  183SOPE  H10X20987   1.810   0.326   7.914  1.8765 -1.4509 -1.1614
  183SOPE  H10Y20988   1.830   0.178   8.022  1.8656  0.9124 -1.5284
  183SOPE  C31120989   1.650   0.275   8.045  0.2300  0.2545 -0.5566
  183SOPE  H11X20990   1.612   0.181   8.093  0.7023  0.4008  0.1216
  183SOPE  H11Y20991   1.565   0.305   7.981  0.4622 -1.3238 -1.6625
  183SOPE  C31220992   1.683   0.396   8.136  0.4651  0.3511 -0.2374
  183SOPE  H12X20993   1.582   0.422   8.174 -0.1642 -4.2959  1.9933
  183SOPE  H12Y20994   1.720   0.477   8.071 -1.4660 -0.7834 -2.9564
  183SOPE  C31320995   1.773   0.368   8.252  0.2213 -0.2401 -0.8815
  183SOPE  H13X20996   1.877   0.334   8.231  0.5502 -1.1813  1.8320
  183SOPE  H13Y20997   1.724   0.285   8.307 -1.4787 -0.2107 -2.2613
  183SOPE  C31420998   1.797   0.470   8.361 -0.4589  0.2230 -0.2308
  183SOPE  H14X20999   1.885   0.436   8.420 -1.4373 -0.7614  0.6969
  183SOPE  H14Y21000   1.708   0.474   8.427  1.5266 -0.9921  2.7401
  183SOPE  C31521001   1.846   0.602   8.304 -0.1379  0.6806 -0.7014
  183SOPE  H15X21002   1.762   0.623   8.234 -1.1228  0.7776  0.4898
  183SOPE  H15Y21003   1.937   0.589   8.241  0.7939 -1.1902  0.9163
  183SOPE  C31621004   1.857   0.712   8.407  0.3880 -0.4358  0.2341
  183SOPE  H16X21005   1.758   0.713   8.456  0.1131 -2.0211 -0.2388
  183SOPE  H16Y21006   1.865   0.813   8.362 -0.3613  0.0911  1.2424
  183SOPE  C31721007   1.975   0.686   8.497 -0.1808  0.7248 -0.6620
  183SOPE  H17X21008   2.061   0.655   8.435 -0.4440  1.5381 -1.4557
  183SOPE  H17Y21009   1.944   0.597   8.557 -1.7537  1.5871 -0.1239
  183SOPE  C31821010   2.026   0.802   8.587  0.2876  0.5004  0.4848
  183SOPE  H18X21011   1.933   0.850   8.622 -1.0506 -0.8393 -1.0581
  183SOPE  H18Y21012   2.084   0.876   8.527  0.3901  0.1952  0.2038
  183SOPE  H18Z21013   2.092   0.780   8.673  0.1632  0.6693  0.6227
  184SOPE     N21014   1.158   0.681   6.353  0.3140 -0.8672  0.1861
  184SOPE   HN121015   1.117   0.772   6.382 -1.3651 -0.9275 -1.7473
  184SOPE   HN221016   1.253   0.706   6.319 -0.9063  0.3071 -2.7396
  184SOPE   HN321017   1.102   0.637   6.276  0.3982 -1.8862  0.6885
  184SOPE   C1221018   1.152   0.597   6.476 -0.3916 -0.0722  0.4586
  184SOPE  H12A21019   1.223   0.636   6.553 -1.1660  1.2106  0.5594
  184SOPE  H12B21020   1.185   0.494   6.452  1.0734  0.2012  1.1510
  184SOPE   C1121021   1.010   0.591   6.534 -0.1074  0.2770  0.9276
  184SOPE  H11A21022   0.981   0.697   6.554 -1.0231  0.4504 -0.9967
  184SOPE  H11B21023   1.029   0.527   6.622 -0.0901  0.0578  0.7637
  184SOPE     P21024   0.763   0.571   6.427 -0.0950  0.1562 -0.6937
  184SOPE   O1321025   0.692   0.487   6.332 -0.3906  0.3001  0.0958
  184SOPE   O1421026   0.756   0.717   6.403 -0.1750  0.0421 -0.8087
  184SOPE   O1221027   0.919   0.533   6.441  0.3279  0.2600 -0.3810
  184SOPE   O1121028   0.724   0.540   6.575 -0.0977 -0.2521 -0.4843
  184SOPE    C121029   0.731   0.416   6.634 -0.5696  0.1735 -0.3280
  184SOPE    HA21030   0.809   0.347   6.594  0.1971 -1.5039  3.5986
  184SOPE    HB21031   0.632   0.370   6.617 -1.3213  1.1943  1.1110
  184SOPE    C221032   0.746   0.434   6.788  0.1397  0.1936  0.2277
  184SOPE    HS21033   0.683   0.514   6.832 -0.0999 -0.4960  1.1672
  184SOPE   O2121034   0.885   0.456   6.815 -0.2181  0.5993  0.0771
  184SOPE   C2121035   0.918   0.544   6.912  0.2114  0.0667 -0.2533
  184SOPE   O2221036   0.839   0.589   6.995 -0.6735 -0.1231  0.0296
  184SOPE   C2221037   1.062   0.584   6.888  0.3478 -0.0193 -0.4263
  184SOPE   H2R21038   1.076   0.648   6.798  0.4253  3.1433  1.6658
  184SOPE   H2S21039   1.122   0.491   6.878 -0.4209 -0.5095 -0.5678
  184SOPE    C321040   0.704   0.306   6.866 -0.4504  0.1088  0.5719
  184SOPE    HX21041   0.772   0.222   6.840 -0.2002  1.2221 -2.8518
  184SOPE    HY21042   0.607   0.275   6.823  1.1305 -1.6465 -2.0721
  184SOPE   O3121043   0.687   0.325   7.010  0.6715 -0.2572  0.0635
  184SOPE   C3121044   0.795   0.304   7.090 -0.4052 -0.1274  0.1900
  184SOPE   O3221045   0.898   0.249   7.057  0.1160 -0.7259  0.1567
  184SOPE   C3221046   0.750   0.339   7.229 -0.7173  0.1795 -0.1402
  184SOPE   H2X21047   0.643   0.308   7.237 -0.7472  0.2911 -0.1024
  184SOPE   H2Y21048   0.743   0.450   7.235 -1.1733  0.1813 -0.5997
  184SOPE   C2321049   1.114   0.656   7.016  0.2017  0.3229  0.0875
  184SOPE   H3R21050   1.048   0.744   7.026 -2.5118 -1.7945  2.2072
  184SOPE   H3S21051   1.219   0.683   6.991  0.5107 -0.7917  0.1388
  184SOPE   C2421052   1.116   0.566   7.144 -0.2316  0.0382 -0.6638
  184SOPE   H4R21053   1.012   0.550   7.178 -0.9469 -1.3725 -3.2614
  184SOPE   H4S21054   1.154   0.464   7.124  1.0415  0.6971 -1.8283
  184SOPE   C2521055   1.204   0.625   7.263  0.1449  0.1738  0.2354
  184SOPE   H5R21056   1.312   0.620   7.239 -0.2083 -1.0954 -1.3273
  184SOPE   H5S21057   1.170   0.731   7.271  0.9531  0.5059 -0.5573
  184SOPE   C2621058   1.176   0.551   7.396 -0.1237 -0.6369  0.9440
  184SOPE   H6R21059   1.225   0.608   7.478 -2.2819  3.3125 -0.2570
  184SOPE   H6S21060   1.068   0.547   7.425 -0.7935  0.4270 -1.1511
  184SOPE   C2721061   1.237   0.406   7.400  0.0506  0.1920  0.1670
  184SOPE   H7R21062   1.179   0.355   7.320  0.3759 -0.4003  0.3098
  184SOPE   H7S21063   1.344   0.409   7.372 -0.2780  0.4401 -1.1684
  184SOPE   C2821064   1.202   0.336   7.531 -0.2541 -0.7320 -0.4466
  184SOPE   H8R21065   1.233   0.400   7.616 -0.8563  0.2355 -0.9460
  184SOPE   H8S21066   1.092   0.342   7.542 -0.3345  0.4636 -1.7181
  184SOPE   C2921067   1.265   0.197   7.535  0.6073  0.2026 -0.0317
  184SOPE   H9121068   1.287   0.154   7.437 -2.5477 -1.1583 -0.2458
  184SOPE  C21021069   1.284   0.120   7.646 -0.0849 -0.1187 -0.8549
  184SOPE  H10121070   1.323   0.018   7.635  2.4350  0.3412  2.3966
  184SOPE  C21121071   1.239   0.153   7.790  0.5699  0.5137  0.2846
  184SOPE  H11R21072   1.157   0.228   7.798  2.3836  2.7153 -0.5409
  184SOPE  H11S21073   1.326   0.206   7.833  1.2213 -0.4709  0.1898
  184SOPE  C21221074   1.196   0.032   7.872  0.2256  0.1789  0.2871
  184SOPE  H12R21075   1.269  -0.051   7.884 -1.4552 -1.4504 -0.4368
  184SOPE  H12S21076   1.124  -0.023   7.809  0.6832  0.6763 -0.6927
  184SOPE  C21321077   1.146   0.073   8.011  0.3602  0.5159 -0.4031
  184SOPE  H13R21078   1.077  -0.002   8.057  0.0643  1.3859  0.6180
  184SOPE  H13S21079   1.079   0.161   8.001 -2.0966 -1.3604 -1.7707
  184SOPE  C21421080   1.261   0.118   8.106 -0.0852 -0.2426 -1.2026
  184SOPE  H14R21081   1.306   0.217   8.081  2.8551 -0.0291  3.6284
  184SOPE  H14S21082   1.337   0.037   8.106 -0.8553 -0.9700 -0.2803
  184SOPE  C21521083   1.232   0.153   8.260  0.6067 -0.0747 -0.5809
  184SOPE  H15R21084   1.202   0.061   8.313  2.0406  1.4572  3.2059
  184SOPE  H15S21085   1.145   0.220   8.275 -0.7839 -2.0159  0.5458
  184SOPE  C21621086   1.350   0.215   8.338 -0.1598  0.1311 -0.3909
  184SOPE  H16R21087   1.400   0.284   8.267  0.3608 -0.7480 -0.9106
  184SOPE  H16S21088   1.414   0.128   8.366 -2.4119 -1.5195 -0.1419
  184SOPE  C21721089   1.309   0.303   8.459 -0.1407 -0.0698 -0.0128
  184SOPE  H17R21090   1.299   0.223   8.535 -0.0459 -2.0295 -1.9343
  184SOPE  H17S21091   1.220   0.364   8.434 -0.8554 -0.9153  0.4320
  184SOPE  C21821092   1.408   0.406   8.513  0.4807 -0.0844 -0.0840
  184SOPE  H18R21093   1.508   0.358   8.515  0.1255 -0.8258  0.2148
  184SOPE  H18S21094   1.369   0.440   8.611 -0.4454 -0.0059 -0.4774
  184SOPE  H18T21095   1.412   0.498   8.451 -0.1557  0.5868  0.8332
  184SOPE   C3321096   0.840   0.287   7.348  0.3745 -0.5716 -0.2222
  184SOPE   H3X21097   0.939   0.336   7.358  1.3832 -2.5126 -0.2249
  184SOPE   H3Y21098   0.855   0.177   7.345  0.1894 -0.5835 -0.9265
  184SOPE   C3421099   0.760   0.310   7.480 -0.3513 -0.7003  0.0818
  184SOPE   H4X21100   0.664   0.256   7.481 -1.1091  0.6142  0.4108
  184SOPE   H4Y21101   0.730   0.417   7.480 -0.7811 -0.7648  2.3207
  184SOPE   C3521102   0.847   0.273   7.605 -0.1573 -0.0669  0.5443
  184SOPE   H5X21103   0.900   0.366   7.637 -3.1889  1.9472  0.0835
  184SOPE   H5Y21104   0.917   0.189   7.587  1.1629  1.6263 -3.1995
  184SOPE   C3621105   0.744   0.248   7.721  0.2753 -0.6798 -0.9866
  184SOPE   H6X21106   0.724   0.140   7.730  1.0208 -0.6750  1.5407
  184SOPE   H6Y21107   0.645   0.297   7.705  0.6033  0.3529 -0.0202
  184SOPE   C3721108   0.798   0.301   7.855  0.0177  0.3411  0.0178
  184SOPE   H7X21109   0.804   0.408   7.824  0.9929  0.0086 -1.0367
  184SOPE   H7Y21110   0.901   0.262   7.873  0.0914  0.3745 -0.3139
  184SOPE   C3821111   0.717   0.274   7.988 -0.5626 -0.3904  0.1333
  184SOPE   H8X21112   0.729   0.166   8.011  3.0525 -0.6649 -2.2189
  184SOPE   H8Y21113   0.613   0.296   7.954 -0.4959  0.6104  0.5677
  184SOPE   C3921114   0.748   0.352   8.115 -0.1437  0.3213 -0.9255
  184SOPE   H9X21115   0.726   0.459   8.093 -1.4462  0.7179  1.8234
  184SOPE   H9Y21116   0.854   0.347   8.149 -1.2702 -0.7569  2.9696
  184SOPE  C31021117   0.648   0.312   8.234 -0.2801  0.7374  0.0121
  184SOPE  H10X21118   0.550   0.335   8.187 -0.8654 -1.1622  0.2115
  184SOPE  H10Y21119   0.662   0.385   8.317 -0.7501  1.4776 -0.5555
  184SOPE  C31121120   0.657   0.171   8.281 -0.7171  0.2546  0.7412
  184SOPE  H11X21121   0.762   0.136   8.280 -0.6659  0.3692  1.3591
  184SOPE  H11Y21122   0.586   0.097   8.239 -1.6760  0.5198  1.8338
  184SOPE  C31221123   0.634   0.161   8.428 -0.2374  0.1136 -0.3635
  184SOPE  H12X21124   0.681   0.242   8.488  1.4232  0.2982 -1.8523
  184SOPE  H12Y21125   0.662   0.061   8.466 -2.2103  0.3807  2.0899
  184SOPE  C31321126   0.483   0.180   8.471 -0.2940  0.4872 -0.0096
  184SOPE  H13X21127   0.428   0.092   8.431 -1.7128  1.4891 -0.3248
  184SOPE  H13Y21128   0.437   0.266   8.419 -1.1830 -1.0415 -1.8943
  184SOPE  C31421129   0.457   0.187   8.624  0.0558 -0.7030  0.0034
  184SOPE  H14X21130   0.353   0.208   8.657  0.6673  0.3290  1.3602
  184SOPE  H14Y21131   0.520   0.273   8.655 -0.0515 -0.6369  0.0384
  184SOPE  C31521132   0.509   0.061   8.698  0.8068  0.0548  0.0675
  184SOPE  H15X21133   0.599   0.017   8.650  0.2126 -0.8858 -0.2117
  184SOPE  H15Y21134   0.431  -0.018   8.693 -1.1678  1.8578  0.7702
  184SOPE  C31621135   0.562   0.092   8.839 -0.5562 -0.2461 -0.8692
  184SOPE  H16X21136   0.599   0.196   8.828  1.2164 -0.8350 -0.7566
  184SOPE  H16Y21137   0.651   0.032   8.865  1.2390  2.1320 -1.1161
  184SOPE  C31721138   0.453   0.079   8.946  0.0071  0.4008 -0.7387
  184SOPE  H17X21139   0.443  -0.028   8.972 -0.6690  0.3602 -1.1319
  184SOPE  H17Y21140   0.356   0.119   8.908 -0.8866 -1.5121 -0.5856
  184SOPE  C31821141   0.496   0.147   9.079  0.2552 -0.5621 -0.0535
  184SOPE  H18X21142   0.497   0.257   9.063  0.0373 -0.5482  0.0309
  184SOPE  H18Y21143   0.595   0.108   9.111 -1.1641 -1.4347  3.8525
  184SOPE  H18Z21144   0.417   0.133   9.156  0.7958 -2.2065  0.2372
  185SAPI   C1221145   0.215   2.313  10.633 -0.3270 -0.2048  0.0249
  185SAPI    H221146   0.186   2.240  10.711  0.8801  0.0618  0.7545
  185SAPI    O221147   0.171   2.442  10.666  0.1231  0.2197 -0.1642
  185SAPI   HO221148   0.077   2.454  10.676  0.1577  2.6486 -1.7479
  185SAPI   C1321149   0.365   2.305  10.621  0.5426 -1.0943  0.0615
  185SAPI    H321150   0.394   2.202  10.593 -2.3831 -1.5997 -1.6135
  185SAPI    O321151   0.430   2.318  10.748 -0.2177 -0.0461  0.0036
  185SAPI   HO321152   0.398   2.396  10.794  0.3447 -0.1886  0.6545
  185SAPI   C1421153   0.417   2.402  10.515  0.0606 -0.6282 -0.2897
  185SAPI    H421154   0.417   2.505  10.558 -0.7634 -0.7558  0.0340
  185SAPI    O421155   0.553   2.370  10.481 -0.1521 -0.7409 -0.4357
  185SAPI   HO421156   0.601   2.417  10.551 -0.1548 -1.4827  0.0736
  185SAPI   C1521157   0.334   2.427  10.384  0.0671 -0.5402 -0.7086
  185SAPI    H521158   0.368   2.353  10.308 -0.8871  0.6035 -2.3187
  185SAPI    O521159   0.358   2.556  10.332 -0.6472 -0.2708 -0.3472
  185SAPI   HO521160   0.352   2.547  10.237 -0.8694 -0.8932 -0.2769
  185SAPI   C1621161   0.185   2.381  10.397  0.7440  0.6633  0.4716
  185SAPI    H621162   0.118   2.463  10.428  0.6480  0.1180  1.7952
  185SAPI    O621163   0.134   2.338  10.269 -0.3337  0.0176 -0.4184
  185SAPI   HO621164   0.085   2.257  10.284 -3.1821  1.4945 -1.0984
  185SAPI   C1121165   0.166   2.265  10.494 -0.8492 -0.2713  0.2972
  185SAPI    H121166   0.226   2.185  10.447  2.8819  2.7232 -0.6124
  185SAPI     P21167  -0.029   2.101  10.476  0.2916 -0.0625 -0.5702
  185SAPI   O1321168  -0.179   2.089  10.510 -0.6719  0.7077  1.3532
  185SAPI   O1421169   0.061   1.998  10.532 -0.1368 -0.3069 -0.0316
  185SAPI   O1221170   0.027   2.243  10.514  0.2680 -0.5709  0.1823
  185SAPI   O1121171  -0.014   2.106  10.322  0.0918  0.1858  0.5978
  185SAPI    C121172   0.017   1.982  10.255  0.4215  0.0229 -0.5057
  185SAPI    HA21173   0.122   1.949  10.265  0.6523  0.6716 -0.7168
  185SAPI    HB21174  -0.044   1.899  10.295 -0.2434  0.3755 -0.7584
  185SAPI    C221175  -0.028   1.987  10.104 -0.4943  0.0419  0.3567
  185SAPI    HS21176   0.017   1.895  10.060  0.5501  0.5444  0.3406
  185SAPI   O2121177   0.028   2.105  10.038 -0.4407  0.2309 -0.9137
  185SAPI   C2121178   0.155   2.099  10.011  0.2359 -0.2272  0.2070
  185SAPI   O2221179   0.235   2.008  10.024  0.8088  0.5366 -0.0621
  185SAPI   C2221180   0.204   2.234   9.946 -0.2271  0.7278 -0.7972
  185SAPI   H2R21181   0.112   2.291   9.920 -0.1477  1.0522 -0.3898
  185SAPI   H2S21182   0.238   2.296  10.032  0.0557 -0.5299  0.0364
  185SAPI    C321183  -0.181   1.987  10.090  0.2848 -0.3693 -0.0267
  185SAPI    HX21184  -0.201   2.085  10.138  0.9739  0.2122 -0.8866
  185SAPI    HY21185  -0.241   1.914  10.149 -0.1460  0.3460  0.4326
  185SAPI   O3121186  -0.225   1.984   9.952  0.1997  0.3120 -0.0065
  185SAPI   C3121187  -0.348   2.030   9.934  1.0280 -0.1353  0.0240
  185SAPI   O3221188  -0.424   2.075  10.019 -0.1021  0.5047 -0.1207
  185SAPI   C3221189  -0.382   2.021   9.782  0.4341 -0.1682 -0.3764
  185SAPI   H2X21190  -0.405   2.127   9.754 -0.9316 -0.0488  1.0726
  185SAPI   H2Y21191  -0.470   1.954   9.780 -0.0142  0.1581  2.9567
  185SAPI   C2321192   0.320   2.226   9.851  0.2488  0.5103  0.5507
  185SAPI   H3R21193   0.413   2.175   9.885 -1.4306 -0.9270  3.3242
  185SAPI   H3S21194   0.352   2.331   9.831 -1.4140  0.7666 -1.0383
  185SAPI   C2421195   0.287   2.148   9.720 -0.5302  0.1823 -0.8253
  185SAPI   H4R21196   0.244   2.048   9.742  0.5487 -0.3556 -1.1306
  185SAPI   H4S21197   0.384   2.126   9.672  1.0186  2.5451  0.9980
  185SAPI   C2521198   0.194   2.227   9.639 -0.3202  0.1152 -0.4836
  185SAPI   H5R21199   0.135   2.307   9.685 -1.4264 -1.8583  1.7883
  185SAPI   C2621200   0.186   2.208   9.505 -0.3911 -0.5320  0.0907
  185SAPI   H6R21201   0.132   2.277   9.439  2.5649  0.1687 -1.7951
  185SAPI   C2721202   0.258   2.102   9.423  0.1158  0.0397 -0.4769
  185SAPI   H7R21203   0.186   2.042   9.363 -1.7587  3.5486 -2.0458
  185SAPI   H7S21204   0.321   2.036   9.486  0.6914  1.8128  0.9145
  185SAPI   C2821205   0.356   2.169   9.332  0.3522 -0.0614 -0.2706
  185SAPI   H8R21206   0.441   2.229   9.366  1.9198 -0.2577 -3.4554
  185SAPI   C2921207   0.346   2.171   9.196 -0.2999 -0.3713 -0.2764
  185SAPI   H9R21208   0.414   2.237   9.141  0.4043  0.0945  1.0899
  185SAPI  C21021209   0.241   2.105   9.112  0.0903  0.2817 -0.2459
  185SAPI  H10R21210   0.150   2.169   9.107  0.9567  1.5087 -1.0219
  185SAPI  H10S21211   0.207   2.010   9.159 -0.0002  0.1512 -0.5682
  185SAPI  C21121212   0.286   2.079   8.969  0.1495  0.4159  0.7627
  185SAPI  H11R21213   0.395   2.079   8.959  0.0744  2.3984 -0.5611
  185SAPI  C21221214   0.214   2.055   8.852  0.4941  0.0390 -0.0736
  185SAPI  H12R21215   0.274   2.045   8.760  1.4528 -0.2310  0.5620
  185SAPI  C21321216   0.066   2.048   8.838 -0.0826  0.2280 -0.2146
  185SAPI  H13R21217   0.021   2.134   8.783 -0.7876  0.0585  0.0945
  185SAPI  H13S21218   0.032   2.046   8.943  3.2259  0.3648  0.9823
  185SAPI  C21421219   0.043   1.910   8.782 -0.5056 -0.1964 -0.5077
  185SAPI  H14R21220   0.062   1.831   8.856 -0.5152 -0.2310 -0.5430
  185SAPI  C21521221   0.008   1.878   8.658  0.5329  0.4732 -0.0608
  185SAPI  H15R21222  -0.003   1.770   8.638  1.0461  0.2598  0.7847
  185SAPI  C21621223   0.004   1.969   8.536  0.0437  0.4198 -0.5573
  185SAPI  H16R21224   0.030   2.071   8.573 -0.1729  1.1990 -2.4300
  185SAPI  H16S21225  -0.103   1.989   8.513  0.3723  0.1088 -2.5906
  185SAPI  C21721226   0.079   1.927   8.406  0.5818 -0.1730  0.0910
  185SAPI  H17R21227   0.070   1.999   8.322  1.7212 -1.9885 -1.6904
  185SAPI  H17S21228   0.016   1.838   8.382 -0.7599  0.3800  1.4490
  185SAPI  C21821229   0.220   1.888   8.429  0.5253 -0.3430 -0.3658
  185SAPI  H18R21230   0.215   1.808   8.506 -1.7229  1.0677  1.0744
  185SAPI  H18S21231   0.277   1.964   8.485 -0.8736  0.0958  0.5210
  185SAPI  C21921232   0.286   1.842   8.304 -0.9716  0.8048  0.0043
  185SAPI  H19R21233   0.226   1.762   8.256 -1.4623  1.8745 -1.2258
  185SAPI  H19S21234   0.389   1.805   8.322 -1.1764 -0.0122 -0.4322
  185SAPI  C22021235   0.304   1.956   8.202  0.2376 -0.2462 -0.1730
  185SAPI  H20R21236   0.390   1.957   8.131  0.0051 -2.2116 -0.5293
  185SAPI  H20S21237   0.311   2.054   8.255  1.5787  0.2272 -1.1599
  185SAPI  H20T21238   0.205   1.970   8.155 -0.1170 -1.0000  0.3233
  185SAPI   C3321239  -0.271   1.957   9.697 -0.2553 -1.1509 -0.5566
  185SAPI   H3X21240  -0.265   1.851   9.731 -1.2568 -0.3800  2.3127
  185SAPI   H3Y21241  -0.172   2.004   9.716 -0.3039 -0.6604 -1.4696
  185SAPI   C3421242  -0.298   1.982   9.552  0.0780 -0.1446  0.5454
  185SAPI   H4X21243  -0.308   2.091   9.536 -1.0241 -0.1464  1.1062
  185SAPI   H4Y21244  -0.387   1.927   9.514  1.6930 -2.2266 -0.4545
  185SAPI   C3521245  -0.174   1.957   9.468  0.2795  1.0609  0.3593
  185SAPI   H5X21246  -0.088   1.995   9.526  0.0247  1.9412  0.1759
  185SAPI   H5Y21247  -0.182   2.017   9.374 -0.2137 -0.1021 -0.3720
  185SAPI   C3621248  -0.153   1.813   9.417 -0.7980  0.0963 -0.3051
  185SAPI   H6X21249  -0.251   1.793   9.369 -3.2931  1.1640  3.8230
  185SAPI   H6Y21250  -0.153   1.751   9.509 -0.3264 -0.2975 -0.5648
  185SAPI   C3721251  -0.032   1.795   9.324 -0.7003 -0.2920 -0.4553
  185SAPI   H7X21252  -0.028   1.685   9.312  2.2346 -0.4375  0.9847
  185SAPI   H7Y21253   0.067   1.823   9.368 -0.6372 -1.3846  0.1433
  185SAPI   C3821254  -0.041   1.857   9.189  0.2096 -0.2653  0.0116
  185SAPI   H8X21255   0.046   1.809   9.139  0.6610  0.0643  0.4621
  185SAPI   H8Y21256  -0.027   1.967   9.192 -1.7433  0.0049  2.5156
  185SAPI   C3921257  -0.162   1.808   9.105  0.1138  0.0689 -0.3608
  185SAPI   H9X21258  -0.167   1.870   9.013  1.2997 -1.3736 -1.4480
  185SAPI   H9Y21259  -0.255   1.817   9.165 -0.7350 -1.3087 -1.3870
  185SAPI  C31021260  -0.143   1.662   9.053  0.5313  0.1803  0.5068
  185SAPI  H10X21261  -0.116   1.587   9.131  2.4154  1.0282  0.7267
  185SAPI  H10Y21262  -0.061   1.661   8.978 -1.8329 -1.0554 -2.2635
  185SAPI  C31121263  -0.269   1.615   8.993  0.0501 -0.2605  0.3174
  185SAPI  H11X21264  -0.327   1.684   8.928  0.1666 -2.3135 -2.1061
  185SAPI  H11Y21265  -0.325   1.586   9.084 -0.7657 -2.3598 -0.7974
  185SAPI  C31221266  -0.237   1.501   8.903  0.0907 -0.2142  0.1939
  185SAPI  H12X21267  -0.169   1.426   8.948 -2.0321 -2.2496  0.1790
  185SAPI  H12Y21268  -0.162   1.538   8.830 -0.3495  1.2560  0.4558
  185SAPI  C31321269  -0.356   1.444   8.834  0.0219 -0.1513  0.0013
  185SAPI  H13X21270  -0.406   1.534   8.793  2.2379  0.3686 -1.7697
  185SAPI  H13Y21271  -0.416   1.397   8.914  1.1666 -1.8435 -0.0723
  185SAPI  C31421272  -0.322   1.340   8.721  0.5486  0.0740 -0.6760
  185SAPI  H14X21273  -0.407   1.278   8.686  0.2258 -0.4540  0.9330
  185SAPI  H14Y21274  -0.259   1.268   8.778  0.4237  0.9703  0.6453
  185SAPI  C31521275  -0.243   1.404   8.602 -0.2054 -0.1493  0.2519
  185SAPI  H15X21276  -0.207   1.315   8.545 -0.9905 -0.9407  0.9485
  185SAPI  H15Y21277  -0.156   1.463   8.639 -1.1874  1.0060  0.7735
  185SAPI  C31621278  -0.314   1.494   8.507 -0.3021  0.1018  0.6509
  185SAPI  H16X21279  -0.231   1.527   8.440  0.5444 -1.8604  0.6421
  185SAPI  H16Y21280  -0.359   1.584   8.554 -0.2964 -0.1834  1.2013
  185SAPI  C31721281  -0.417   1.426   8.411 -0.2474 -0.4665  0.3298
  185SAPI  H17X21282  -0.450   1.506   8.341  0.7537  1.2327  1.7290
  185SAPI  H17Y21283  -0.499   1.387   8.476  0.0120  0.3600  1.1606
  185SAPI  C31821284  -0.366   1.314   8.321  0.0151 -0.3425 -0.8899
  185SAPI  H18X21285  -0.349   1.228   8.389  0.2743 -0.8538 -1.5938
  185SAPI  H18Y21286  -0.281   1.337   8.253 -0.5293 -3.1585 -2.6584
  185SAPI  H18Z21287  -0.449   1.276   8.259 -1.3275 -0.1103  0.7061
  186SAPI   C1221288   6.393   0.401  11.335 -0.5374 -0.2997  0.3911
  186SAPI    H221289   6.300   0.374  11.280 -0.2722  2.0750 -1.3563
  186SAPI    O221290   6.378   0.527  11.397  0.1916  0.4983  0.3449
  186SAPI   HO221291   6.306   0.571  11.351 -1.2262 -2.0517 -0.0276
  186SAPI   C1321292   6.415   0.297  11.435 -0.0597 -0.0157  0.2208
  186SAPI    H321293   6.436   0.200  11.385 -1.4271  0.2600 -0.9546
  186SAPI    O321294   6.298   0.261  11.509  0.4686  0.2714  0.2594
  186SAPI   HO321295   6.268   0.334  11.564 -0.1372  0.0534  0.2304
  186SAPI   C1421296   6.531   0.329  11.528  0.2278  0.3888 -0.0902
  186SAPI    H421297   6.482   0.415  11.577 -0.3451  0.8932 -1.5016
  186SAPI    O421298   6.564   0.226  11.626  0.3877 -0.0940  0.3688
  186SAPI   HO421299   6.578   0.266  11.712  2.5417 -0.2633  0.1373
  186SAPI   C1521300   6.657   0.380  11.458 -0.3360 -0.0802 -0.6295
  186SAPI    H521301   6.709   0.283  11.444 -0.9458 -0.4703 -0.2576
  186SAPI    O521302   6.732   0.459  11.550 -0.2226  0.2105 -0.2100
  186SAPI   HO521303   6.668   0.529  11.567 -1.6264 -1.2825  0.9762
  186SAPI   C1621304   6.650   0.436  11.314 -0.0783 -0.0661 -0.4666
  186SAPI    H621305   6.647   0.547  11.321  0.2750 -0.0234 -0.9924
  186SAPI    O621306   6.767   0.401  11.245  0.7178 -0.1812  0.3222
  186SAPI   HO621307   6.799   0.483  11.208 -0.0206  0.6753  1.5334
  186SAPI   C1121308   6.518   0.409  11.241  0.1871  0.1044  0.3390
  186SAPI    H121309   6.545   0.312  11.194  2.0580  0.6421  0.1897
  186SAPI     P21310   6.405   0.473  11.007 -0.4366 -0.0757 -0.1143
  186SAPI   O1321311   6.341   0.604  10.971  0.1183 -0.8261 -0.5969
  186SAPI   O1421312   6.312   0.353  11.039 -0.4499 -0.7031  0.0033
  186SAPI   O1221313   6.504   0.502  11.137  0.4285 -0.8288  0.0325
  186SAPI   O1121314   6.510   0.435  10.897 -0.1310 -0.5782 -0.0420
  186SAPI    C121315   6.628   0.513  10.871 -0.9490  0.3767  0.1004
  186SAPI    HA21316   6.610   0.612  10.918 -0.5059 -0.0817  1.2814
  186SAPI    HB21317   6.722   0.476  10.916 -0.2517 -0.9449 -2.2657
  186SAPI    C221318   6.658   0.534  10.718 -0.3149  0.1269  0.0241
  186SAPI    HS21319   6.568   0.579  10.670  0.1904  0.3006 -0.7570
  186SAPI   O2121320   6.704   0.414  10.655  0.0984 -0.5103 -0.0052
  186SAPI   C2121321   6.657   0.390  10.531 -0.1747  0.4764 -0.2206
  186SAPI   O2221322   6.584   0.457  10.458 -0.0589  0.0526  0.1454
  186SAPI   C2221323   6.700   0.248  10.493  0.0182 -0.2860  0.8648
  186SAPI   H2R21324   6.807   0.243  10.523  0.1211 -0.0821  0.5381
  186SAPI   H2S21325   6.650   0.184  10.569  1.6953 -1.0625  1.3446
  186SAPI    C321326   6.773   0.637  10.698 -0.3562 -0.0191 -0.5459
  186SAPI    HX21327   6.864   0.592  10.743  0.0603  1.3699  0.0440
  186SAPI    HY21328   6.752   0.730  10.754  0.3186 -0.4104  0.3825
  186SAPI   O3121329   6.795   0.646  10.554 -0.7627  0.5233  0.1741
  186SAPI   C3121330   6.716   0.743  10.502  0.2533  0.3703  0.6797
  186SAPI   O3221331   6.642   0.820  10.565  0.8679  0.6438  0.8758
  186SAPI   C3221332   6.731   0.730  10.356  0.2248  0.0331  0.1059
  186SAPI   H2X21333   6.715   0.628  10.315 -0.5681  0.3928 -0.5193
  186SAPI   H2Y21334   6.830   0.775  10.334 -1.2933  2.5388 -2.3547
  186SAPI   C2321335   6.672   0.199  10.346  0.0099  0.3383 -0.5336
  186SAPI   H3R21336   6.675   0.292  10.286  0.0399  2.0484  2.0166
  186SAPI   H3S21337   6.564   0.173  10.337 -0.1596  0.2560  1.3879
  186SAPI   C2421338   6.764   0.088  10.300 -0.1732 -0.5448  0.7352
  186SAPI   H4R21339   6.866   0.128  10.320 -0.8632  3.0804 -1.9847
  186SAPI   H4S21340   6.747   0.088  10.190  0.2668 -2.6359  0.6313
  186SAPI   C2521341   6.735  -0.047  10.362  0.3471  0.1598 -0.0173
  186SAPI   H5R21342   6.792  -0.056  10.456  0.8552 -1.5980 -0.4511
  186SAPI   C2621343   6.653  -0.146  10.317 -0.1542  0.3666  0.6738
  186SAPI   H6R21344   6.646  -0.246  10.361  1.8359  0.0480  0.3417
  186SAPI   C2721345   6.573  -0.139  10.192  0.1182  0.4773  0.5793
  186SAPI   H7R21346   6.524  -0.040  10.176  1.7179  0.9251 -2.1194
  186SAPI   H7S21347   6.488  -0.212  10.195 -0.2808  0.9174  0.2296
  186SAPI   C2821348   6.665  -0.176  10.074  0.5935  0.8036  0.1823
  186SAPI   H8R21349   6.740  -0.255  10.093 -0.5989 -0.5686 -0.5973
  186SAPI   C2921350   6.644  -0.153   9.942  0.4218 -0.5126 -0.2813
  186SAPI   H9R21351   6.723  -0.197   9.880  1.4580 -0.8769  1.2472
  186SAPI  C21021352   6.540  -0.059   9.887 -0.4382  0.2423  0.1089
  186SAPI  H10R21353   6.449  -0.051   9.950  0.2211  2.1713  0.8743
  186SAPI  H10S21354   6.498  -0.092   9.790  0.4323  2.8729 -1.2552
  186SAPI  C21121355   6.580   0.082   9.866 -0.2367 -0.5031 -0.1974
  186SAPI  H11R21356   6.595   0.130   9.963  1.0750  0.1355 -0.6880
  186SAPI  C21221357   6.585   0.146   9.752  0.6236  0.3378 -0.1587
  186SAPI  H12R21358   6.606   0.254   9.754 -1.3645  0.7737 -0.7826
  186SAPI  C21321359   6.571   0.087   9.615  0.2353  0.1737  0.6421
  186SAPI  H13R21360   6.623  -0.011   9.618 -1.1515 -0.5869  0.9567
  186SAPI  H13S21361   6.620   0.153   9.541  0.7192 -1.4449 -0.5228
  186SAPI  C21421362   6.433   0.061   9.568  0.0982 -0.4289 -0.8211
  186SAPI  H14R21363   6.364   0.038   9.651  1.1796 -1.3936 -0.1577
  186SAPI  C21521364   6.395   0.041   9.443 -0.4727  0.2577 -0.1624
  186SAPI  H15R21365   6.287   0.034   9.422 -0.2958  0.4675 -1.2262
  186SAPI  C21621366   6.484   0.040   9.315  0.8503 -0.3963  0.1848
  186SAPI  H16R21367   6.589   0.068   9.333  0.5587  0.7018  0.2293
  186SAPI  H16S21368   6.437   0.103   9.236 -0.0750 -2.2242 -0.7849
  186SAPI  C21721369   6.491  -0.101   9.260 -0.0430  0.8735 -0.0836
  186SAPI  H17R21370   6.388  -0.144   9.254  0.0098  0.7418 -0.0588
  186SAPI  H17S21371   6.560  -0.169   9.314  0.1090 -0.4513 -1.8538
  186SAPI  C21821372   6.538  -0.107   9.108  0.8656  0.0457 -0.3451
  186SAPI  H18R21373   6.616  -0.028   9.114 -0.6974  1.5800  0.7604
  186SAPI  H18S21374   6.456  -0.057   9.052  0.6478 -0.4563 -0.4780
  186SAPI  C21921375   6.566  -0.251   9.049  0.2090 -0.2172  0.4239
  186SAPI  H19R21376   6.481  -0.318   9.074 -0.5763  1.2579  1.9674
  186SAPI  H19S21377   6.657  -0.296   9.095  0.6328  0.8509  0.6621
  186SAPI  C22021378   6.582  -0.254   8.895  0.2651 -0.8922  0.1616
  186SAPI  H20R21379   6.643  -0.164   8.872 -0.6203 -0.7281 -1.6944
  186SAPI  H20S21380   6.483  -0.234   8.848  1.0040  0.1560 -1.0081
  186SAPI  H20T21381   6.628  -0.349   8.862  1.5578 -0.1574 -0.2378
  186SAPI   C3321382   6.629   0.820  10.280  0.1571 -0.4623 -0.8950
  186SAPI   H3X21383   6.643   0.926  10.310 -0.3419 -0.3779 -0.9480
  186SAPI   H3Y21384   6.527   0.785  10.307 -0.0239  1.2282  0.8177
  186SAPI   C3421385   6.642   0.786  10.133 -0.0229  0.0947  0.0245
  186SAPI   H4X21386   6.601   0.684  10.117 -1.8292  0.7478  0.1896
  186SAPI   H4Y21387   6.747   0.769  10.100 -0.2472 -1.8042  0.1828
  186SAPI   C3521388   6.565   0.887  10.039 -0.4487 -0.2757 -0.7409
  186SAPI   H5X21389   6.601   0.990  10.059  2.2655 -1.5142  1.6434
  186SAPI   H5Y21390   6.461   0.878  10.076  0.1158 -3.9054  0.3976
  186SAPI   C3621391   6.588   0.852   9.891 -0.4867  0.5218  0.2708
  186SAPI   H6X21392   6.574   0.743   9.872 -1.0653  0.4379  1.1249
  186SAPI   H6Y21393   6.693   0.876   9.864  0.0830 -0.2594  1.7159
  186SAPI   C3721394   6.485   0.919   9.794  0.4378  0.0301 -0.0077
  186SAPI   H7X21395   6.496   1.029   9.791  3.0045 -0.1926 -1.7724
  186SAPI   H7Y21396   6.386   0.892   9.837  0.2037 -0.1536 -0.6403
  186SAPI   C3821397   6.495   0.872   9.651 -0.4092 -0.1685 -0.7907
  186SAPI   H8X21398   6.492   0.763   9.628  1.7854 -0.7371  1.2421
  186SAPI   H8Y21399   6.599   0.898   9.620  0.2665  2.1173  2.8307
  186SAPI   C3921400   6.390   0.934   9.562  0.6448 -0.8361 -0.6872
  186SAPI   H9X21401   6.404   1.044   9.557  1.2563 -0.5995  3.2148
  186SAPI   H9Y21402   6.289   0.922   9.607  0.8148  0.0611 -0.0459
  186SAPI  C31021403   6.396   0.895   9.415 -0.2210  0.1978 -0.1403
  186SAPI  H10X21404   6.405   0.784   9.408  2.0580  0.4443 -2.7385
  186SAPI  H10Y21405   6.489   0.938   9.372 -0.2126  1.8036  1.3526
  186SAPI  C31121406   6.273   0.951   9.331 -0.0160 -0.3427 -0.3181
  186SAPI  H11X21407   6.238   1.050   9.366 -2.1226 -1.5516  1.1715
  186SAPI  H11Y21408   6.183   0.887   9.340  0.5067 -1.2929 -1.5141
  186SAPI  C31221409   6.298   0.958   9.181  0.2818 -0.2162 -0.0187
  186SAPI  H12X21410   6.290   0.855   9.140  0.8589 -0.3632  0.2378
  186SAPI  H12Y21411   6.406   0.985   9.172  0.2727 -0.5273 -1.2816
  186SAPI  C31321412   6.203   1.053   9.095 -0.4871 -0.4578 -0.3641
  186SAPI  H13X21413   6.225   1.159   9.118 -0.9623 -0.7402  1.5796
  186SAPI  H13Y21414   6.102   1.037   9.139 -0.5489 -1.4230 -0.8330
  186SAPI  C31421415   6.205   1.017   8.943 -0.3425  0.2507 -0.1243
  186SAPI  H14X21416   6.171   0.912   8.938  2.6994 -0.8314 -0.0474
  186SAPI  H14Y21417   6.311   1.013   8.912 -0.9163  0.9675 -2.3982
  186SAPI  C31521418   6.124   1.110   8.849  0.8720  0.0580  0.1189
  186SAPI  H15X21419   6.172   1.208   8.831  0.5516  0.0699 -0.7158
  186SAPI  H15Y21420   6.029   1.135   8.902  0.5353 -1.4358  0.2800
  186SAPI  C31621421   6.073   1.042   8.708 -0.1230 -0.0656 -0.2914
  186SAPI  H16X21422   6.010   0.953   8.730 -2.5966  1.0747 -2.2018
  186SAPI  H16Y21423   6.168   1.012   8.660 -0.2793  0.6337 -1.0580
  186SAPI  C31721424   5.987   1.140   8.631 -0.8990  0.0967 -0.6089
  186SAPI  H17X21425   6.061   1.214   8.595  1.7000 -1.1372  1.8353
  186SAPI  H17Y21426   5.918   1.188   8.704 -1.2989 -1.2058 -0.0840
  186SAPI  C31821427   5.900   1.079   8.522  0.0635  0.6963 -1.0420
  186SAPI  H18X21428   5.821   1.149   8.488  1.6101  2.4596 -1.1837
  186SAPI  H18Y21429   5.840   1.002   8.574  1.6993 -1.5084 -2.2343
  186SAPI  H18Z21430   5.959   1.036   8.437  0.6874 -1.0750  0.2218
  187SAPI   C1221431   1.964   4.134   5.981  0.8702 -0.3931  0.0790
  187SAPI    H221432   1.991   4.104   6.085  0.7474  1.7734  0.7671
  187SAPI    O221433   2.030   4.252   5.946 -0.1021  0.0933  0.2879
  187SAPI   HO221434   2.064   4.302   6.022  2.9483  1.0050 -1.4792
  187SAPI   C1321435   2.002   4.017   5.889 -0.7567  0.7007 -0.5499
  187SAPI    H321436   1.949   3.925   5.921  0.6634  0.0080 -0.0741
  187SAPI    O321437   2.133   3.983   5.915  0.0049  0.0436  0.2697
  187SAPI   HO321438   2.166   4.046   5.979 -0.3398 -0.1376  0.6347
  187SAPI   C1421439   1.970   4.047   5.744 -0.1054  0.0222 -0.5399
  187SAPI    H421440   2.037   4.131   5.716 -0.9475  0.9651  0.1631
  187SAPI    O421441   2.007   3.944   5.660 -0.1783  0.0739 -0.0178
  187SAPI   HO421442   1.968   3.865   5.697 -1.9273 -0.1051 -2.0199
  187SAPI   C1521443   1.827   4.098   5.717  0.1248  0.2063  0.0655
  187SAPI    H521444   1.766   4.007   5.733 -0.0879  0.8187  3.4478
  187SAPI    O521445   1.816   4.145   5.580 -0.3913 -0.0793  0.1480
  187SAPI   HO521446   1.861   4.229   5.570 -2.2208  0.8715 -0.4947
  187SAPI   C1621447   1.767   4.188   5.828  0.4814  0.1160  0.5480
  187SAPI    H621448   1.810   4.289   5.809  0.2076  0.2690  0.7311
  187SAPI    O621449   1.623   4.191   5.813 -0.3113 -0.3347  0.7635
  187SAPI   HO621450   1.593   4.139   5.888 -2.7321 -0.2854 -0.0751
  187SAPI   C1121451   1.811   4.153   5.967  0.5259 -0.1077 -0.1521
  187SAPI    H121452   1.771   4.055   5.999  1.4138 -0.4403 -0.0241
  187SAPI     P21453   1.640   4.235   6.153  1.2104 -0.2643 -0.3209
  187SAPI   O1321454   1.525   4.168   6.077 -0.3178  0.1807  0.3637
  187SAPI   O1421455   1.604   4.366   6.216 -0.1892 -0.0436 -0.4340
  187SAPI   O1221456   1.774   4.244   6.067  0.5097  0.0072 -0.2103
  187SAPI   O1121457   1.696   4.121   6.255 -0.4311  0.1692 -0.5357
  187SAPI    C121458   1.800   4.168   6.341  0.7230  0.4923  0.5732
  187SAPI    HA21459   1.876   4.229   6.288  0.6824 -0.4123 -0.5834
  187SAPI    HB21460   1.761   4.219   6.431 -0.9609  0.2329  0.0245
  187SAPI    C221461   1.892   4.052   6.384  0.3394 -0.1158 -0.0242
  187SAPI    HS21462   1.922   4.003   6.289  0.8238 -0.7404  0.4332
  187SAPI   O2121463   1.825   3.962   6.470  0.5998 -0.8100  0.1181
  187SAPI   C2121464   1.882   3.864   6.525  0.6665  0.5583 -0.3236
  187SAPI   O2221465   1.988   3.812   6.492 -0.5851  0.0997 -0.6354
  187SAPI   C2221466   1.801   3.830   6.653  0.8746  0.0598  0.2640
  187SAPI   H2R21467   1.793   3.921   6.716  0.4000 -0.3060  0.7297
  187SAPI   H2S21468   1.702   3.807   6.609  1.5550 -1.0440 -0.7695
  187SAPI    C321469   2.029   4.106   6.438 -0.1046 -0.1018 -0.1597
  187SAPI    HX21470   2.080   4.167   6.360  2.1773 -0.4982  0.9591
  187SAPI    HY21471   2.102   4.026   6.462  0.8586  0.3388 -1.5408
  187SAPI   O3121472   2.004   4.188   6.561  0.6029  0.3184  1.2033
  187SAPI   C3121473   1.993   4.319   6.537  0.2484 -0.3976 -0.3931
  187SAPI   O3221474   2.027   4.379   6.436  0.2379  0.1184  0.1995
  187SAPI   C3221475   1.926   4.390   6.654 -0.1597 -0.0005  0.0207
  187SAPI   H2X21476   1.943   4.334   6.749 -0.8777 -0.3414 -0.0437
  187SAPI   H2Y21477   1.816   4.397   6.639  0.0086 -0.3579 -1.5154
  187SAPI   C2321478   1.853   3.711   6.733  0.9289  0.1224 -1.1041
  187SAPI   H3R21479   1.960   3.723   6.757  0.7673  2.0241 -1.1532
  187SAPI   H3S21480   1.857   3.625   6.663 -0.4761  0.2227 -1.3434
  187SAPI   C2421481   1.754   3.671   6.850  0.0879  0.4729 -0.3932
  187SAPI   H4R21482   1.659   3.667   6.793  0.3344 -1.7352 -0.7609
  187SAPI   H4S21483   1.744   3.753   6.924 -2.0518  0.5302 -0.6960
  187SAPI   C2521484   1.774   3.538   6.921  0.0243 -0.4796  0.5257
  187SAPI   H5R21485   1.750   3.445   6.867  0.0127 -0.7565  0.9965
  187SAPI   C2621486   1.831   3.520   7.043  0.1744 -0.3215  0.0904
  187SAPI   H6R21487   1.828   3.418   7.084  0.2614  0.2265  1.5032
  187SAPI   C2721488   1.889   3.628   7.127  0.6972 -0.0407  0.7971
  187SAPI   H7R21489   1.826   3.718   7.140  1.9192  1.3285 -1.7862
  187SAPI   H7S21490   1.963   3.674   7.057 -0.4409  1.2978  0.4379
  187SAPI   C2821491   1.961   3.595   7.255  0.7364  0.1529  0.2223
  187SAPI   H8R21492   2.047   3.527   7.251  0.4947 -0.1206 -0.5162
  187SAPI   C2921493   1.953   3.658   7.372 -0.0389 -0.0997  0.0764
  187SAPI   H9R21494   1.990   3.607   7.462 -0.2819 -0.1925  0.1252
  187SAPI  C21021495   1.865   3.778   7.418  0.5059  0.6474  0.3466
  187SAPI  H10R21496   1.792   3.809   7.341 -0.5360  2.0385  1.8315
  187SAPI  H10S21497   1.917   3.870   7.450 -0.7245  0.7991  2.0724
  187SAPI  C21121498   1.792   3.737   7.545 -0.0034 -0.1702 -0.3871
  187SAPI  H11R21499   1.693   3.694   7.524 -1.2223  2.3905 -0.3598
  187SAPI  C21221500   1.835   3.761   7.678  0.4390 -0.2574  0.2731
  187SAPI  H12R21501   1.786   3.714   7.764  0.8150  0.9298  1.1596
  187SAPI  C21321502   1.945   3.850   7.715  0.0062  0.2193  0.0609
  187SAPI  H13R21503   2.044   3.833   7.668  0.5561  0.1722  1.2003
  187SAPI  H13S21504   1.969   3.821   7.819 -0.5880  1.0552  0.4444
  187SAPI  C21421505   1.911   4.000   7.716  0.1051 -0.0743  0.0388
  187SAPI  H14R21506   1.932   4.048   7.620  1.3079 -0.1603  0.2425
  187SAPI  C21521507   1.850   4.070   7.817 -0.1199  0.2131 -0.1551
  187SAPI  H15R21508   1.825   4.171   7.782  0.7556  0.1918 -0.8789
  187SAPI  C21621509   1.811   4.021   7.963 -0.1467 -0.8778  0.3989
  187SAPI  H16R21510   1.853   3.920   7.983 -2.2273 -1.4670  2.1875
  187SAPI  H16S21511   1.703   4.010   7.987 -0.4070  0.8295  0.1458
  187SAPI  C21721512   1.865   4.123   8.066 -0.6042 -0.5207  0.1603
  187SAPI  H17R21513   1.818   4.224   8.070  2.8260  1.2706 -1.2199
  187SAPI  H17S21514   1.971   4.150   8.046 -0.8895  0.2301 -0.4025
  187SAPI  C21821515   1.845   4.058   8.208  0.3303  0.1365  0.0675
  187SAPI  H18R21516   1.906   3.965   8.212 -0.0566 -0.0979  0.5870
  187SAPI  H18S21517   1.737   4.044   8.227  0.6046  1.6401  3.6178
  187SAPI  C21921518   1.896   4.153   8.308 -0.4826  0.3424 -0.6597
  187SAPI  H19R21519   1.831   4.152   8.399 -1.6276  0.0113 -1.4536
  187SAPI  H19S21520   1.893   4.255   8.264  2.4247  1.1182  0.7416
  187SAPI  C22021521   2.032   4.121   8.359  0.1937  0.4463 -0.0869
  187SAPI  H20R21522   2.041   4.040   8.434 -0.4845 -0.5831 -1.0759
  187SAPI  H20S21523   2.075   4.219   8.386 -0.0786  0.0447  1.9739
  187SAPI  H20T21524   2.095   4.080   8.277 -1.2508 -2.8207  0.2724
  187SAPI   C3321525   1.980   4.540   6.660  0.1097 -0.2749 -0.3700
  187SAPI   H3X21526   1.911   4.602   6.599  0.0983 -1.6724 -1.8737
  187SAPI   H3Y21527   2.087   4.544   6.630 -0.4119  1.1657 -2.2528
  187SAPI   C3421528   1.985   4.594   6.806 -0.1720  0.3943 -0.0140
  187SAPI   H4X21529   1.882   4.593   6.847 -0.4222 -1.3534 -0.5880
  187SAPI   H4Y21530   2.007   4.703   6.809  0.1687  0.3029  2.4073
  187SAPI   C3521531   2.085   4.515   6.889 -0.4039  0.5672 -0.3915
  187SAPI   H5X21532   2.187   4.516   6.847 -0.8739 -2.0447 -1.7945
  187SAPI   H5Y21533   2.050   4.410   6.884  0.6033  0.2908 -2.8043
  187SAPI   C3621534   2.093   4.553   7.036  0.1558  0.0605  0.4445
  187SAPI   H6X21535   1.993   4.536   7.081  0.1885  0.6885  0.7688
  187SAPI   H6Y21536   2.124   4.659   7.049  0.7218 -0.0794  0.2617
  187SAPI   C3721537   2.192   4.449   7.108 -0.3736 -0.2115 -0.3178
  187SAPI   H7X21538   2.138   4.354   7.090 -1.9878  0.5927  0.1073
  187SAPI   H7Y21539   2.199   4.465   7.218  1.2903 -0.5922 -0.3365
  187SAPI   C3821540   2.338   4.456   7.056  0.0849 -0.0626 -0.3899
  187SAPI   H8X21541   2.372   4.560   7.036  0.8365 -0.5012 -1.4714
  187SAPI   H8Y21542   2.356   4.409   6.957  1.1001 -2.2474  0.7791
  187SAPI   C3921543   2.435   4.390   7.155 -0.2034  0.3230  0.5010
  187SAPI   H9X21544   2.535   4.372   7.110 -0.1860 -3.8969  1.8221
  187SAPI   H9Y21545   2.390   4.292   7.181  2.3642 -1.2798 -0.7407
  187SAPI  C31021546   2.466   4.469   7.279 -0.2570  0.0648 -0.5768
  187SAPI  H10X21547   2.371   4.511   7.317 -0.7591 -0.1223 -1.5886
  187SAPI  H10Y21548   2.528   4.556   7.245  0.0384 -0.3289 -1.0540
  187SAPI  C31121549   2.549   4.392   7.389  0.4989  0.1579  0.1109
  187SAPI  H11X21550   2.645   4.361   7.343  0.7546 -1.3331  1.5620
  187SAPI  H11Y21551   2.506   4.293   7.414 -1.7197  0.7933 -0.9602
  187SAPI  C31221552   2.593   4.487   7.509  0.0685  0.0526 -0.7949
  187SAPI  H12X21553   2.633   4.580   7.464  2.2766  0.0186  0.9588
  187SAPI  H12Y21554   2.679   4.441   7.561 -0.5129  1.1371  1.2011
  187SAPI  C31321555   2.477   4.549   7.597 -0.2107  0.6926  0.3826
  187SAPI  H13X21556   2.414   4.483   7.660  0.6194 -0.2262  0.2818
  187SAPI  H13Y21557   2.410   4.605   7.528  0.3448 -0.3257 -1.0458
  187SAPI  C31421558   2.541   4.655   7.695 -0.1746 -0.5301  0.3850
  187SAPI  H14X21559   2.452   4.713   7.727  0.3138  0.9224 -0.7819
  187SAPI  H14Y21560   2.613   4.715   7.636  1.8700 -0.6194  2.6560
  187SAPI  C31521561   2.611   4.593   7.812  0.1269  0.6070 -0.3281
  187SAPI  H15X21562   2.687   4.535   7.755 -0.5060 -0.4328 -0.1530
  187SAPI  H15Y21563   2.543   4.517   7.857 -0.5106  0.1489 -1.9939
  187SAPI  C31621564   2.665   4.697   7.908 -0.1439  0.1998 -0.0335
  187SAPI  H16X21565   2.580   4.767   7.925  0.2645  1.8097 -3.5544
  187SAPI  H16Y21566   2.746   4.751   7.855 -0.1353  1.2423  1.0022
  187SAPI  C31721567   2.721   4.633   8.035  0.0038 -0.0650  0.7740
  187SAPI  H17X21568   2.807   4.568   8.008  0.9660  1.7407 -0.7177
  187SAPI  H17Y21569   2.639   4.569   8.076 -0.0453 -0.9910 -0.7001
  187SAPI  C31821570   2.771   4.726   8.142 -0.1575 -0.6972 -0.0178
  187SAPI  H18X21571   2.866   4.777   8.114  1.3090 -2.3697  1.6300
  187SAPI  H18Y21572   2.799   4.661   8.228 -0.1120  0.1153  0.5936
  187SAPI  H18Z21573   2.691   4.795   8.177  2.3591  1.3242  2.1394
  188SAPI   C1221574   2.512   0.515   6.125  0.0166 -0.3711  0.1205
  188SAPI    H221575   2.416   0.460   6.128  1.4850 -3.2297 -1.5069
  188SAPI    O221576   2.567   0.512   5.994  0.4959  0.3992 -0.2144
  188SAPI   HO221577   2.528   0.435   5.952  0.6464  1.5087 -2.5775
  188SAPI   C1321578   2.483   0.654   6.166  0.2068 -0.4478  0.7454
  188SAPI    H321579   2.439   0.648   6.269  1.5979  1.3752  1.4979
  188SAPI    O321580   2.385   0.717   6.081 -0.1216  0.4672 -0.3253
  188SAPI   HO321581   2.370   0.802   6.122  1.6840  0.3094  0.7540
  188SAPI   C1421582   2.612   0.742   6.177  0.0911  0.2124 -0.5238
  188SAPI    H421583   2.650   0.760   6.074  2.2108  0.2977  0.2129
  188SAPI    O421584   2.579   0.874   6.232 -0.1986 -0.4744  0.2612
  188SAPI   HO421585   2.626   0.940   6.180  3.2096 -3.3484 -0.7101
  188SAPI   C1521586   2.741   0.676   6.237 -0.1447  0.0061  0.2170
  188SAPI    H521587   2.734   0.688   6.348 -0.0661 -0.0627  0.2301
  188SAPI    O521588   2.857   0.745   6.194 -0.5496  0.4650 -0.0338
  188SAPI   HO521589   2.847   0.826   6.244 -0.8276 -0.8048  2.1068
  188SAPI   C1621590   2.757   0.525   6.220  0.2458 -0.0023 -0.1572
  188SAPI    H621591   2.803   0.517   6.119  0.9541  1.4405  0.0325
  188SAPI    O621592   2.859   0.477   6.311  0.3648 -0.5423  0.0243
  188SAPI   HO621593   2.810   0.442   6.387  1.2521 -0.5941  0.5821
  188SAPI   C1121594   2.619   0.451   6.220 -0.5557 -0.2303  0.2399
  188SAPI    H121595   2.580   0.462   6.323  1.6922 -1.3689  1.3040
  188SAPI     P21596   2.541   0.192   6.251  0.2810 -0.3115 -0.3928
  188SAPI   O1321597   2.577   0.060   6.195 -0.3047 -0.2944  0.5551
  188SAPI   O1421598   2.392   0.236   6.240 -0.3307 -0.1532  1.0960
  188SAPI   O1221599   2.637   0.313   6.191 -0.2970 -0.1850  0.1161
  188SAPI   O1121600   2.582   0.194   6.407 -0.4604 -0.1780  0.0548
  188SAPI    C121601   2.717   0.174   6.451  0.2418 -0.4133 -0.1627
  188SAPI    HA21602   2.794   0.209   6.379 -0.8683  0.6713 -0.8610
  188SAPI    HB21603   2.741   0.236   6.540  0.5916  0.1309 -0.6277
  188SAPI    C221604   2.733   0.026   6.497 -1.0898  0.2013  0.9857
  188SAPI    HS21605   2.685  -0.052   6.435 -1.4282  0.4062  0.9871
  188SAPI   O2121606   2.670   0.021   6.622 -0.1002 -0.0353  0.4097
  188SAPI   C2121607   2.539   0.022   6.618  0.8712  0.2521 -0.8873
  188SAPI   O2221608   2.461  -0.026   6.536 -0.2650  0.4887  0.2871
  188SAPI   C2221609   2.483   0.066   6.753 -0.2534 -0.5161 -0.4124
  188SAPI   H2R21610   2.381   0.108   6.738 -0.4645 -0.1820  1.6422
  188SAPI   H2S21611   2.484  -0.026   6.816  0.9770 -0.2785 -0.0524
  188SAPI    C321612   2.888  -0.014   6.504 -0.3129 -0.0744  0.0205
  188SAPI    HX21613   2.909  -0.040   6.398 -0.4851 -0.3580  0.0544
  188SAPI    HY21614   2.889  -0.112   6.557 -2.8445  0.0634  0.4913
  188SAPI   O3121615   2.984   0.084   6.554  0.0139  0.1391 -0.3161
  188SAPI   C3121616   2.996   0.068   6.686 -0.1179 -0.2089  0.9272
  188SAPI   O3221617   2.949  -0.015   6.754  0.1271 -0.1205  0.0423
  188SAPI   C3221618   3.096   0.166   6.738 -0.2319 -0.4357  0.2683
  188SAPI   H2X21619   3.056   0.266   6.711  1.8170  0.8954  1.8417
  188SAPI   H2Y21620   3.190   0.137   6.686  0.2894 -0.5925  1.2881
  188SAPI   C2321621   2.552   0.198   6.803  0.6064  0.9888 -0.1728
  188SAPI   H3R21622   2.478   0.254   6.864  0.7812 -0.2068  1.1903
  188SAPI   H3S21623   2.577   0.269   6.722  0.6823 -0.5953 -1.6010
  188SAPI   C2421624   2.684   0.180   6.895  0.2049 -0.0208 -0.1365
  188SAPI   H4R21625   2.707   0.287   6.918  3.6102 -0.5247 -0.6207
  188SAPI   H4S21626   2.764   0.148   6.825  2.1797  0.7794  1.6173
  188SAPI   C2521627   2.679   0.094   7.014  0.4432 -0.3225  0.6214
  188SAPI   H5R21628   2.618   0.004   7.005  1.1506 -0.6980 -0.6819
  188SAPI   C2621629   2.732   0.118   7.134 -0.3107 -0.1353  0.2801
  188SAPI   H6R21630   2.703   0.071   7.229 -1.0509  0.5411  0.3949
  188SAPI   C2721631   2.816   0.239   7.166  0.2632 -0.3548  0.5367
  188SAPI   H7R21632   2.768   0.312   7.234 -0.5545 -1.7677  1.5236
  188SAPI   H7S21633   2.835   0.307   7.080 -1.4360  1.9162  1.8276
  188SAPI   C2821634   2.949   0.196   7.225 -0.1096 -0.2921  0.9494
  188SAPI   H8R21635   3.003   0.136   7.150 -2.3386 -0.7301 -0.4135
  188SAPI   C2921636   3.006   0.244   7.335  0.1400  0.0296  0.5804
  188SAPI   H9R21637   3.109   0.211   7.357  0.4154 -0.8123 -1.6690
  188SAPI  C21021638   2.940   0.314   7.444 -0.2121 -0.8340 -0.5193
  188SAPI  H10R21639   2.898   0.410   7.405 -0.9999 -0.1850  1.7819
  188SAPI  H10S21640   3.010   0.343   7.525 -0.7631 -0.2280 -0.2492
  188SAPI  C21121641   2.819   0.259   7.524  0.1656  0.2343 -0.2301
  188SAPI  H11R21642   2.845   0.171   7.585 -0.8819  0.8684  1.2011
  188SAPI  C21221643   2.700   0.318   7.543 -0.0301 -0.0159 -0.0378
  188SAPI  H12R21644   2.628   0.280   7.618 -1.2687  0.8433 -0.7520
  188SAPI  C21321645   2.660   0.445   7.479  0.3227  0.0298 -0.5700
  188SAPI  H13R21646   2.683   0.437   7.370  1.8595 -0.8526 -0.2123
  188SAPI  H13S21647   2.724   0.526   7.520 -0.8876  0.0649  1.3712
  188SAPI  C21421648   2.511   0.463   7.493 -0.1049 -0.1185 -0.4348
  188SAPI  H14R21649   2.449   0.410   7.418 -1.5133  0.5781  0.2042
  188SAPI  C21521650   2.439   0.525   7.592  0.2531  0.2997 -0.4805
  188SAPI  H15R21651   2.330   0.538   7.602  0.1418 -0.4200 -0.7004
  188SAPI  C21621652   2.501   0.582   7.708 -0.0112  0.0094  0.4051
  188SAPI  H16R21653   2.582   0.520   7.754  1.0498  1.7722  1.0413
  188SAPI  H16S21654   2.424   0.596   7.787  0.5686 -1.1483  1.2144
  188SAPI  C21721655   2.567   0.723   7.687  0.0884  0.5781 -0.2091
  188SAPI  H17R21656   2.493   0.795   7.645 -0.0835  0.6313  0.1818
  188SAPI  H17S21657   2.651   0.720   7.615  0.5391  1.9961  0.2287
  188SAPI  C21821658   2.647   0.783   7.806  0.3161 -0.4064  0.5648
  188SAPI  H18R21659   2.725   0.849   7.762  0.1581 -0.1935  0.6007
  188SAPI  H18S21660   2.699   0.698   7.855 -0.7369 -1.0733  0.5643
  188SAPI  C21921661   2.550   0.860   7.904  0.3688 -0.7865 -0.8192
  188SAPI  H19R21662   2.506   0.779   7.966  0.5623 -1.0096 -0.9658
  188SAPI  H19S21663   2.469   0.911   7.849 -0.7105 -1.2928  0.2694
  188SAPI  C22021664   2.614   0.973   7.987  0.0529  0.3770 -0.1658
  188SAPI  H20R21665   2.714   0.945   8.026  0.0208 -0.1995 -0.4875
  188SAPI  H20S21666   2.555   1.010   8.074 -1.2413  0.9598 -1.2651
  188SAPI  H20T21667   2.634   1.065   7.928 -1.1264  1.8023  1.5347
  188SAPI   C3321668   3.120   0.161   6.894 -0.0760 -0.4875  0.7175
  188SAPI   H3X21669   3.127   0.065   6.948  1.0284 -1.9698 -1.8754
  188SAPI   H3Y21670   3.031   0.215   6.933 -0.1117 -0.4330  0.5645
  188SAPI   C3421671   3.247   0.246   6.927  0.1456  0.1068 -1.0020
  188SAPI   H4X21672   3.249   0.349   6.885 -1.2574  0.1535 -0.9988
  188SAPI   H4Y21673   3.331   0.186   6.887  1.4353 -0.3246  2.0816
  188SAPI   C3521674   3.264   0.256   7.084 -0.2288  0.6994  0.0159
  188SAPI   H5X21675   3.267   0.151   7.120  2.3023  1.3582  2.0384
  188SAPI   H5Y21676   3.166   0.297   7.117 -0.3068 -0.1692  0.8742
  188SAPI   C3621677   3.377   0.349   7.135  0.4363  1.1559 -0.2021
  188SAPI   H6X21678   3.361   0.456   7.110 -0.8791  1.3978  1.5183
  188SAPI   H6Y21679   3.474   0.309   7.098 -1.5035 -1.2086 -3.2445
  188SAPI   C3721680   3.359   0.353   7.288 -0.0515  1.0810 -0.7032
  188SAPI   H7X21681   3.338   0.248   7.319  1.3457  1.3077  1.1557
  188SAPI   H7Y21682   3.264   0.407   7.307 -2.5338 -2.2723 -2.3891
  188SAPI   C3821683   3.477   0.428   7.352 -0.3278  0.5430 -0.3252
  188SAPI   H8X21684   3.475   0.536   7.324  4.4577  0.7543 -0.5101
  188SAPI   H8Y21685   3.574   0.396   7.309 -0.1832  1.0995 -0.4301
  188SAPI   C3921686   3.468   0.433   7.510  0.6520  0.9277 -0.4386
  188SAPI   H9X21687   3.367   0.478   7.524 -0.0383 -0.5334 -0.4794
  188SAPI   H9Y21688   3.554   0.490   7.551  0.6753 -0.0203  0.8955
  188SAPI  C31021689   3.471   0.291   7.574 -0.6002 -0.5695  0.0922
  188SAPI  H10X21690   3.563   0.241   7.535 -1.2135 -1.1138 -0.6752
  188SAPI  H10Y21691   3.380   0.230   7.559 -1.1422  0.4338 -0.8399
  188SAPI  C31121692   3.490   0.284   7.727  0.3278 -0.3178 -0.9233
  188SAPI  H11X21693   3.595   0.316   7.746 -0.5689  0.9024  2.6668
  188SAPI  H11Y21694   3.485   0.177   7.756 -0.7186 -0.7138 -2.4285
  188SAPI  C31221695   3.388   0.364   7.806 -0.4487 -0.9850  0.0378
  188SAPI  H12X21696   3.292   0.327   7.763 -2.1002 -0.8394  3.2836
  188SAPI  H12Y21697   3.400   0.474   7.801  0.8898 -1.0428  1.3262
  188SAPI  C31321698   3.381   0.341   7.959 -0.5470  0.1463  0.2604
  188SAPI  H13X21699   3.473   0.385   8.004  0.2335 -0.1718 -0.9447
  188SAPI  H13Y21700   3.378   0.230   7.967 -3.3040  0.0767 -0.6336
  188SAPI  C31421701   3.260   0.384   8.034 -0.4942 -0.0340 -0.4734
  188SAPI  H14X21702   3.271   0.490   8.064 -0.1553 -0.6107  1.5970
  188SAPI  H14Y21703   3.263   0.340   8.136  0.8979  1.4686  0.1646
  188SAPI  C31521704   3.123   0.357   7.965  0.2510 -0.0559 -0.2044
  188SAPI  H15X21705   3.117   0.256   7.921 -0.0964 -1.0120  1.9205
  188SAPI  H15Y21706   3.121   0.434   7.885  2.1825 -0.3662 -0.5962
  188SAPI  C31621707   3.009   0.358   8.070  0.7115  0.7350 -0.4099
  188SAPI  H16X21708   2.965   0.457   8.093 -0.2840  0.9475 -2.9170
  188SAPI  H16Y21709   3.058   0.313   8.160  1.8771  0.3725 -1.2055
  188SAPI  C31721710   2.887   0.274   8.026 -0.0783  0.7921 -0.0678
  188SAPI  H17X21711   2.809   0.259   8.103  0.7797 -1.6416  0.4304
  188SAPI  H17Y21712   2.916   0.167   8.021 -2.7317 -0.0033 -0.0151
  188SAPI  C31821713   2.818   0.322   7.904 -0.4917  0.3468  0.3773
  188SAPI  H18X21714   2.778   0.423   7.928  1.2731  1.2452 -0.3449
  188SAPI  H18Y21715   2.728   0.265   7.872  0.0650 -0.3383 -0.0053
  188SAPI  H18Z21716   2.881   0.336   7.814 -3.1816 -0.5489 -1.7803
  189POPC     N21717   6.339   6.076  11.310 -0.1020  0.3223  0.4496
  189POPC   C1221718   6.298   6.136  11.174  0.1498  0.0943 -0.3911
  189POPC  H12A21719   6.191   6.152  11.172 -0.0570 -1.2670 -0.7826
  189POPC  H12B21720   6.314   6.057  11.102  0.7391 -0.2382  0.0949
  189POPC   C1321721   6.294   6.168  11.418 -0.0406  0.0651  0.1140
  189POPC  H13A21722   6.197   6.205  11.390  0.3716 -0.0958 -1.5857
  189POPC  H13B21723   6.284   6.119  11.514  0.4899  0.2897  0.2932
  189POPC  H13C21724   6.358   6.253  11.439  0.3180 -0.5030  1.4271
  189POPC   C1421725   6.271   5.943  11.336  0.2114 -0.5075 -0.5567
  189POPC  H14A21726   6.287   5.860  11.269 -0.0809 -1.7188  0.8272
  189POPC  H14B21727   6.314   5.916  11.431  0.0542 -0.0103 -0.3391
  189POPC  H14C21728   6.167   5.955  11.363  0.3915  0.3108 -0.1854
  189POPC   C1521729   6.489   6.056  11.318  0.2205  0.5774 -0.1038
  189POPC  H15A21730   6.543   6.148  11.300  2.0956 -0.5335 -0.4079
  189POPC  H15B21731   6.517   5.990  11.237 -1.1888  0.8335 -0.8299
  189POPC  H15C21732   6.526   6.004  11.405  0.8899 -0.8906 -1.2216
  189POPC   C1121733   6.371   6.261  11.110 -0.4106  0.3619 -0.6200
  189POPC  H11A21734   6.358   6.338  11.189  1.5701  3.2423 -2.8673
  189POPC  H11B21735   6.315   6.300  11.022  0.7920 -1.9660 -2.5090
  189POPC     P21736   6.611   6.359  11.100  0.4885 -0.0872  0.3555
  189POPC   O1321737   6.741   6.302  11.137 -0.2945 -0.3928  0.2783
  189POPC   O1421738   6.547   6.462  11.189  0.2955  1.3866  0.2742
  189POPC   O1221739   6.506   6.234  11.079  0.2731  0.2960 -0.2545
  189POPC   O1121740   6.617   6.428  10.958 -0.3390  0.6566 -0.3819
  189POPC    C121741   6.668   6.346  10.849  0.5214 -0.1887  0.1993
  189POPC    HA21742   6.641   6.239  10.855  0.0775 -0.1228 -0.5441
  189POPC    HB21743   6.779   6.348  10.853  0.5030 -1.3194  2.2804
  189POPC    C221744   6.614   6.397  10.711 -0.6074 -0.0588  0.3611
  189POPC    HS21745   6.532   6.331  10.676 -1.3942  0.2820  1.5174
  189POPC   O2121746   6.717   6.395  10.611  0.3556  0.4351  0.1923
  189POPC   C2121747   6.770   6.275  10.582 -0.6574  0.4196 -0.5339
  189POPC   O2221748   6.730   6.171  10.627  0.2099  0.0734  0.4124
  189POPC   C2221749   6.874   6.301  10.479  0.5389 -0.0787  0.4695
  189POPC   H2R21750   6.974   6.280  10.522  0.9903  1.0522  0.0001
  189POPC   H2S21751   6.853   6.406  10.450 -4.6073 -1.6695 -2.9746
  189POPC    C321752   6.542   6.539  10.720  0.4236  0.5020 -0.4176
  189POPC    HX21753   6.619   6.605  10.766  2.8592 -2.1785 -0.3575
  189POPC    HY21754   6.460   6.536  10.795  1.6381 -1.5259  0.9409
  189POPC   O3121755   6.487   6.589  10.592  0.0971  0.6269  0.6215
  189POPC   C3121756   6.446   6.719  10.599  0.3652 -0.3439  0.0008
  189POPC   O3221757   6.453   6.792  10.695  1.0349 -0.1891  0.5314
  189POPC   C3221758   6.383   6.748  10.458 -0.3722 -0.3414 -0.2541
  189POPC   H2X21759   6.320   6.667  10.416 -0.4688  0.9604 -2.8715
  189POPC   H2Y21760   6.466   6.771  10.387  1.6821 -1.4029  1.6807
  189POPC   C2321761   6.844   6.209  10.364 -0.0453  0.1542  0.1936
  189POPC   H3R21762   6.844   6.102  10.392 -0.5615 -0.2994 -1.4397
  189POPC   H3S21763   6.932   6.198  10.297  1.0764  0.1742  1.6320
  189POPC   C2421764   6.717   6.252  10.290  0.2668  0.5817  0.3464
  189POPC   H4R21765   6.740   6.347  10.238 -1.2361  1.6268  1.5062
  189POPC   H4S21766   6.630   6.268  10.357 -0.6884 -0.6044 -0.5524
  189POPC   C2521767   6.679   6.134  10.196  0.1051  0.0296 -0.4822
  189POPC   H5R21768   6.579   6.149  10.150 -0.7437  2.6640  1.9770
  189POPC   H5S21769   6.669   6.042  10.257 -1.5314 -0.0345 -0.7967
  189POPC   C2621770   6.774   6.117  10.080 -0.6333  0.3821  0.9814
  189POPC   H6R21771   6.773   6.011  10.047 -1.9248  0.0111  2.1369
  189POPC   H6S21772   6.879   6.140  10.109 -1.1714  2.6925  1.3175
  189POPC   C2721773   6.734   6.210   9.957 -0.0352  0.7732 -0.5327
  189POPC   H7R21774   6.703   6.314   9.982  1.6076  1.1564  0.0843
  189POPC   H7S21775   6.639   6.160   9.929 -1.2938  2.6315  0.1615
  189POPC   C2821776   6.833   6.223   9.839  0.6339  0.6575 -0.3374
  189POPC   H8R21777   6.777   6.278   9.760 -1.8605 -0.4298  0.5633
  189POPC   H8S21778   6.858   6.125   9.794  2.4225  1.8034 -1.9748
  189POPC   C2921779   6.951   6.297   9.892  0.7230  0.4208 -0.2265
  189POPC   H9121780   6.931   6.371   9.971 -1.0108  0.0894 -0.3159
  189POPC  C21021781   7.067   6.303   9.823  0.7184 -0.2102  0.0896
  189POPC  H10121782   7.153   6.353   9.869  0.3887  0.1749  0.2992
  189POPC  C21121783   7.104   6.234   9.697 -0.6030  0.0794  0.0448
  189POPC  H11R21784   7.015   6.182   9.656 -0.2486  0.7628 -1.6621
  189POPC  H11S21785   7.178   6.153   9.718  0.5990  1.3381  0.8773
  189POPC  C21221786   7.157   6.337   9.593 -0.5703  0.4312  0.5186
  189POPC  H12R21787   7.231   6.277   9.536 -1.0598 -1.0017  1.3243
  189POPC  H12S21788   7.222   6.418   9.631  0.1198 -0.6062  1.6252
  189POPC  C21321789   7.052   6.380   9.488  0.3634  0.5514  0.3016
  189POPC  H13R21790   6.987   6.454   9.539  0.2671  1.4850 -1.1392
  189POPC  H13S21791   6.982   6.299   9.460  0.2335  1.1396 -1.1463
  189POPC  C21421792   7.111   6.437   9.359  0.2968  0.2956  0.6507
  189POPC  H14R21793   7.175   6.363   9.307  2.0313  1.7711  0.5457
  189POPC  H14S21794   7.179   6.522   9.384 -0.0046  0.7235  0.0412
  189POPC  C21521795   7.008   6.495   9.265 -0.5054  0.0661  0.1506
  189POPC  H15R21796   6.985   6.597   9.302 -0.5259  0.9119 -2.0467
  189POPC  H15S21797   6.907   6.447   9.272 -0.4893 -0.0995 -0.6772
  189POPC  C21621798   7.057   6.515   9.120 -0.4261  0.2775  0.3268
  189POPC  H16R21799   7.077   6.410   9.089 -2.0936  0.3190 -1.0541
  189POPC  H16S21800   7.152   6.573   9.119  0.2575 -0.7317  2.3290
  189POPC  C21721801   6.946   6.568   9.025 -0.4003 -0.5202 -0.6899
  189POPC  H17R21802   6.928   6.672   9.058 -2.4685 -2.0548  3.7675
  189POPC  H17S21803   6.858   6.502   9.040 -0.9888  0.2023 -0.9592
  189POPC  C21821804   6.978   6.573   8.876  0.7012 -0.4122  0.7560
  189POPC  H18R21805   6.988   6.469   8.839 -0.4343 -0.1945 -0.2581
  189POPC  H18S21806   7.069   6.634   8.857 -0.9293  1.0876 -3.5947
  189POPC  H18T21807   6.900   6.620   8.811  0.0942 -1.6739  0.5311
  189POPC   C3321808   6.293   6.876  10.461  0.3574  0.2494 -0.1705
  189POPC   H3X21809   6.350   6.963  10.500  0.1588  1.1468 -1.8235
  189POPC   H3Y21810   6.203   6.873  10.526  0.4997  1.5485  0.1171
  189POPC   C3421811   6.257   6.912  10.311  0.2999  0.1974  0.1960
  189POPC   H4X21812   6.356   6.922  10.261  0.6868  0.7387  1.0470
  189POPC   H4Y21813   6.196   7.004  10.301 -1.0463 -0.5613  1.0415
  189POPC   C3521814   6.189   6.796  10.223  0.2014  0.2169 -0.4540
  189POPC   H5X21815   6.095   6.755  10.267  1.6879 -2.4123  0.4939
  189POPC   H5Y21816   6.259   6.710  10.227 -0.8551 -0.6439  0.5320
  189POPC   C3621817   6.187   6.823  10.077  0.1964  0.1176 -0.4137
  189POPC   H6X21818   6.284   6.843  10.027  0.2088 -0.2804 -0.5557
  189POPC   H6Y21819   6.130   6.917  10.060  2.2766  1.5254  0.0045
  189POPC   C3721820   6.105   6.724   9.989 -0.4059  0.1277 -0.4207
  189POPC   H7X21821   6.008   6.704  10.039 -2.1107  0.6408 -3.2629
  189POPC   H7Y21822   6.164   6.630   9.979 -0.5687  0.0918 -1.0981
  189POPC   C3821823   6.088   6.786   9.853  0.0601 -0.2017 -0.5106
  189POPC   H8X21824   6.182   6.832   9.817  1.1086  0.3432  2.5967
  189POPC   H8Y21825   6.017   6.872   9.865 -0.4827 -0.4709 -1.6599
  189POPC   C3921826   6.042   6.694   9.741  0.2300  0.5182  0.1400
  189POPC   H9X21827   5.934   6.672   9.758 -0.6921  4.3822  0.2728
  189POPC   H9Y21828   6.109   6.606   9.749 -0.7460 -0.1684  1.1165
  189POPC  C31021829   6.040   6.769   9.602  0.6364  0.3023  0.3429
  189POPC  H10X21830   6.145   6.790   9.571  1.3143 -0.3555  2.0512
  189POPC  H10Y21831   5.971   6.854   9.618  1.2890  0.6796  1.2177
  189POPC  C31121832   5.975   6.680   9.494 -0.1188  0.7223  0.3579
  189POPC  H11X21833   5.866   6.665   9.511  0.0517  0.4559  1.2276
  189POPC  H11Y21834   6.029   6.582   9.489  2.4869  1.9784  1.8670
  189POPC  C31221835   5.991   6.741   9.348 -0.0233  0.4538 -0.5135
  189POPC  H12X21836   6.096   6.741   9.311  0.1920 -0.5895  0.0558
  189POPC  H12Y21837   5.944   6.841   9.350 -1.3339 -0.0817 -2.2077
  189POPC  C31321838   5.902   6.664   9.245 -0.1492 -0.4225  0.1563
  189POPC  H13X21839   5.794   6.673   9.273 -0.0648  1.4125  0.0289
  189POPC  H13Y21840   5.941   6.560   9.238  1.1912  0.1979 -3.1321
  189POPC  C31421841   5.915   6.714   9.099  0.2387 -0.3983 -0.6144
  189POPC  H14X21842   6.023   6.723   9.073 -0.1172 -1.1162 -2.5220
  189POPC  H14Y21843   5.848   6.800   9.077  0.0924 -0.2527  0.3603
  189POPC  C31521844   5.855   6.612   9.006 -0.3151 -0.0674  0.2346
  189POPC  H15X21845   5.915   6.519   9.016  2.4572  1.1817 -2.7583
  189POPC  H15Y21846   5.882   6.646   8.903 -0.8344 -1.4325 -0.3695
  189POPC  C31621847   5.711   6.583   9.038 -0.0730 -0.6335  0.1907
  189POPC  H16X21848   5.664   6.681   9.058  3.0102  0.8994  0.5564
  189POPC  H16Y21849   5.706   6.525   9.132  1.8190 -2.7436 -0.9068
  189POPC  H16Z21850   5.643   6.540   8.961 -1.1582  2.6942 -0.8598
  190POPC     N21851   2.766   0.418  15.870 -0.6059  0.1837  0.2883
  190POPC   C1221852   2.694   0.524  15.784  0.4214  0.3330 -0.3177
  190POPC  H12A21853   2.629   0.567  15.859 -1.1788 -2.4871  0.0677
  190POPC  H12B21854   2.630   0.479  15.710 -0.0066 -0.3255  0.4293
  190POPC   C1321855   2.848   0.480  15.979 -0.3702  0.1331  0.7343
  190POPC  H13A21856   2.906   0.565  15.947  1.3280 -0.9523  0.8249
  190POPC  H13B21857   2.780   0.519  16.054 -0.5863  1.2205  0.0019
  190POPC  H13C21858   2.900   0.395  16.021 -3.4026 -1.5910  1.2852
  190POPC   C1421859   2.666   0.323  15.924 -0.3780 -0.2301  0.2141
  190POPC  H14A21860   2.586   0.386  15.960 -0.7506 -0.3003 -0.4682
  190POPC  H14B21861   2.618   0.265  15.846  0.4960 -0.3149 -0.2612
  190POPC  H14C21862   2.698   0.256  16.002 -1.6955 -0.0076  0.9859
  190POPC   C1521863   2.866   0.345  15.786  0.4334  0.5528 -0.3229
  190POPC  H15A21864   2.953   0.405  15.762  1.0756 -0.1763  0.1248
  190POPC  H15B21865   2.815   0.319  15.694  0.3797 -1.4517  0.2271
  190POPC  H15C21866   2.903   0.259  15.840  1.5248  0.6228 -0.9226
  190POPC   C1121867   2.768   0.641  15.727 -0.5286  0.1921 -0.2123
  190POPC  H11A21868   2.693   0.693  15.664 -1.4867  1.6203  1.9819
  190POPC  H11B21869   2.853   0.597  15.671 -1.8846 -0.8630 -1.5098
  190POPC     P21870   2.736   0.837  15.908  0.1957  0.3909  0.1500
  190POPC   O1321871   2.779   0.974  15.871  0.2459 -0.3558  0.2797
  190POPC   O1421872   2.752   0.805  16.051 -0.0669  0.6326 -0.0907
  190POPC   O1221873   2.816   0.727  15.829 -0.2212 -0.3152 -0.2918
  190POPC   O1121874   2.584   0.817  15.871 -0.5217 -0.5816  0.3194
  190POPC    C121875   2.521   0.886  15.758 -0.4276 -0.1211  0.2881
  190POPC    HA21876   2.448   0.821  15.705  0.0432  1.0109 -1.8645
  190POPC    HB21877   2.589   0.935  15.685 -0.5468 -1.4769 -0.7894
  190POPC    C221878   2.442   1.011  15.807  0.1720  0.0283 -0.5980
  190POPC    HS21879   2.510   1.088  15.848  0.6359 -0.5985 -0.1707
  190POPC   O2121880   2.351   0.966  15.914 -0.6154 -0.4534 -0.2707
  190POPC   C2121881   2.313   1.055  16.011 -0.7777  0.1721 -0.5793
  190POPC   O2221882   2.356   1.170  16.019 -0.2733  0.2173  0.1541
  190POPC   C2221883   2.229   0.988  16.123 -0.3440 -0.0404  0.1192
  190POPC   H2R21884   2.296   0.983  16.211  1.8835 -1.7108 -1.5693
  190POPC   H2S21885   2.211   0.882  16.097 -1.0404  0.1627 -0.2805
  190POPC    C321886   2.359   1.080  15.699 -0.3302  0.1497  0.3512
  190POPC    HX21887   2.428   1.093  15.613 -0.0111 -1.0194  0.4146
  190POPC    HY21888   2.309   1.171  15.738 -3.1243 -1.9193  1.8858
  190POPC   O3121889   2.264   0.983  15.650 -0.3248  0.0213  0.1306
  190POPC   C3121890   2.135   1.023  15.621 -0.4105  0.1209 -0.2716
  190POPC   O3221891   2.096   1.134  15.640  0.0301 -0.3962  0.7322
  190POPC   C3221892   2.051   0.902  15.579 -0.3531 -0.0519 -0.7776
  190POPC   H2X21893   2.092   0.813  15.630  0.4587  0.9132  0.3067
  190POPC   H2Y21894   2.070   0.882  15.472  1.1557  0.5033 -0.6343
  190POPC   C2321895   2.094   1.057  16.159 -0.1758  0.2397  0.2733
  190POPC   H3R21896   2.109   1.164  16.187 -1.3106  0.4162  0.2554
  190POPC   H3S21897   2.053   1.006  16.249  1.5835 -1.3156  0.2488
  190POPC   C2421898   1.989   1.037  16.037 -0.8601  0.7581 -0.5174
  190POPC   H4R21899   1.987   0.931  16.005 -3.8578  0.6056 -0.0910
  190POPC   H4S21900   2.048   1.097  15.964  1.9364 -1.7662 -0.5155
  190POPC   C2521901   1.851   1.088  16.063 -0.1691 -0.0558  0.0767
  190POPC   H5R21902   1.790   1.020  16.126  1.1237 -0.7504  0.6093
  190POPC   H5S21903   1.801   1.071  15.965  1.4565 -0.2862 -0.7485
  190POPC   C2621904   1.842   1.231  16.111 -0.5095  0.0372  0.7511
  190POPC   H6R21905   1.892   1.298  16.037  0.0490 -1.0758  0.0988
  190POPC   H6S21906   1.899   1.246  16.206 -0.4023 -1.1417  0.8831
  190POPC   C2721907   1.697   1.282  16.123  0.3563 -0.6368 -0.1876
  190POPC   H7R21908   1.628   1.219  16.183 -0.4774  0.2995 -0.1495
  190POPC   H7S21909   1.645   1.277  16.025 -1.2240  0.4732  0.5531
  190POPC   C2821910   1.678   1.427  16.176  0.4060 -0.2398  0.0010
  190POPC   H8R21911   1.574   1.456  16.151 -0.0267 -0.0233  1.8727
  190POPC   H8S21912   1.750   1.485  16.115 -2.1596  1.9978 -1.0951
  190POPC   C2921913   1.695   1.457  16.322  0.5195 -0.2828  0.1624
  190POPC   H9121914   1.760   1.383  16.372 -0.4600 -0.4680  1.2201
  190POPC  C21021915   1.662   1.576  16.384  0.3982  0.2024 -0.1584
  190POPC  H10121916   1.693   1.580  16.489 -0.9521 -4.5233  0.6498
  190POPC  C21121917   1.586   1.692  16.323 -0.3441 -0.1456 -0.6034
  190POPC  H11R21918   1.551   1.654  16.225  0.2512 -1.1065 -0.4581
  190POPC  H11S21919   1.653   1.779  16.307  0.4179 -0.5668  0.1974
  190POPC  C21221920   1.472   1.754  16.400  0.3554 -0.3176 -0.3942
  190POPC  H12R21921   1.456   1.859  16.368 -0.2165  1.0753  3.8497
  190POPC  H12S21922   1.501   1.758  16.507  0.6574 -1.2466 -0.4357
  190POPC  C21321923   1.336   1.684  16.389 -0.6250  0.3574  0.0979
  190POPC  H13R21924   1.350   1.591  16.448  0.9756  0.6779  0.2792
  190POPC  H13S21925   1.306   1.673  16.283  0.8884 -2.9623 -0.1129
  190POPC  C21421926   1.219   1.761  16.460  0.0035 -0.1588  0.1473
  190POPC  H14R21927   1.220   1.868  16.433  2.0005 -0.8747 -3.1682
  190POPC  H14S21928   1.243   1.752  16.569  1.6558 -0.3556 -0.2091
  190POPC  C21521929   1.088   1.697  16.437  0.1049  0.3011  1.2748
  190POPC  H15R21930   1.094   1.588  16.453  3.1749  0.3270  1.0710
  190POPC  H15S21931   1.052   1.715  16.333  1.3316 -0.2116  0.7377
  190POPC  C21621932   0.987   1.750  16.541 -0.5667 -0.5068 -0.0567
  190POPC  H16R21933   0.982   1.860  16.547 -1.0228 -0.5388  5.2840
  190POPC  H16S21934   1.029   1.719  16.639  1.0556 -0.2404 -0.6336
  190POPC  C21721935   0.848   1.692  16.526 -0.5319 -0.2577  0.0162
  190POPC  H17R21936   0.800   1.720  16.622 -1.6881 -0.8551 -0.3759
  190POPC  H17S21937   0.852   1.581  16.525  0.7169 -0.2493  1.2222
  190POPC  C21821938   0.751   1.759  16.427  0.1531  0.3710  0.0631
  190POPC  H18R21939   0.653   1.722  16.464  0.0998 -1.1723 -1.5020
  190POPC  H18S21940   0.769   1.716  16.327 -1.6201 -1.5883  0.5076
  190POPC  H18T21941   0.763   1.869  16.436  2.0968  0.1982 -0.0449
  190POPC   C3321942   1.907   0.913  15.616  0.3699  0.3274 -0.2201
  190POPC   H3X21943   1.864   1.003  15.567 -2.2435 -0.6776  0.0422
  190POPC   H3Y21944   1.875   0.920  15.722 -0.6455  0.4264 -0.5238
  190POPC   C3421945   1.832   0.786  15.554  0.7450 -0.6480  0.0136
  190POPC   H4X21946   1.901   0.701  15.536 -0.7952 -1.6902 -1.2162
  190POPC   H4Y21947   1.790   0.835  15.463 -0.7188  1.5509  1.7477
  190POPC   C3521948   1.721   0.731  15.644  1.0590  0.0948 -0.2000
  190POPC   H5X21949   1.643   0.680  15.584 -0.3182  0.7860  0.9195
  190POPC   H5Y21950   1.673   0.818  15.694  1.1606  0.3049 -0.4644
  190POPC   C3621951   1.771   0.633  15.745 -0.2379  0.6560  0.0712
  190POPC   H6X21952   1.836   0.696  15.810 -0.8318 -1.1750  2.6161
  190POPC   H6Y21953   1.836   0.564  15.688  1.8230  2.5643 -0.0289
  190POPC   C3721954   1.665   0.573  15.834  0.4178 -0.4090 -0.6844
  190POPC   H7X21955   1.708   0.505  15.910 -1.9421 -4.4280 -2.5783
  190POPC   H7Y21956   1.612   0.502  15.766  1.7274 -0.6296 -1.5236
  190POPC   C3821957   1.579   0.672  15.903 -0.2156  0.1880 -0.4061
  190POPC   H8X21958   1.533   0.724  15.816 -1.3379 -4.4679 -2.8919
  190POPC   H8Y21959   1.637   0.747  15.961 -0.4359  0.3014 -0.3275
  190POPC   C3921960   1.464   0.611  15.991 -0.1273 -0.2165  0.0914
  190POPC   H9X21961   1.504   0.539  16.066 -0.0113  0.9068  1.1457
  190POPC   H9Y21962   1.411   0.538  15.926  2.7123  0.3272 -3.1068
  190POPC  C31021963   1.363   0.716  16.049 -0.2169 -0.0370 -0.7862
  190POPC  H10X21964   1.263   0.671  16.062 -0.4210  0.3930 -0.8242
  190POPC  H10Y21965   1.366   0.788  15.965  2.0351 -0.3370 -1.0196
  190POPC  C31121966   1.422   0.784  16.174 -0.0810 -0.5454 -0.1129
  190POPC  H11X21967   1.512   0.844  16.148  1.2020 -1.4193  2.0930
  190POPC  H11Y21968   1.446   0.698  16.240 -1.2664  0.4605  1.6802
  190POPC  C31221969   1.314   0.864  16.247  0.5859  0.7580  0.4358
  190POPC  H12X21970   1.351   0.904  16.344 -0.4689 -1.7350  1.9777
  190POPC  H12Y21971   1.235   0.789  16.270  0.4392  0.9057  0.4087
  190POPC  C31321972   1.238   0.973  16.165 -0.0637 -0.2458 -0.2279
  190POPC  H13X21973   1.170   0.919  16.095 -0.1142  0.6454 -0.8806
  190POPC  H13Y21974   1.302   1.040  16.103 -0.2215 -0.2826 -0.4310
  190POPC  C31421975   1.142   1.062  16.243 -0.2818  0.3315  0.3701
  190POPC  H14X21976   1.079   1.121  16.172 -0.2731  1.5229  1.3168
  190POPC  H14Y21977   1.203   1.137  16.299  0.9938  0.2839 -0.8807
  190POPC  C31521978   1.047   0.995  16.345 -0.4097  0.5432  0.3218
  190POPC  H15X21979   1.099   0.976  16.441  0.4565  2.1685  0.2066
  190POPC  H15Y21980   1.009   0.901  16.301  1.3958 -0.6835  1.2830
  190POPC  C31621981   0.935   1.089  16.385  0.5985 -0.0579 -0.2715
  190POPC  H16X21982   0.867   1.103  16.298 -0.6707 -2.0348  0.3196
  190POPC  H16Y21983   0.967   1.185  16.431  0.8618 -0.6908  0.9336
  190POPC  H16Z21984   0.878   1.035  16.464  1.2225 -0.6179 -0.1938
  191POPC     N21985   5.827   4.229   5.881 -0.5184 -0.4160 -0.5018
  191POPC   C1221986   5.697   4.283   5.910  0.1426 -0.6652 -0.2214
  191POPC  H12A21987   5.653   4.209   5.974  3.3599 -1.7939  0.8941
  191POPC  H12B21988   5.636   4.280   5.821 -1.8554  0.8821  1.0135
  191POPC   C1321989   5.798   4.116   5.781 -0.6832  0.0929 -0.3007
  191POPC  H13A21990   5.755   4.156   5.690  2.9087  0.4320 -2.0216
  191POPC  H13B21991   5.885   4.070   5.738 -0.8008 -1.3976  0.9873
  191POPC  H13C21992   5.740   4.036   5.824  2.3035 -0.8385  2.3170
  191POPC   C1421993   5.929   4.316   5.815  0.4344 -0.3921  0.2000
  191POPC  H14A21994   6.016   4.253   5.802  0.8700  0.6783 -2.8314
  191POPC  H14B21995   5.900   4.334   5.712  0.0289 -4.2444 -0.5222
  191POPC  H14C21996   5.939   4.402   5.878 -0.9563 -0.1326  0.1018
  191POPC   C1521997   5.887   4.165   6.010 -0.2333 -0.1353  0.6334
  191POPC  H15A21998   5.815   4.103   6.062  0.2692 -1.6949 -0.4751
  191POPC  H15B21999   5.914   4.235   6.087 -0.5374  1.0513 -0.3175
  191POPC  H15C22000   5.967   4.102   5.973  0.3488  0.9075  0.0764
  191POPC   C1122001   5.700   4.425   5.981  0.1545 -0.5342 -0.4978
  191POPC  H11A22002   5.771   4.418   6.066 -0.0136  0.3844 -0.2661
  191POPC  H11B22003   5.597   4.449   6.017  0.8563  1.0672  0.5823
  191POPC     P22004   5.680   4.581   5.773 -0.1051  0.3477  0.0791
  191POPC   O1322005   5.608   4.473   5.706 -0.5664 -0.6232 -0.1315
  191POPC   O1422006   5.783   4.657   5.700  0.3162 -0.0826 -0.0267
  191POPC   O1222007   5.749   4.531   5.904 -0.0859  0.3494  0.1897
  191POPC   O1122008   5.566   4.676   5.825 -0.1288 -0.3489 -0.2189
  191POPC    C122009   5.580   4.783   5.912  0.5946 -0.1827 -0.1355
  191POPC    HA22010   5.557   4.875   5.853 -0.7442  0.7962  1.8028
  191POPC    HB22011   5.687   4.803   5.930  0.7876 -1.5917  0.4049
  191POPC    C222012   5.487   4.782   6.041  0.2726  0.5354  0.3148
  191POPC    HS22013   5.481   4.883   6.086  1.9286  0.4330  0.8382
  191POPC   O2122014   5.532   4.684   6.137 -0.3817  0.0798  0.4740
  191POPC   C2122015   5.635   4.725   6.220  0.3739 -0.4119  0.6344
  191POPC   O2222016   5.682   4.840   6.219  0.7074  0.0679 -0.1734
  191POPC   C2222017   5.668   4.613   6.316 -0.4752 -0.0388 -0.5431
  191POPC   H2R22018   5.728   4.543   6.253  0.5198 -1.5427  1.9076
  191POPC   H2S22019   5.584   4.547   6.346  0.9328 -2.1174 -0.9519
  191POPC    C322020   5.340   4.738   6.001  0.0423  0.0133  0.2523
  191POPC    HX22021   5.358   4.631   5.977 -0.4333 -0.1926  0.8008
  191POPC    HY22022   5.305   4.804   5.919  1.0279 -0.7627 -0.8405
  191POPC   O3122023   5.248   4.745   6.116  0.4328 -0.2757 -0.6611
  191POPC   C3122024   5.253   4.653   6.215  0.1786  0.1949  0.0227
  191POPC   O3222025   5.307   4.544   6.210 -0.5990 -0.1464 -0.0285
  191POPC   C3222026   5.181   4.691   6.340  0.2933  0.1868 -0.1679
  191POPC   H2X22027   5.220   4.622   6.417  1.8391  1.8172  0.5745
  191POPC   H2Y22028   5.076   4.660   6.319  0.4427  1.0250 -2.4869
  191POPC   C2322029   5.755   4.656   6.444  0.0797 -0.1421 -0.5035
  191POPC   H3R22030   5.847   4.710   6.412 -0.3886  2.1210  1.6024
  191POPC   H3S22031   5.794   4.567   6.497 -1.8024 -1.0106 -0.4978
  191POPC   C2422032   5.675   4.744   6.544  0.1255 -0.2893 -0.9439
  191POPC   H4R22033   5.593   4.679   6.580  0.7414 -0.3233  0.4451
  191POPC   H4S22034   5.635   4.837   6.496 -1.0117 -0.0002  0.5073
  191POPC   C2522035   5.762   4.789   6.670  0.0016 -0.5317 -0.0350
  191POPC   H5R22036   5.719   4.884   6.710 -2.1297 -1.0739 -0.9069
  191POPC   H5S22037   5.864   4.814   6.635 -0.0481 -0.8673 -0.4244
  191POPC   C2622038   5.759   4.684   6.778  0.0553 -0.0754  0.2906
  191POPC   H6R22039   5.800   4.592   6.731 -1.8249 -1.1071  0.5797
  191POPC   H6S22040   5.656   4.660   6.813  0.2588 -1.4445  0.0253
  191POPC   C2722041   5.849   4.714   6.900 -0.1973  0.2069  0.0199
  191POPC   H7R22042   5.844   4.825   6.909 -0.0798  0.0773  2.0152
  191POPC   H7S22043   5.952   4.693   6.863 -0.3028  0.3180 -0.3449
  191POPC   C2822044   5.804   4.657   7.029 -0.1484 -0.3831  0.0100
  191POPC   H8R22045   5.697   4.683   7.045 -0.2309 -0.0656 -0.9888
  191POPC   H8S22046   5.869   4.685   7.115 -1.7501  0.3906  1.0230
  191POPC   C2922047   5.806   4.507   7.022 -0.5435 -0.4448  0.4129
  191POPC   H9122048   5.855   4.456   6.938 -2.2195 -0.4838 -0.5842
  191POPC  C21022049   5.774   4.430   7.129  0.1198  0.0547 -0.0114
  191POPC  H10122050   5.792   4.322   7.122  0.0955  0.0106  0.5315
  191POPC  C21122051   5.726   4.476   7.261  0.2075  0.0353  0.3193
  191POPC  H11R22052   5.617   4.497   7.258 -0.3796 -2.6701 -0.0689
  191POPC  H11S22053   5.784   4.567   7.286 -0.8479  0.4085  1.4925
  191POPC  C21222054   5.751   4.393   7.385  0.6872 -0.4376  0.5200
  191POPC  H12R22055   5.856   4.405   7.419  0.6060 -1.3420  1.1127
  191POPC  H12S22056   5.727   4.285   7.372 -0.7940  0.0250 -0.9283
  191POPC  C21322057   5.671   4.440   7.506  0.2030  0.0782  0.6215
  191POPC  H13R22058   5.571   4.396   7.486  0.6858 -0.3499 -1.0329
  191POPC  H13S22059   5.659   4.550   7.516  2.4465  0.3518  0.7757
  191POPC  C21422060   5.724   4.387   7.638  0.0938 -0.3764  0.2590
  191POPC  H14R22061   5.835   4.401   7.641  0.0691  0.9064 -2.0827
  191POPC  H14S22062   5.722   4.276   7.638  1.7217 -0.4454 -0.9354
  191POPC  C21522063   5.655   4.454   7.759  0.0430  0.2157  0.4663
  191POPC  H15R22064   5.547   4.429   7.744  0.0469 -0.0727  0.8693
  191POPC  H15S22065   5.668   4.561   7.734  1.7992  0.0873  0.7463
  191POPC  C21622066   5.702   4.402   7.892 -0.0124 -0.2700 -0.3780
  191POPC  H16R22067   5.812   4.386   7.899  0.4683  2.6256 -0.1319
  191POPC  H16S22068   5.652   4.303   7.881 -1.6607  0.7495 -2.8688
  191POPC  C21722069   5.651   4.486   8.009 -0.5941 -0.5053 -0.2361
  191POPC  H17R22070   5.549   4.525   7.992 -0.6337  0.8628  2.5772
  191POPC  H17S22071   5.715   4.575   8.028  0.9572 -1.7707  0.8276
  191POPC  C21822072   5.651   4.401   8.140 -0.4170  0.0024  0.3925
  191POPC  H18R22073   5.755   4.397   8.178 -0.5493 -3.4817  0.7825
  191POPC  H18S22074   5.610   4.298   8.127 -0.4913 -0.3050  2.7019
  191POPC  H18T22075   5.582   4.453   8.209  1.2795  2.0922  0.6331
  191POPC   C3322076   5.211   4.835   6.393  0.4030 -0.3105 -0.9348
  191POPC   H3X22077   5.172   4.921   6.334  2.1355  3.6191  2.9771
  191POPC   H3Y22078   5.322   4.842   6.386  0.5311  0.6723  1.1853
  191POPC   C3422079   5.173   4.862   6.540  0.5335 -0.3998 -0.5105
  191POPC   H4X22080   5.071   4.828   6.570  0.2995 -1.6265 -2.4853
  191POPC   H4Y22081   5.169   4.973   6.553 -0.0766 -0.2935 -1.4205
  191POPC   C3522082   5.282   4.816   6.641  0.4238  0.1654 -0.0812
  191POPC   H5X22083   5.381   4.827   6.592  0.1173 -0.3817 -0.8411
  191POPC   H5Y22084   5.264   4.710   6.667 -1.4948  1.1680  3.1807
  191POPC   C3622085   5.258   4.904   6.772  0.3260 -0.3325  0.1540
  191POPC   H6X22086   5.153   4.896   6.807 -0.1189 -0.4247 -1.1367
  191POPC   H6Y22087   5.272   5.014   6.762 -1.0561  0.0608  2.1894
  191POPC   C3722088   5.343   4.860   6.892  0.9813 -0.4851 -0.0149
  191POPC   H7X22089   5.449   4.890   6.876  0.7984  0.3106  0.2128
  191POPC   H7Y22090   5.333   4.751   6.909 -0.4571 -0.2921  0.5749
  191POPC   C3822091   5.298   4.940   7.018  0.3243  0.2117 -0.3497
  191POPC   H8X22092   5.195   4.917   7.053  0.6940  1.1365  1.4184
  191POPC   H8Y22093   5.292   5.050   7.003 -1.2202  0.1427 -0.4392
  191POPC   C3922094   5.377   4.899   7.136 -0.4684 -0.8601  0.1528
  191POPC   H9X22095   5.483   4.932   7.125 -0.1662 -2.1402 -1.0731
  191POPC   H9Y22096   5.371   4.788   7.138 -0.0221 -0.9550 -1.7656
  191POPC  C31022097   5.330   4.953   7.271 -0.2466 -0.8570  0.1502
  191POPC  H10X22098   5.228   4.916   7.291 -0.2912 -1.0292 -0.3746
  191POPC  H10Y22099   5.322   5.064   7.264 -0.7590 -0.8024  1.4344
  191POPC  C31122100   5.400   4.908   7.397  0.4740  0.2550  0.5153
  191POPC  H11X22101   5.497   4.962   7.403 -0.3402  1.9285 -0.3863
  191POPC  H11Y22102   5.416   4.798   7.395  0.2060  0.2175  0.2939
  191POPC  C31222103   5.323   4.950   7.517 -0.1605  0.0103 -0.7803
  191POPC  H12X22104   5.217   4.919   7.525 -0.5432  1.1164 -1.3389
  191POPC  H12Y22105   5.328   5.061   7.514 -1.6081  0.3194  2.6754
  191POPC  C31322106   5.388   4.905   7.651  0.4289 -0.5031  0.2351
  191POPC  H13X22107   5.481   4.959   7.678  0.0486  0.5947 -0.5792
  191POPC  H13Y22108   5.412   4.796   7.656  0.1773 -0.6601 -1.4018
  191POPC  C31422109   5.301   4.925   7.779  0.4531  0.0167  0.2816
  191POPC  H14X22110   5.205   4.875   7.754  0.3217 -0.1000  1.0103
  191POPC  H14Y22111   5.281   5.034   7.786  1.0795  0.0664  1.4080
  191POPC  C31522112   5.366   4.884   7.905  0.1739 -0.6821 -0.0415
  191POPC  H15X22113   5.468   4.929   7.903 -0.0071 -0.2234  0.7768
  191POPC  H15Y22114   5.386   4.774   7.908  0.9024 -0.5304  1.9173
  191POPC  C31622115   5.297   4.919   8.034 -0.1634  0.3528  0.3068
  191POPC  H16X22116   5.193   4.879   8.032 -0.0646  0.0410  0.9386
  191POPC  H16Y22117   5.293   5.029   8.040 -0.0513  0.3121  1.2940
  191POPC  H16Z22118   5.362   4.883   8.117  1.0969 -1.3998 -1.3343
  192POPC     N22119   3.591   0.560   5.756  0.3810 -0.0033  0.3582
  192POPC   C1222120   3.466   0.640   5.740  0.3095 -0.0307 -0.4453
  192POPC  H12A22121   3.441   0.647   5.635 -1.4469 -1.4608 -0.1619
  192POPC  H12B22122   3.487   0.742   5.769  2.6005 -0.6367  0.2321
  192POPC   C1322123   3.706   0.623   5.681  0.0022  0.5832 -0.2387
  192POPC  H13A22124   3.801   0.575   5.699  0.4114  0.5025 -2.3488
  192POPC  H13B22125   3.689   0.636   5.575 -3.0140  0.9987  0.1958
  192POPC  H13C22126   3.728   0.719   5.727  1.3465 -0.5961  1.7431
  192POPC   C1422127   3.622   0.556   5.893 -0.5715 -0.5114 -0.6523
  192POPC  H14A22128   3.695   0.479   5.916 -1.4820 -0.5186  2.6647
  192POPC  H14B22129   3.676   0.644   5.925  1.1341 -2.0692  0.9847
  192POPC  H14C22130   3.536   0.525   5.950  0.2420 -0.7474  0.4805
  192POPC   C1522131   3.562   0.421   5.707 -0.3131 -0.0092  0.1113
  192POPC  H15A22132   3.516   0.431   5.610  0.4808  1.9828 -0.1198
  192POPC  H15B22133   3.493   0.384   5.781  1.2256  0.2634  1.7346
  192POPC  H15C22134   3.651   0.360   5.707  0.1535  0.6268 -0.9766
  192POPC   C1122135   3.333   0.596   5.817  0.0291 -0.0005  0.5624
  192POPC  H11A22136   3.308   0.489   5.801  0.1485 -0.1518  1.3265
  192POPC  H11B22137   3.253   0.646   5.759  0.6359 -0.6129 -0.8343
  192POPC     P22138   3.304   0.780   5.987 -0.5276 -0.1042  0.2176
  192POPC   O1322139   3.158   0.805   5.967  0.5535 -0.1563 -0.1669
  192POPC   O1422140   3.394   0.876   5.915 -0.3710 -0.5199  0.1493
  192POPC   O1222141   3.345   0.632   5.955 -0.4959  0.1121  0.2890
  192POPC   O1122142   3.341   0.792   6.136  0.4201 -0.3355 -0.0731
  192POPC    C122143   3.280   0.702   6.233  0.0344  0.0332  0.3909
  192POPC    HA22144   3.356   0.627   6.263 -1.7363 -1.2358  1.8981
  192POPC    HB22145   3.200   0.634   6.197  2.1622 -1.3911 -2.0033
  192POPC    C222146   3.207   0.779   6.341  0.2715 -0.1123 -1.2537
  192POPC    HS22147   3.123   0.830   6.289  1.9942  3.9078 -0.4781
  192POPC   O2122148   3.288   0.880   6.389 -0.2190  0.0520  0.0057
  192POPC   C2122149   3.247   0.976   6.466  0.1411 -0.1319  0.0258
  192POPC   O2222150   3.132   0.997   6.504  0.1646 -0.2974 -0.0411
  192POPC   C2222151   3.367   1.067   6.508 -0.0742 -0.7798 -0.9265
  192POPC   H2R22152   3.375   1.153   6.439  1.4012 -1.8638 -2.1579
  192POPC   H2S22153   3.460   1.015   6.477 -0.6120 -1.8958 -0.7261
  192POPC    C322154   3.151   0.695   6.462  0.2593  0.1341  0.0762
  192POPC    HX22155   3.100   0.607   6.417  0.4040 -0.2818  0.7233
  192POPC    HY22156   3.070   0.759   6.504 -1.0322  0.2054 -2.3758
  192POPC   O3122157   3.243   0.671   6.570 -0.0674  0.4180  0.2165
  192POPC   C3122158   3.306   0.553   6.564  0.1900 -0.0446 -0.0326
  192POPC   O3222159   3.314   0.475   6.469  0.1468 -0.3744 -0.4179
  192POPC   C3222160   3.393   0.537   6.683 -0.3125 -0.4519  0.1448
  192POPC   H2X22161   3.424   0.431   6.697  0.9884  0.1863  2.8375
  192POPC   H2Y22162   3.333   0.574   6.769 -0.2752 -0.2965  0.1039
  192POPC   C2322163   3.373   1.105   6.664  0.4886 -0.1323  0.0777
  192POPC   H3R22164   3.277   1.156   6.683  0.9478  0.8681 -0.2239
  192POPC   H3S22165   3.447   1.185   6.687 -1.2027  0.9434  2.1413
  192POPC   C2422166   3.392   0.981   6.760 -0.5471  0.0968  0.1428
  192POPC   H4R22167   3.493   0.936   6.755 -0.8726 -0.7319  0.7444
  192POPC   H4S22168   3.321   0.897   6.740 -1.7613  1.1945 -0.3778
  192POPC   C2522169   3.369   1.018   6.901 -0.3396 -0.5044  0.0985
  192POPC   H5R22170   3.305   0.940   6.947 -1.4799  0.9735  1.1170
  192POPC   H5S22171   3.315   1.115   6.906 -1.3919 -0.9492 -1.8670
  192POPC   C2622172   3.496   1.025   6.989  1.0868 -0.5069 -0.4967
  192POPC   H6R22173   3.579   1.073   6.932  1.3095  2.6710  2.1581
  192POPC   H6S22174   3.533   0.926   7.021  1.5242 -0.6254 -1.3516
  192POPC   C2722175   3.465   1.095   7.124  0.7933  0.7732  0.2525
  192POPC   H7R22176   3.386   1.035   7.173  0.5883  1.4075  0.7211
  192POPC   H7S22177   3.428   1.200   7.120  1.2466  0.9521  0.5495
  192POPC   C2822178   3.594   1.102   7.217  0.0343 -0.2901  0.3591
  192POPC   H8R22179   3.665   1.171   7.167  0.4406 -1.1378 -0.2686
  192POPC   H8S22180   3.643   1.002   7.217  0.8989  0.1051 -0.9876
  192POPC   C2922181   3.553   1.159   7.349 -0.0032  0.1235 -0.0814
  192POPC   H9122182   3.451   1.202   7.345 -1.2962 -2.4872  1.8954
  192POPC  C21022183   3.626   1.162   7.462  0.8834 -0.0765  0.0538
  192POPC  H10122184   3.584   1.224   7.542 -0.2809  0.2644 -0.7958
  192POPC  C21122185   3.760   1.100   7.464  0.3081  0.3429  0.1175
  192POPC  H11R22186   3.811   1.140   7.374  0.5735  3.3412  1.4580
  192POPC  H11S22187   3.751   0.989   7.463  1.4866  0.2303 -0.4802
  192POPC  C21222188   3.842   1.129   7.586  0.0379 -0.2399 -0.2624
  192POPC  H12R22189   3.878   1.234   7.587  2.8865 -1.1187 -0.7359
  192POPC  H12S22190   3.930   1.062   7.593 -1.1460 -2.0171 -1.5029
  192POPC  C21322191   3.775   1.107   7.721 -0.3610 -0.1531 -1.1640
  192POPC  H13R22192   3.754   1.000   7.740 -0.3440  0.0959  0.4139
  192POPC  H13S22193   3.672   1.146   7.735 -1.1459 -3.0457  2.8731
  192POPC  C21422194   3.866   1.172   7.832  0.5156  0.2466 -1.5785
  192POPC  H14R22195   3.875   1.281   7.815  1.0952  0.2541 -1.2682
  192POPC  H14S22196   3.968   1.126   7.831 -0.2405 -1.5247 -2.1516
  192POPC  C21522197   3.813   1.156   7.974  0.6324 -0.2921 -0.5361
  192POPC  H15R22198   3.813   1.053   8.015  0.3137  0.5189  1.6621
  192POPC  H15S22199   3.714   1.205   7.984  0.4759 -0.7766  0.3952
  192POPC  C21622200   3.906   1.216   8.080 -0.0487 -0.0177  0.1494
  192POPC  H16R22201   3.938   1.315   8.040 -0.1466  0.0721  0.2941
  192POPC  H16S22202   3.989   1.144   8.097 -1.6211 -2.2738 -1.1187
  192POPC  C21722203   3.834   1.238   8.217 -0.3651  0.2548  1.2968
  192POPC  H17R22204   3.753   1.313   8.206 -3.2068 -2.8598 -1.1322
  192POPC  H17S22205   3.917   1.279   8.278  1.2376 -0.7988 -0.0853
  192POPC  C21822206   3.788   1.115   8.290  0.0582  0.0465 -0.0164
  192POPC  H18R22207   3.734   1.145   8.381  0.7472  0.0721  0.3933
  192POPC  H18S22208   3.860   1.030   8.296  0.1070 -0.0788 -1.7036
  192POPC  H18T22209   3.717   1.057   8.227  2.3507 -0.7730 -2.0331
  192POPC   C3322210   3.518   0.629   6.679 -0.2474  0.3589 -0.1736
  192POPC   H3X22211   3.486   0.732   6.652 -1.9243 -0.0085  0.2954
  192POPC   H3Y22212   3.594   0.593   6.606  2.1590  2.7970  0.9652
  192POPC   C3422213   3.575   0.633   6.817  0.3869 -0.0478  0.3320
  192POPC   H4X22214   3.582   0.526   6.846 -0.2424 -0.4277 -0.8311
  192POPC   H4Y22215   3.504   0.678   6.890 -1.8815 -1.6198 -0.7780
  192POPC   C3522216   3.705   0.702   6.837  0.1212 -0.5399  0.1319
  192POPC   H5X22217   3.678   0.810   6.836  0.7385 -0.3880 -1.4274
  192POPC   H5Y22218   3.779   0.681   6.757  0.8593  0.3686  0.5639
  192POPC   C3622219   3.780   0.655   6.961  0.0801 -0.4685 -0.1095
  192POPC   H6X22220   3.889   0.674   6.950 -0.1553  0.3035 -1.2724
  192POPC   H6Y22221   3.773   0.545   6.949 -1.9126 -0.2217 -1.9322
  192POPC   C3722222   3.734   0.715   7.094  0.2999  0.5686 -0.1826
  192POPC   H7X22223   3.623   0.708   7.100  0.3826 -2.4935 -0.7597
  192POPC   H7Y22224   3.776   0.818   7.089  3.2268 -0.5323 -0.1927
  192POPC   C3822225   3.798   0.643   7.218  0.3834 -0.8343  0.1023
  192POPC   H8X22226   3.905   0.622   7.196 -0.8755 -3.1054 -6.2317
  192POPC   H8Y22227   3.741   0.550   7.236  1.4097 -1.1546  1.9512
  192POPC   C3922228   3.769   0.721   7.348 -0.5060  0.0828  0.2265
  192POPC   H9X22229   3.660   0.740   7.351 -0.8713 -1.7071 -0.1417
  192POPC   H9Y22230   3.825   0.817   7.349 -0.2780 -0.0031 -1.3229
  192POPC  C31022231   3.809   0.621   7.463  0.4608 -0.5041  0.1318
  192POPC  H10X22232   3.918   0.605   7.457  0.4920 -0.0044 -0.7532
  192POPC  H10Y22233   3.761   0.522   7.447 -2.7291  1.1055 -1.1808
  192POPC  C31122234   3.767   0.688   7.591  0.3621 -0.0228  0.2810
  192POPC  H11X22235   3.658   0.711   7.596  0.3619 -0.2621  1.8974
  192POPC  H11Y22236   3.817   0.787   7.586 -2.0868  1.2535 -0.2342
  192POPC  C31222237   3.810   0.605   7.714  0.7614  0.1828  0.6164
  192POPC  H12X22238   3.918   0.586   7.701  0.6642 -1.3819  1.6919
  192POPC  H12Y22239   3.751   0.510   7.721 -1.6970  1.6503  1.2065
  192POPC  C31322240   3.784   0.680   7.847 -0.0478  0.2566  0.2371
  192POPC  H13X22241   3.827   0.782   7.835 -2.1629  0.9656 -2.2419
  192POPC  H13Y22242   3.835   0.622   7.927  1.3093  0.7182 -0.2566
  192POPC  C31422243   3.629   0.689   7.871 -0.2737 -0.1539 -0.5910
  192POPC  H14X22244   3.603   0.589   7.911 -2.1883 -0.0194 -1.4022
  192POPC  H14Y22245   3.572   0.706   7.777  1.3077  1.2759 -1.3616
  192POPC  C31522246   3.587   0.797   7.976  0.1454  0.4816 -0.3022
  192POPC  H15X22247   3.476   0.793   7.981  0.1849 -0.0551  0.2305
  192POPC  H15Y22248   3.619   0.890   7.925 -0.4227  0.3938 -0.8357
  192POPC  C31622249   3.648   0.788   8.116 -0.6136  0.3422 -0.2434
  192POPC  H16X22250   3.597   0.853   8.189  1.1382 -0.9868  2.3350
  192POPC  H16Y22251   3.753   0.823   8.121  0.1303 -1.5915 -1.0745
  192POPC  H16Z22252   3.638   0.687   8.162 -0.4983  0.7218  0.6225
  193SOD    SOD22253   4.611   1.137   4.061  0.0147  0.5879 -0.3943
  194SOD    SOD22254   4.516   1.006  15.028  0.0083 -0.1104  0.3898
  195SOD    SOD22255   5.056   1.556   0.276 -0.1599  0.0688 -0.4956
  196SOD    SOD22256   0.115   2.723  15.547  0.3730 -0.3435  0.3012
  197SOD    SOD22257   6.062   6.733  15.319 -0.0520 -0.0155 -0.0406
  198SOD    SOD22258   2.218   0.185   4.737 -0.3853  0.2740  0.1174
  199SOD    SOD22259   1.985   6.662  14.748 -0.0261 -0.3883  0.2220
  200SOD    SOD22260   0.542   4.768   4.310 -0.1026  0.0702  0.1120
  201SOD    SOD22261   3.731   6.566  14.702 -0.1220  0.0129 -0.3888
  202SOD    SOD22262   5.272   4.874  15.236  0.3152 -0.2174  0.1096
  203SOD    SOD22263   2.432   1.049  13.542  0.1951 -0.5994 -0.3462
  204SOD    SOD22264   4.534   0.891   2.358 -0.1274  0.4427 -0.1928
  205SOD    SOD22265   1.751   6.065  13.375  0.7276 -0.2259  0.5488
  206SOD    SOD22266   1.444   4.134  16.617  0.3905  0.5371  0.2789
  207SOD    SOD22267   3.585   5.042   1.161 -0.2949  0.1204 -0.1185
  208SOD    SOD22268   6.072   6.005   6.373 -0.1727  0.0569 -0.1453
  209SOD    SOD22269   0.936   5.383   4.538 -0.1644  0.3797  0.1037
  210SOD    SOD22270   5.565   3.336   3.725 -0.3911 -0.2105 -0.3354
  211SOD    SOD22271   0.804   0.408   0.877  0.2081 -0.0422  0.1227
  212SOD    SOD22272   1.427   0.241   1.599 -0.0952 -0.1305 -0.4944
  213SOD    SOD22273   0.016   1.096  11.786  0.3687  0.5885 -0.0213
  214SOD    SOD22274   4.017   2.557  15.071  0.1967  0.6313 -0.3281
  215SOD    SOD22275   4.428   0.322  12.583 -0.1722  0.7183  0.0694
  216SOD    SOD22276   0.661   6.119  10.998  0.7415  0.1009  0.3963
  217SOD    SOD22277   6.586   4.253  11.464  0.3769 -0.1642  0.0513
  218SOD    SOD22278   3.054   3.936   4.740 -0.4159  0.0254 -0.0311
  219SOD    SOD22279   3.970   2.742  13.715 -0.5715  0.4160 -0.5874
  220SOD    SOD22280   2.181   1.631  11.209 -0.1098 -0.0449 -0.1404
  221SOD    SOD22281   3.603   5.759  11.841 -0.5662  0.3155 -0.1005
  222SOD    SOD22282   4.424   4.244  15.803 -0.2201 -0.3454 -0.1489
  223SOD    SOD22283   1.648   2.501  10.768  0.0279 -0.3750  0.6683
  224SOD    SOD22284   5.280   4.241   5.908 -0.0755 -0.0080 -0.1176
  225SOD    SOD22285   2.247   0.042   0.796  0.4307  0.3605 -0.3958
  226SOD    SOD22286   1.429   4.464  11.879  0.1384 -0.3602 -0.1614
  227SOD    SOD22287   4.575   0.859  12.102  0.3246  0.4732  0.0277
  228SOD    SOD22288   3.567   3.797  11.326  0.2397  0.0963  0.2413
  229SOD    SOD22289   1.717   4.866   1.735 -0.2384 -0.0979 -0.0780
  230SOD    SOD22290   6.399   4.489  13.306  0.1246  0.1621 -0.0137
  231SOD    SOD22291   5.746   3.830   1.041  0.1914 -0.0297 -0.3420
  232SOD    SOD22292   1.086   3.628   2.474  0.2050  0.6563 -0.0534
  233SOD    SOD22293   1.745   5.889   6.105 -0.2390 -0.0494  0.1622
  234SOD    SOD22294   2.790   6.140   5.184 -0.5092  0.1141  0.0384
  235SOD    SOD22295   1.664   5.548  13.963 -0.0891 -0.1851 -0.1359
  236SOD    SOD22296   3.311   3.924   6.171 -0.1035 -0.1634 -0.0692
  237SOD    SOD22297   2.955   2.364  16.035 -0.1208 -0.1761  0.0306
  238SOD    SOD22298   0.502   4.850  16.267  0.4884 -0.2673 -0.0809
  239SOD    SOD22299   0.442   6.589  12.123  0.4281  0.1786  0.0349
  240SOD    SOD22300   6.036   3.131   5.600 -0.4369 -0.1425  0.6010
  241SOD    SOD22301   3.864   3.097  16.730  0.2375 -0.0625 -0.2605
  242SOD    SOD22302   0.494   1.772   3.302  0.0669 -0.4389 -0.3527
  243SOD    SOD22303   4.456   1.923  12.825  0.6727 -0.3153  0.3565
  244SOD    SOD22304   2.658   0.382  11.954  0.2669  0.4447  0.2454
  245SOD    SOD22305   3.196   1.232  15.116 -0.5751 -0.0462 -0.5627
  246SOD    SOD22306   2.540   5.068   2.279  0.3063 -0.5566 -0.4783
  247SOD    SOD22307   1.139   0.166  11.604 -0.1735  0.2988 -0.0405
  248SOD    SOD22308   4.802   4.190   5.545  0.2828 -0.1527  0.3245
  249SOD    SOD22309   1.136   5.195   6.497 -0.1924 -0.1636  0.2880
  250SOD    SOD22310   3.887   3.065  15.910  0.3483 -0.6006  0.9041
  251SOD    SOD22311   0.223   0.895   4.244  0.6853  0.5340 -0.3497
  252SOD    SOD22312   1.601   1.570   2.965 -0.0304  0.0925 -0.3771
  253SOD    SOD22313   0.435   0.282   5.805  0.5068 -0.4954 -0.2442
  254SOD    SOD22314   2.727   4.761   5.245 -0.0760 -0.6595 -0.2956
  255SOD    SOD22315   0.859   3.388  11.252 -0.4827  0.1431 -0.0466
  256SOD    SOD22316   2.228   3.946   1.432 -0.2327 -0.0535 -0.0304
  257SOD    SOD22317   0.864   2.291  11.232  0.6409  0.3379  0.0624
  258SOD    SOD22318   3.617   3.590   5.348  0.3796 -0.5191 -0.1097
  259SOD    SOD22319   2.692   6.042   1.525 -0.0220  0.1967  0.1962
  260SOD    SOD22320   3.826   3.301  12.039 -0.6841  0.0517  0.1724
  261SOD    SOD22321   6.363   2.007  10.486 -0.2876 -0.3911 -0.0159
  262SOD    SOD22322   3.202   0.428   0.949  0.3606 -0.1502  0.4562
  263SOD    SOD22323   6.096   5.225   4.206 -0.2707  0.0969  0.1797
  264SOD    SOD22324   6.633   0.958  14.558 -0.0486  0.0992  0.1490
  265SOD    SOD22325   4.783   1.746  11.745  0.3182  0.2944  0.4972
  266SOD    SOD22326   5.846   3.197  10.428 -0.0733 -0.0847 -0.4150
  267SOD    SOD22327   0.272   6.102  15.862 -0.0273 -0.0651  0.0875
  268SOD    SOD22328   2.199   0.115   5.418 -0.5000  0.1802  0.1449
  269SOD    SOD22329   5.597   4.519  11.289  0.1427  0.0258  0.1247
  270CLA    CLA22330   1.174   3.832  12.007 -0.1323 -0.3237  0.1245
  271CLA    CLA22331   1.491   2.360   3.957 -0.2176  0.5888  0.4429
  272CLA    CLA22332   0.472   2.835   0.010  0.0940 -0.3075 -0.0119
  273CLA    CLA22333   4.103   3.737  11.606  0.3670  0.0037  0.1974
  274CLA    CLA22334   2.186   4.986  12.373 -0.0952  0.3537 -0.2755
  275CLA    CLA22335   6.218   3.156  12.566 -0.5038  0.3167  0.0835
  276CLA    CLA22336   2.933   3.253  16.236 -0.2509 -0.8354 -0.1613
  277CLA    CLA22337   3.500   0.449   3.447  0.4421 -0.0504  0.2046
  278CLA    CLA22338   0.532   4.498  17.224  0.0510  0.3453 -0.1039
  279CLA    CLA22339   0.149   3.928   0.196 -0.2108  0.1866  0.1781
  280CLA    CLA22340   2.883   0.101   5.147 -0.2510 -0.3954  0.1505
  281CLA    CLA22341   1.756   6.470   1.350  0.1147  0.1758 -0.0463
  282CLA    CLA22342   4.838   2.399  12.503  0.0603  0.0612 -0.5772
  283CLA    CLA22343   2.940   1.162  14.526  0.4149  0.0644 -0.0644
  284CLA    CLA22344   2.413   1.273  13.663  0.3687  0.0041  0.0830
  285CLA    CLA22345   2.921   0.024  15.931 -0.2417  0.2144  0.1876
  286CLA    CLA22346   5.774   4.588   0.836  0.3316  0.0644  0.0298
  287CLA    CLA22347   5.488   1.767  15.110 -0.3584 -0.2767  0.3980
  288CLA    CLA22348   4.141   2.646  12.129  0.1033  0.3011  0.4076
  289CLA    CLA22349   2.598   0.639  16.518  0.4946  0.2527  0.0752
  290CLA    CLA22350   1.890   5.859   2.411 -0.0140 -0.0772 -0.1465
  291CLA    CLA22351   5.145   0.897   2.128  0.0356  0.1512  0.6382
  292CLA    CLA22352   5.339   3.449  16.041  0.1579  0.3393 -0.2449
  293CLA    CLA22353   4.101   2.356  14.014  0.1134 -0.1414  0.0716
  294CLA    CLA22354   3.068   4.939   0.937 -0.0331 -0.0835 -0.1614
  295CLA    CLA22355   2.806   6.418   2.678  0.4987  0.0684 -0.0776
  296CLA    CLA22356   4.925   4.239  16.003  0.1064  0.2545 -0.4134
  297CLA    CLA22357   1.327   5.585  16.729  0.0247  0.2520 -0.4562
  298CLA    CLA22358   0.724   6.247  16.428 -0.2415 -0.1045  0.1902
  299CLA    CLA22359   4.860   2.997  15.439  0.1782  0.0463  0.0931
  300CLA    CLA22360   2.717   2.212  13.755  0.5752 -0.2773 -0.3087
  301CLA    CLA22361   6.640   5.730   4.210 -0.4327 -0.1514  0.5485
  302CLA    CLA22362   0.106   6.103   2.819 -0.1598  0.4469 -0.0980
  303CLA    CLA22363   4.773   1.102  11.758 -0.3610 -0.0368 -0.4774
  304CLA    CLA22364   1.381   0.218  12.704  0.0510 -0.2538 -0.0537
  305CLA    CLA22365   0.436   3.333   2.246 -0.0417 -0.0914 -0.0808
  306CLA    CLA22366   2.622   4.425  16.776  0.0193  0.2222 -0.2609
  307CLA    CLA22367   4.459   1.652  11.443  0.5154 -0.2627  0.1771
  308CLA    CLA22368   0.557   5.504   2.260 -0.0774  0.3056 -0.2896
  309CLA    CLA22369   4.309   6.724  16.577 -0.1169  0.4190 -0.0884
  310CLA    CLA22370   3.051   3.221   4.664  0.1148  0.0964  0.5261
  311CLA    CLA22371   2.202   5.009  13.423 -0.2436  0.0677  0.4315
  312CLA    CLA22372   3.455   3.950   5.219 -0.2930 -0.0788 -0.0034
  313CLA    CLA22373   2.563   2.073  16.256 -0.1240 -0.0257 -0.6420
  314CLA    CLA22374   6.664   4.799  15.706  0.0878  0.0496 -0.1240
  315CLA    CLA22375   4.613   3.216  16.687 -0.0058 -0.1785  0.3694
  316CLA    CLA22376   5.221   0.768   4.233  0.1027 -0.2455 -0.1926
  317CLA    CLA22377   3.038   2.083  15.275  0.2229 -0.1655 -0.4124
  318CLA    CLA22378   3.311   0.948   4.359 -0.3695 -0.1491 -0.2663
  319CLA    CLA22379   3.796   3.486   3.779 -0.6150 -0.4539  0.1239
  320CLA    CLA22380   5.868   1.487  11.900  0.1246  0.1564 -0.3098
  321CLA    CLA22381   1.055   0.937  14.646 -0.3296  0.1542 -0.0132
  322CLA    CLA22382   5.937   5.177  13.410  0.1558 -0.0232 -0.3501
  323TIP3   OH222383   0.374   6.627   3.693  0.9901 -0.2456  0.6825
  323TIP3    H122384   0.416   6.655   3.774  1.7479 -1.5930  0.7662
  323TIP3    H222385   0.281   6.620   3.715  1.1668 -0.4099  1.3693
  324TIP3   OH222386   1.075   6.120   4.906  0.8701 -0.2123 -0.1892
  324TIP3    H122387   1.014   6.137   4.834 -1.5841 -1.2874  1.4897
  324TIP3    H222388   1.159   6.153   4.874 -0.5275  1.2955 -2.6870
  325TIP3   OH222389   5.345   6.006  13.995  0.7757  0.2146  0.2055
  325TIP3    H122390   5.293   5.953  13.935  0.3429 -0.1382  0.8828
  325TIP3    H222391   5.351   5.954  14.075  2.4194  0.1204  0.0506
  326TIP3   OH222392   5.609   2.169  11.612 -0.2783 -0.1904  0.8977
  326TIP3    H122393   5.624   2.214  11.695  0.7795  0.5719  0.3172
  326TIP3    H222394   5.651   2.225  11.546 -1.4847 -0.5419 -0.2185
  327TIP3   OH222395   5.902   4.575  10.949 -0.1430  0.8639  0.0081
  327TIP3    H122396   5.955   4.648  10.982 -0.7017  1.4844 -0.4386
  327TIP3    H222397   5.828   4.617  10.906  0.4872  0.0714 -1.9254
  328TIP3   OH222398   5.528   5.252  15.536 -0.0977 -0.1152  0.4405
  328TIP3    H122399   5.607   5.287  15.578 -0.7060  2.0387 -0.0464
  328TIP3    H222400   5.475   5.217  15.607  0.4964  0.1045  0.9980
  329TIP3   OH222401   6.585   4.481  11.522  0.8115 -0.2768  0.4782
  329TIP3    H122402   6.649   4.532  11.473 -0.2277 -0.8855 -1.6523
  329TIP3    H222403   6.514   4.542  11.540  0.0547 -0.6131 -1.1204
  330TIP3   OH222404   4.917   5.171   0.221  0.4337  0.0467 -0.3965
  330TIP3    H122405   5.000   5.132   0.248  1.0912  1.3147 -0.5303
  330TIP3    H222406   4.942   5.250   0.175 -0.8662  0.5664 -0.2365
  331TIP3   OH222407   4.078   5.688  12.223  0.2343 -0.7779 -0.1574
  331TIP3    H122408   4.169   5.660  12.231  0.8658  0.7575 -1.4836
  331TIP3    H222409   4.070   5.761  12.285  0.0317 -0.6105 -0.3815
  332TIP3   OH222410   1.914   2.316   5.392 -0.8130  0.2347  0.1978
  332TIP3    H122411   1.855   2.243   5.372  0.6224 -1.3205  1.3243
  332TIP3    H222412   1.894   2.337   5.484  1.2540 -1.2833  1.0756
  333TIP3   OH222413   0.415   2.285  17.407  0.4585 -0.5828  0.3266
  333TIP3    H122414   0.375   2.317  17.487  1.0582 -1.3298  0.9426
  333TIP3    H222415   0.418   2.361  17.349 -0.6063 -0.1994  0.7486
  334TIP3   OH222416   4.761   1.835  16.544 -0.1756 -0.5680  0.2016
  334TIP3    H122417   4.742   1.804  16.456 -0.5420  1.1224 -0.3667
  334TIP3    H222418   4.717   1.773  16.602 -0.2525 -1.4879 -0.8245
  335TIP3   OH222419   5.581   5.133  10.242  0.6810  0.2336 -0.2840
  335TIP3    H122420   5.602   5.155  10.151  1.0838 -0.0601 -0.2630
  335TIP3    H222421   5.654   5.169  10.293  0.6079  0.1325 -0.1078
  336TIP3   OH222422   4.296   0.528  15.106  0.0527  0.0373 -0.3497
  336TIP3    H122423   4.234   0.543  15.177  1.8182 -0.2320  1.3421
  336TIP3    H222424   4.381   0.552  15.143  1.0940 -0.4258 -2.2905
  337TIP3   OH222425   2.827   1.975  16.432  0.1487 -0.6452  0.2382
  337TIP3    H122426   2.749   2.009  16.388  1.0832  1.2842 -0.0594
  337TIP3    H222427   2.857   1.904  16.376  1.2319  1.6507 -2.3511
  338TIP3   OH222428   4.840   4.046   4.636  0.2403  0.3446  0.4725
  338TIP3    H122429   4.784   4.082   4.705  0.2860  0.7696  0.2922
  338TIP3    H222430   4.902   3.989   4.682  0.3950  0.7760  0.8119
  339TIP3   OH222431   5.219   6.509   5.078  0.3881  0.0962  0.6403
  339TIP3    H122432   5.245   6.463   5.158  0.3880 -1.4907 -0.2460
  339TIP3    H222433   5.125   6.494   5.071  0.4332  0.0198  0.2050
  340TIP3   OH222434   1.005   4.786   2.003 -0.3694  0.3044 -0.2783
  340TIP3    H122435   1.019   4.845   2.077 -1.9754  1.2985 -0.7173
  340TIP3    H222436   0.922   4.742   2.023  0.1600 -0.8788 -0.5781
  341TIP3   OH222437   5.536   0.471  13.254  0.7165  0.0864  0.1278
  341TIP3    H122438   5.460   0.480  13.197  0.5868  0.0167  0.2857
  341TIP3    H222439   5.571   0.559  13.261 -0.8517  0.6417  2.0789
  342TIP3   OH222440   0.962   4.351  15.950  0.7699  0.5043 -0.3831
  342TIP3    H122441   0.981   4.332  15.859 -0.8680 -0.1153 -0.6153
  342TIP3    H222442   0.939   4.444  15.951  2.2114  0.8812 -0.3388
  343TIP3   OH222443   3.087   2.019   3.483  0.1340  0.2594  0.5339
  343TIP3    H122444   3.175   2.047   3.457  0.0895 -1.0711 -1.2495
  343TIP3    H222445   3.073   1.939   3.434 -1.4428 -0.4715  2.0950
  344TIP3   OH222446   1.792   1.611   2.650 -0.0720  0.2357  0.5038
  344TIP3    H122447   1.705   1.651   2.647 -0.0339  0.3258  0.6001
  344TIP3    H222448   1.805   1.590   2.742  1.0697  2.5719  0.9478
  345TIP3   OH222449   0.315   2.422   5.430 -0.2526  0.3162 -0.1920
  345TIP3    H122450   0.274   2.448   5.513 -1.8293 -2.2526 -0.0529
  345TIP3    H222451   0.352   2.335   5.448  1.1071  0.5359 -1.6804
  346TIP3   OH222452   3.203   2.143   3.054 -0.2728  0.1674  0.3536
  346TIP3    H122453   3.147   2.075   3.092 -1.4604  0.4839 -0.7598
  346TIP3    H222454   3.204   2.213   3.120 -1.6050  0.3567  0.1959
  347TIP3   OH222455   4.841   6.041   0.805 -0.0951 -0.2641  0.2171
  347TIP3    H122456   4.831   6.083   0.890  1.7523 -0.0463  0.3583
  347TIP3    H222457   4.756   6.052   0.763 -1.0822 -0.4790  2.0634
  348TIP3   OH222458   5.616   3.445  14.484 -0.0493 -0.0194  0.1155
  348TIP3    H122459   5.707   3.414  14.491  0.0313 -0.0613 -0.9855
  348TIP3    H222460   5.620   3.536  14.514  0.7154  0.5488 -1.5520
  349TIP3   OH222461   2.223   0.863  13.940 -0.1896  0.1114  0.4888
  349TIP3    H122462   2.312   0.900  13.945  0.0208 -0.1052 -1.0206
  349TIP3    H222463   2.235   0.770  13.961  0.1621 -0.1611 -0.7935
  350TIP3   OH222464   3.535   3.944   6.160 -0.6160  0.6343 -0.8332
  350TIP3    H122465   3.572   3.948   6.248 -0.5313  1.8491 -0.9113
  350TIP3    H222466   3.556   3.855   6.130 -3.0954 -0.8619  1.4147
  351TIP3   OH222467   3.911   3.023   1.419 -0.2442 -0.0996  0.3491
  351TIP3    H122468   3.829   2.978   1.399 -1.2226  1.4494  0.7326
  351TIP3    H222469   3.934   2.992   1.507  0.4161 -1.6753 -0.3407
  352TIP3   OH222470   2.680   1.482   3.732 -0.1170 -0.2038  0.3912
  352TIP3    H122471   2.727   1.417   3.784 -1.1089 -1.1435  0.1564
  352TIP3    H222472   2.665   1.555   3.792  0.2495 -0.5584  0.9149
  353TIP3   OH222473   1.685   2.431  11.008  0.3963  0.1328 -0.2530
  353TIP3    H122474   1.624   2.504  11.021 -0.8597 -0.8183 -0.6195
  353TIP3    H222475   1.764   2.458  11.053 -0.3275  1.3716  0.3284
  354TIP3   OH222476   1.322   3.373  11.892 -0.5912 -0.5752 -0.8081
  354TIP3    H122477   1.268   3.403  11.819  0.2919  1.0302 -0.8500
  354TIP3    H222478   1.333   3.451  11.947 -1.4609 -1.8081  1.2025
  355TIP3   OH222479   3.567   6.671   5.017  0.0719  0.4573 -0.6165
  355TIP3    H122480   3.493   6.645   4.962 -1.1542  1.2578  0.5690
  355TIP3    H222481   3.526   6.696   5.100  1.6681  1.2022 -0.0232
  356TIP3   OH222482   4.320   0.006  13.665  0.5853  0.2937  0.4631
  356TIP3    H122483   4.328  -0.087  13.644  0.0476  0.5195 -0.8181
  356TIP3    H222484   4.308   0.049  13.581 -0.4203  1.4015  1.1358
  357TIP3   OH222485   5.418   2.424  11.663 -0.1025 -0.2624  0.2732
  357TIP3    H122486   5.425   2.441  11.757  0.4939  0.4976  0.1115
  357TIP3    H222487   5.470   2.346  11.648  1.0044  0.4344  0.3778
  358TIP3   OH222488   1.986   5.385   1.332 -0.3984  0.3870  0.7727
  358TIP3    H122489   1.991   5.401   1.238  1.9038  3.6182  1.2589
  358TIP3    H222490   1.893   5.386   1.353 -1.0322 -1.5875 -1.5395
  359TIP3   OH222491   0.670   4.120  14.258  0.0460 -0.3475  0.4916
  359TIP3    H122492   0.682   4.172  14.338 -0.0641 -0.9351  0.8949
  359TIP3    H222493   0.660   4.185  14.189  1.9004  0.1808  0.6738
  360TIP3   OH222494   0.559   6.499  12.384  0.0076 -0.4523  0.0227
  360TIP3    H122495   0.521   6.498  12.472  0.5033 -0.1935  0.2437
  360TIP3    H222496   0.653   6.512  12.399 -0.1015  1.1837 -0.6071
  361TIP3   OH222497   2.932   3.725   0.786  1.0159  0.4315  0.0870
  361TIP3    H122498   3.002   3.786   0.761 -0.0886  2.7335  2.1892
  361TIP3    H222499   2.966   3.680   0.863  0.1229  1.8800  1.3880
  362TIP3   OH222500   3.241   3.899  12.364  0.4257  0.6583 -0.2445
  362TIP3    H122501   3.197   3.956  12.427 -1.3067 -1.1180  0.2532
  362TIP3    H222502   3.267   3.822  12.415  0.8354  0.0757 -1.2996
  363TIP3   OH222503   0.674   1.708  14.471  0.3888 -0.1314 -0.3735
  363TIP3    H122504   0.756   1.711  14.521 -1.2553 -0.6996  2.6216
  363TIP3    H222505   0.696   1.659  14.392  2.6054 -1.8468  1.1691
  364TIP3   OH222506   1.361   1.309  17.402  0.0405 -0.1693  0.0029
  364TIP3    H122507   1.403   1.320  17.487 -0.2890 -0.6235  0.2272
  364TIP3    H222508   1.417   1.359  17.342  0.7541 -0.5537  0.3327
  365TIP3   OH222509   5.682   2.103  10.626 -0.0111 -0.4285 -0.0129
  365TIP3    H122510   5.701   2.022  10.578  0.3680 -0.5290  0.3070
  365TIP3    H222511   5.767   2.142  10.643 -0.0882 -0.7444  1.1762
  366TIP3   OH222512   2.173   4.988  14.359 -0.0790 -0.5366  0.5730
  366TIP3    H122513   2.108   5.051  14.328  0.2423  1.4456  3.5179
  366TIP3    H222514   2.224   5.036  14.424  4.7270 -1.7756 -1.7831
  367TIP3   OH222515   3.901   1.517   4.130  0.4363  0.0846 -0.4662
  367TIP3    H122516   3.884   1.574   4.054  2.7675 -1.0179 -1.9194
  367TIP3    H222517   3.928   1.434   4.092 -1.9657 -1.8088  1.6087
  368TIP3   OH222518   1.734   5.860   5.838 -0.2181 -0.2972  0.5253
  368TIP3    H122519   1.818   5.889   5.801  0.7069  0.7641  3.1954
  368TIP3    H222520   1.668   5.900   5.782  1.0367 -0.0811 -0.8838
  369TIP3   OH222521   3.855   4.086  13.090  0.0529  0.4363 -0.7517
  369TIP3    H122522   3.928   4.113  13.146 -0.9824  1.8577 -0.0256
  369TIP3    H222523   3.892   4.084  13.002  1.6289 -1.4797 -0.1265
  370TIP3   OH222524   2.051   4.205  15.532  0.4683 -0.2682 -0.3998
  370TIP3    H122525   2.078   4.221  15.442 -0.1592  0.4322 -0.4813
  370TIP3    H222526   2.098   4.271  15.583 -0.6777  0.6484 -0.4836
  371TIP3   OH222527   4.469   3.532  17.047  0.2694  0.7594 -0.0363
  371TIP3    H122528   4.561   3.559  17.046  0.4409  0.3160  1.4909
  371TIP3    H222529   4.469   3.441  17.018  0.4590  0.4387  0.9182
  372TIP3   OH222530   1.711   0.365   1.235 -0.3391  0.4873  0.7464
  372TIP3    H122531   1.688   0.431   1.300 -1.4468  1.8728 -0.9637
  372TIP3    H222532   1.777   0.311   1.278  1.2518  3.1843  1.9492
  373TIP3   OH222533   4.299   1.571  10.734  0.0599 -0.3427 -0.6336
  373TIP3    H122534   4.344   1.491  10.762 -0.9851  0.2659  3.5596
  373TIP3    H222535   4.216   1.570  10.783 -0.5150  2.7453 -1.3281
  374TIP3   OH222536   1.529   6.357  16.462 -0.0767  0.0444  0.5134
  374TIP3    H122537   1.471   6.379  16.388 -0.1592 -0.0881  0.5390
  374TIP3    H222538   1.615   6.389  16.434 -0.2072  0.4574  0.5738
  375TIP3   OH222539   3.273   0.685  14.663  0.2546 -0.0420  0.5306
  375TIP3    H122540   3.288   0.779  14.675 -1.6191  0.3181  0.3817
  375TIP3    H222541   3.354   0.652  14.624  1.3268  1.2990  1.5139
  376TIP3   OH222542   4.692   5.443  15.488  0.1047  0.4925  0.0500
  376TIP3    H122543   4.600   5.429  15.466 -0.3070  2.1971  0.5384
  376TIP3    H222544   4.710   5.380  15.558 -0.3307 -0.6664 -0.8519
  377TIP3   OH222545   2.139   5.886   2.876 -0.1802  0.0893 -0.4940
  377TIP3    H122546   2.126   5.793   2.894 -1.5917  0.4529  0.5782
  377TIP3    H222547   2.057   5.915   2.838 -0.0069  1.0321 -0.1950
  378TIP3   OH222548   4.104   4.827  15.837 -0.6005 -0.1790 -0.1159
  378TIP3    H122549   4.026   4.879  15.853 -0.9488 -0.3559 -1.2160
  378TIP3    H222550   4.103   4.760  15.906 -0.1881  1.1716  1.2672
  379TIP3   OH222551   0.327   3.410  10.642 -0.2139 -0.4548 -0.1385
  379TIP3    H122552   0.359   3.470  10.710 -0.5695  0.6227 -0.9014
  379TIP3    H222553   0.232   3.413  10.651 -0.2487 -0.6170 -0.4418
  380TIP3   OH222554   1.932   1.354  10.906 -0.3787 -0.5552  0.6086
  380TIP3    H122555   1.855   1.314  10.946  0.2966 -1.3653  1.1462
  380TIP3    H222556   1.977   1.396  10.979 -0.8177  0.7945  0.1316
  381TIP3   OH222557   2.401   6.430  15.406  0.3033 -0.0074 -0.4327
  381TIP3    H122558   2.410   6.336  15.423  1.4968 -0.1106 -1.4060
  381TIP3    H222559   2.422   6.472  15.489 -1.6251 -0.6034  0.4070
  382TIP3   OH222560   1.250   5.092  16.261 -0.1876 -0.2942  0.2712
  382TIP3    H122561   1.256   5.051  16.347 -2.0014 -0.8832  0.1667
  382TIP3    H222562   1.156   5.109  16.249 -0.0163 -0.5146 -1.7100
  383TIP3   OH222563   5.636   3.845   1.674 -0.0906 -0.3639 -0.1376
  383TIP3    H122564   5.701   3.826   1.742  1.3071  1.2079 -0.9356
  383TIP3    H222565   5.556   3.804   1.705  0.9386 -1.2185  1.5736
  384TIP3   OH222566   3.790   1.212  11.418  0.8120  0.1783 -0.0410
  384TIP3    H122567   3.845   1.289  11.427  0.0295  0.6692  0.7149
  384TIP3    H222568   3.842   1.141  11.456 -0.5473  1.3515  4.7242
  385TIP3   OH222569   4.218   0.992   3.052  0.3378  0.0081  0.2356
  385TIP3    H122570   4.283   0.922   3.062  0.1390 -0.4625 -1.4724
  385TIP3    H222571   4.139   0.957   3.095  0.9158  0.2074  1.5122
  386TIP3   OH222572   2.156   5.921   2.224 -0.8451  0.0486 -0.2837
  386TIP3    H122573   2.191   5.835   2.199  0.7479  0.3830  0.5852
  386TIP3    H222574   2.081   5.901   2.280 -0.7780 -0.7748 -0.4720
  387TIP3   OH222575   1.927   5.895   4.417  0.2448  0.3417 -0.3944
  387TIP3    H122576   1.910   5.896   4.323 -0.3111 -0.2448 -0.3023
  387TIP3    H222577   2.008   5.946   4.427 -1.0334  2.6305 -0.9163
  388TIP3   OH222578   6.063   1.411   2.079  0.6771 -0.0699  0.4643
  388TIP3    H122579   6.051   1.385   2.171 -0.3020 -0.5792  0.2115
  388TIP3    H222580   6.005   1.352   2.031  0.3722  0.8932 -0.3831
  389TIP3   OH222581   0.371   3.089   5.814  0.0094 -0.1417  0.3572
  389TIP3    H122582   0.424   3.151   5.864  1.4233 -1.8879  1.1667
  389TIP3    H222583   0.286   3.131   5.805  1.0120  2.0543  0.4959
  390TIP3   OH222584   0.309   0.188   3.446  0.5072  0.6100 -0.3356
  390TIP3    H122585   0.367   0.113   3.454  0.4049  0.6667  1.0858
  390TIP3    H222586   0.289   0.192   3.352 -0.2046 -1.6617 -0.3434
  391TIP3   OH222587   5.315   3.959   4.482 -0.1957  0.0344 -0.0027
  391TIP3    H122588   5.392   3.990   4.531 -0.4976  0.5411  0.1571
  391TIP3    H222589   5.287   4.035   4.431  0.2958 -0.5608 -1.2153
  392TIP3   OH222590   1.221   2.900  17.385 -0.4124 -0.1820 -0.4292
  392TIP3    H122591   1.205   2.896  17.479 -1.0983 -0.5182 -0.5583
  392TIP3    H222592   1.310   2.936  17.378 -0.6390  0.5443  0.3184
  393TIP3   OH222593   2.976   1.187  10.604  0.4115 -0.0975  0.3491
  393TIP3    H122594   2.904   1.196  10.542 -0.0623 -1.2429  0.7199
  393TIP3    H222595   3.048   1.152  10.553  0.3123 -0.1563  0.2499
  394TIP3   OH222596   4.057   1.929  14.174 -0.4698 -0.3254  0.4426
  394TIP3    H122597   4.116   1.990  14.218 -0.4412 -0.1661  0.1861
  394TIP3    H222598   4.056   1.959  14.083 -0.2318 -0.8830  0.2572
  395TIP3   OH222599   1.558   6.034   1.853 -0.0702 -0.1743  0.0749
  395TIP3    H122600   1.483   6.090   1.837  0.3111  0.3178 -0.0191
  395TIP3    H222601   1.527   5.970   1.917 -0.5508  0.0642  0.0828
  396TIP3   OH222602   5.965   1.597   0.905  0.5053 -0.1531 -0.4408
  396TIP3    H122603   6.033   1.551   0.856  1.5423 -0.4798  1.2029
  396TIP3    H222604   6.014   1.658   0.960 -0.6629  0.7609 -0.3732
  397TIP3   OH222605   5.991   5.622   5.482  0.4123 -0.1591 -0.2809
  397TIP3    H122606   5.931   5.585   5.547 -0.2479  2.2485  0.5933
  397TIP3    H222607   5.941   5.623   5.401 -0.1255  0.2668  0.0497
  398TIP3   OH222608   4.246   0.244  13.897 -0.0523 -0.1180  0.0967
  398TIP3    H122609   4.245   0.171  13.959 -0.5094 -0.7990 -0.6883
  398TIP3    H222610   4.170   0.228  13.840 -1.4038  2.0722  1.1498
  399TIP3   OH222611   1.870   4.568  13.564  0.2290 -0.4589 -0.2017
  399TIP3    H122612   1.952   4.566  13.613  1.3237  3.5180 -1.4818
  399TIP3    H222613   1.827   4.649  13.594 -2.1671 -1.2644 -1.2117
  400TIP3   OH222614   4.251   3.419   1.520  0.6085  0.0459  0.6485
  400TIP3    H122615   4.171   3.375   1.491  1.2291  0.4326 -1.8473
  400TIP3    H222616   4.313   3.348   1.537 -0.0987 -0.2398  2.3049
  401TIP3   OH222617   2.113   3.918  11.957 -0.0997 -0.3283  0.4676
  401TIP3    H122618   2.094   4.002  11.999  0.8284  0.2379 -0.1835
  401TIP3    H222619   2.186   3.883  12.008  0.0883 -0.3148  0.2096
  402TIP3   OH222620   0.171   4.384  15.032 -0.1903 -0.9408 -0.0384
  402TIP3    H122621   0.250   4.406  14.983 -0.0357 -1.2651  0.0585
  402TIP3    H222622   0.197   4.391  15.124 -1.6516  4.2439  0.2848
  403TIP3   OH222623   4.731   4.137  17.321 -0.1355 -0.3986 -0.1875
  403TIP3    H122624   4.726   4.069  17.254 -1.0051 -0.6797  0.1571
  403TIP3    H222625   4.792   4.201  17.285 -1.2147 -0.1358 -1.6255
  404TIP3   OH222626   0.539   0.105  14.060  0.1982 -0.1122  0.1857
  404TIP3    H122627   0.514   0.131  13.972 -0.9333  0.7829  0.7407
  404TIP3    H222628   0.478   0.151  14.117  0.9079 -0.6657  1.4455
  405TIP3   OH222629   5.126   2.218   4.801  0.5403  0.1739  0.3914
  405TIP3    H122630   5.031   2.228   4.789  0.5549 -0.6684 -0.5713
  405TIP3    H222631   5.141   2.244   4.892 -1.3114 -3.7321  2.0776
  406TIP3   OH222632   5.790   5.477  14.519 -0.3890  0.4638  0.2709
  406TIP3    H122633   5.769   5.423  14.443 -0.2162  0.8435 -0.0489
  406TIP3    H222634   5.866   5.529  14.491 -1.0540  1.4659  0.2937
  407TIP3   OH222635   3.906   4.626  13.277 -0.2266  1.0285  0.5463
  407TIP3    H122636   3.973   4.672  13.327  1.3213 -0.9981  0.4657
  407TIP3    H222637   3.831   4.621  13.336  0.9864  0.1187  2.0955
  408TIP3   OH222638   5.815   2.563  14.420 -0.7510  0.3116 -0.0402
  408TIP3    H122639   5.795   2.555  14.513  0.6110  2.1238  0.4587
  408TIP3    H222640   5.806   2.474  14.386 -1.3383 -0.3728  1.7990
  409TIP3   OH222641   1.158   2.670   4.971  0.2764 -0.3644 -0.0313
  409TIP3    H122642   1.176   2.750   4.921  1.3906 -0.6802 -0.1417
  409TIP3    H222643   1.219   2.674   5.045 -0.7016 -0.3768  0.8015
  410TIP3   OH222644   3.764   0.778   5.412 -0.6400 -0.0574 -0.3206
  410TIP3    H122645   3.726   0.833   5.481 -0.0346 -0.9922  0.8051
  410TIP3    H222646   3.858   0.799   5.415 -0.5338 -0.4950 -0.4780
  411TIP3   OH222647   0.510   5.867  13.708  1.0606  0.4921 -0.3074
  411TIP3    H122648   0.500   5.944  13.651 -0.7666  0.3236 -0.2779
  411TIP3    H222649   0.489   5.793  13.651 -1.9293  0.3949  0.7622
  412TIP3   OH222650   4.237   4.571  12.427  0.4296 -0.0565 -0.2640
  412TIP3    H122651   4.154   4.524  12.433 -0.0673  0.8472  0.2842
  412TIP3    H222652   4.244   4.618  12.511  2.8314 -2.2363  0.8952
  413TIP3   OH222653   2.859   2.473  16.223 -0.5590 -0.1505 -0.0112
  413TIP3    H122654   2.826   2.419  16.295 -0.1753  0.1164  0.3734
  413TIP3    H222655   2.820   2.559  16.239 -1.9748 -0.5221 -1.1737
  414TIP3   OH222656   0.304   3.395  11.518  0.2327  0.2549 -0.3478
  414TIP3    H122657   0.308   3.468  11.578 -3.4610  0.2153  0.1186
  414TIP3    H222658   0.322   3.433  11.432 -1.8220  1.8081 -0.1398
  415TIP3   OH222659   2.870   4.539   0.525  0.1582  0.3607  0.2405
  415TIP3    H122660   2.964   4.547   0.538  0.1892  0.4619 -0.0544
  415TIP3    H222661   2.851   4.594   0.449  0.2397 -1.6368 -1.2772
  416TIP3   OH222662   3.063   6.369   3.454  0.5813  0.1359  0.3950
  416TIP3    H122663   3.077   6.283   3.414 -0.0275 -0.0084  0.4818
  416TIP3    H222664   3.110   6.430   3.398  1.3921 -0.3058  0.5812
  417TIP3   OH222665   3.200   4.794  15.865 -0.5485 -0.0302  0.2367
  417TIP3    H122666   3.291   4.812  15.889 -0.8138 -0.9398  2.0926
  417TIP3    H222667   3.152   4.871  15.896 -0.6505 -0.3999  1.0146
  418TIP3   OH222668   5.946   5.503   4.921  0.2306  0.1673  0.0524
  418TIP3    H122669   5.959   5.443   4.994  1.4212  0.0207 -0.2669
  418TIP3    H222670   5.870   5.555   4.947  0.4964 -0.0228  1.2991
  419TIP3   OH222671   4.801   0.580  11.720  0.2247  0.5805 -0.1232
  419TIP3    H122672   4.855   0.595  11.644 -0.1959 -0.2658 -0.6090
  419TIP3    H222673   4.723   0.634  11.706 -0.7040 -0.9637 -1.2371
  420TIP3   OH222674   1.412   2.983  14.089 -0.5248 -0.5684 -0.4278
  420TIP3    H122675   1.500   2.947  14.082  1.2015  3.0984 -0.1789
  420TIP3    H222676   1.383   2.993  13.998  0.5386  0.7367 -0.6481
  421TIP3   OH222677   6.380   2.570   1.263 -0.3744  0.5303 -0.2073
  421TIP3    H122678   6.395   2.581   1.169  0.5795 -0.7899 -0.2441
  421TIP3    H222679   6.466   2.543   1.297 -1.1181 -0.7070  0.7470
  422TIP3   OH222680   6.210   2.602   5.527 -0.4880  0.4769  0.6526
  422TIP3    H122681   6.266   2.525   5.536  0.3293  0.9720  0.0182
  422TIP3    H222682   6.195   2.632   5.617 -1.6608 -0.9833  0.9732
  423TIP3   OH222683   2.472   4.898  10.596  0.5733  0.4673 -0.3701
  423TIP3    H122684   2.550   4.914  10.649  0.8982 -0.6168 -0.4910
  423TIP3    H222685   2.455   4.981  10.552  0.8681  1.1012  0.6824
  424TIP3   OH222686   4.589   0.117  11.572 -0.1303 -0.4219  0.0388
  424TIP3    H122687   4.609   0.077  11.657  1.3458  0.8748  0.3488
  424TIP3    H222688   4.572   0.043  11.514  0.2906 -1.3892  1.0980
  425TIP3   OH222689   1.235   5.127  14.838  0.2736 -0.0571 -0.0259
  425TIP3    H122690   1.169   5.103  14.773 -2.8926  1.1237  2.4908
  425TIP3    H222691   1.235   5.054  14.901  1.7647 -0.2417 -0.1965
  426TIP3   OH222692   5.290   2.680   0.516  0.3365 -0.2667  0.3161
  426TIP3    H122693   5.344   2.754   0.489 -0.1552  0.4066  1.1456
  426TIP3    H222694   5.204   2.717   0.533 -0.7094 -1.4586 -1.8569
  427TIP3   OH222695   6.450   1.367   0.195  0.0887 -0.4362 -0.2429
  427TIP3    H122696   6.498   1.315   0.130  0.5020 -1.6942  1.0129
  427TIP3    H222697   6.489   1.454   0.188  2.3724 -1.3068  0.4378
  428TIP3   OH222698   5.228   1.744  14.238 -0.5172 -0.2711 -0.1473
  428TIP3    H122699   5.285   1.668  14.226 -0.1671 -0.0351 -0.0151
  428TIP3    H222700   5.139   1.708  14.239 -0.3619 -0.6625 -0.2030
  429TIP3   OH222701   3.539   5.346  11.603 -0.2405  0.0526  0.0860
  429TIP3    H122702   3.515   5.271  11.657 -0.2005  0.9572  1.4092
  429TIP3    H222703   3.612   5.314  11.549  0.3544 -0.6229  1.2438
  430TIP3   OH222704   0.439   2.911  11.385  0.0025 -0.0397  0.3984
  430TIP3    H122705   0.384   2.835  11.363  2.1430 -1.5122 -0.2632
  430TIP3    H222706   0.378   2.984  11.392 -1.9836 -1.5050 -0.5582
  431TIP3   OH222707   1.548   3.229  14.554 -0.3147  0.3748  0.0860
  431TIP3    H122708   1.466   3.201  14.515  0.0790  0.2269 -0.6608
  431TIP3    H222709   1.588   3.286  14.488  0.2789  0.2656  0.3401
  432TIP3   OH222710   1.551   3.932   0.707 -0.4522 -0.1325 -0.0300
  432TIP3    H122711   1.623   3.924   0.644 -1.6776  0.5390 -1.5845
  432TIP3    H222712   1.553   4.024   0.733 -2.4726  0.6476 -2.3258
  433TIP3   OH222713   5.492   3.477  14.953 -0.2324 -0.3446 -0.5769
  433TIP3    H122714   5.398   3.469  14.967 -1.0392  1.7810 -3.6322
  433TIP3    H222715   5.515   3.401  14.900  0.1765 -1.6657  1.3967
  434TIP3   OH222716   4.805   0.769   3.077 -0.4179  0.2173 -0.4131
  434TIP3    H122717   4.745   0.765   3.151  1.1053  1.1642  0.9562
  434TIP3    H222718   4.750   0.757   3.000 -2.4707  1.7524  0.7164
  435TIP3   OH222719   1.989   4.856  15.541  0.4017  0.2350 -0.5578
  435TIP3    H122720   1.947   4.903  15.613 -0.6625 -0.5049 -0.6688
  435TIP3    H222721   2.069   4.905  15.524 -0.5476  1.8807 -0.5169
  436TIP3   OH222722   4.127   6.374   5.185 -0.0170 -0.4868  0.1656
  436TIP3    H122723   4.080   6.458   5.187  1.3661  0.3478 -0.5552
  436TIP3    H222724   4.127   6.345   5.276 -2.3632 -0.8120  0.1319
  437TIP3   OH222725   4.618   1.500   3.328  0.3364 -0.2065  0.5205
  437TIP3    H122726   4.711   1.523   3.327  0.1927  0.6473  2.6857
  437TIP3    H222727   4.617   1.408   3.356  0.5112  0.0126  1.2649
  438TIP3   OH222728   3.619   5.753   1.324 -0.7336  0.6967  0.2505
  438TIP3    H122729   3.688   5.701   1.364 -0.7641  0.1649 -0.3663
  438TIP3    H222730   3.663   5.802   1.254 -0.9268  0.5562  0.0272
  439TIP3   OH222731   4.889   4.410   5.531 -0.2426  0.0379 -0.2611
  439TIP3    H122732   4.818   4.475   5.537 -1.2083 -0.9114 -0.9510
  439TIP3    H222733   4.969   4.462   5.535 -0.9740  1.1854  0.1789
  440TIP3   OH222734   0.719   4.637   3.357  0.2427  0.2647  0.1147
  440TIP3    H122735   0.787   4.661   3.295  0.8288 -1.1351  0.1810
  440TIP3    H222736   0.742   4.684   3.438  1.2939 -0.4097  0.2190
  441TIP3   OH222737   4.393   5.895  12.736 -0.4893  0.0741 -0.3217
  441TIP3    H122738   4.454   5.827  12.706 -0.6352  0.5214 -1.6750
  441TIP3    H222739   4.362   5.863  12.821  2.1325  0.1622  0.7661
  442TIP3   OH222740   4.054   1.447   2.432  0.8059  0.4144  0.1663
  442TIP3    H122741   4.014   1.382   2.489 -0.4865  0.4812 -0.6302
  442TIP3    H222742   4.145   1.420   2.425  0.2156 -1.5985 -0.5203
  443TIP3   OH222743   1.755   5.411  14.651  0.3431  0.3804 -0.2098
  443TIP3    H122744   1.761   5.477  14.581 -0.4041  0.2939 -0.3626
  443TIP3    H222745   1.672   5.429  14.693 -0.5431 -1.3241 -1.1469
  444TIP3   OH222746   5.793   2.266   3.734 -0.3893 -0.5441  0.2806
  444TIP3    H122747   5.698   2.260   3.724 -0.6836  2.9291 -0.2785
  444TIP3    H222748   5.825   2.285   3.646  0.2000  2.6633  1.0384
  445TIP3   OH222749   2.993   1.428  13.594  0.0373  0.2438 -0.2244
  445TIP3    H122750   2.924   1.448  13.530 -0.9510 -1.4261  0.2393
  445TIP3    H222751   2.948   1.428  13.678 -0.1179 -3.3978 -0.1283
  446TIP3   OH222752   2.071   2.726   5.005 -0.2842 -0.0656  0.2724
  446TIP3    H122753   2.008   2.757   4.940  0.3960 -0.6821 -0.7078
  446TIP3    H222754   2.023   2.657   5.052 -0.2437 -0.7916 -0.7146
  447TIP3   OH222755   4.814   3.835   1.766 -0.1124 -0.0767  0.1715
  447TIP3    H122756   4.876   3.861   1.834 -0.7306  0.5446  0.5185
  447TIP3    H222757   4.858   3.765   1.718 -0.3730 -1.8172  2.3444
  448TIP3   OH222758   0.709   4.468  15.673  0.6860  0.1668 -0.0488
  448TIP3    H122759   0.778   4.528  15.644  0.3050  1.1731  1.0455
  448TIP3    H222760   0.652   4.459  15.597  0.0216  2.2918  0.1162
  449TIP3   OH222761   0.212   2.339   2.329  0.5899 -0.0724 -0.6077
  449TIP3    H122762   0.288   2.382   2.367  2.3681 -1.7262 -2.0942
  449TIP3    H222763   0.199   2.381   2.244 -0.1911  0.2294 -0.3460
  450TIP3   OH222764   6.231   0.237   4.261  0.3650  0.1444 -0.3065
  450TIP3    H122765   6.260   0.147   4.275 -3.5771 -0.9533  2.7675
  450TIP3    H222766   6.142   0.228   4.225  0.4877  2.9160 -1.5588
  451TIP3   OH222767   5.209   3.716   4.447 -0.3439 -0.2630  0.2664
  451TIP3    H122768   5.130   3.725   4.500 -0.5082 -0.8247  0.1304
  451TIP3    H222769   5.254   3.800   4.455 -1.8125  0.6987 -1.0413
  452TIP3   OH222770   0.288   2.249  13.934  0.7314 -0.0010 -0.0099
  452TIP3    H122771   0.214   2.305  13.959  0.4079 -0.8018  0.9085
  452TIP3    H222772   0.301   2.267  13.841 -0.3099  0.5130 -0.0791
  453TIP3   OH222773   2.279   6.107   2.683 -0.3045 -0.2453  0.0621
  453TIP3    H122774   2.187   6.098   2.661 -0.0462 -0.5548 -0.9088
  453TIP3    H222775   2.304   6.192   2.647  0.4193 -1.2665 -2.0070
  454TIP3   OH222776   6.466   3.197  13.315 -0.3008  0.0983 -0.2520
  454TIP3    H122777   6.541   3.226  13.264 -0.5557  1.3302  0.0570
  454TIP3    H222778   6.457   3.104  13.293  0.9002  0.0921 -0.7929
  455TIP3   OH222779   5.996   3.859   2.156 -0.3622  0.0702 -0.0158
  455TIP3    H122780   6.049   3.922   2.108 -0.0767  0.1884  0.4427
  455TIP3    H222781   6.054   3.825   2.224 -0.7488 -0.1038  0.2360
  456TIP3   OH222782   2.550   2.165  17.007 -0.0332  0.0446  0.0943
  456TIP3    H122783   2.487   2.093  17.013 -0.5204  0.3755 -0.7657
  456TIP3    H222784   2.525   2.225  17.077 -1.7222  0.9471 -1.2008
  457TIP3   OH222785   4.323   6.282  13.041  0.5213 -0.0933  0.4849
  457TIP3    H122786   4.416   6.281  13.020  0.0268 -1.7356 -2.0892
  457TIP3    H222787   4.291   6.366  13.007  0.5665 -0.8297 -1.4846
  458TIP3   OH222788   4.033   1.191  12.834 -0.1389 -0.2984  0.6207
  458TIP3    H122789   4.077   1.190  12.749 -1.7634 -0.6571 -0.2741
  458TIP3    H222790   4.068   1.115  12.881  1.1051  0.1667  0.4627
  459TIP3   OH222791   1.252   5.071  16.788 -0.2856 -0.2307  0.0835
  459TIP3    H122792   1.231   5.124  16.712  1.9775 -1.1214 -1.2694
  459TIP3    H222793   1.309   5.127  16.842  0.0611 -0.4131 -0.0894
  460TIP3   OH222794   6.268   0.821   3.946 -0.3335  0.0428  0.1467
  460TIP3    H122795   6.194   0.845   4.002 -0.3648  0.5392 -0.1002
  460TIP3    H222796   6.331   0.779   4.005 -0.9807 -0.7466  0.2844
  461TIP3   OH222797   2.706   0.384  15.128 -0.1478  0.1253 -0.4808
  461TIP3    H122798   2.784   0.394  15.075  0.0430 -1.8688 -0.6487
  461TIP3    H222799   2.730   0.420  15.214  0.8986 -0.3215 -0.5778
  462TIP3   OH222800   1.899   6.471   5.393  0.0410  0.3252 -0.2394
  462TIP3    H122801   1.908   6.566   5.402  0.7825  0.1854  0.5992
  462TIP3    H222802   1.936   6.451   5.307  1.0468  0.6560  0.1007
  463TIP3   OH222803   5.380   0.210  11.989 -0.6370  0.6781  0.5143
  463TIP3    H122804   5.469   0.206  12.023 -0.3181  0.7082 -0.2814
  463TIP3    H222805   5.330   0.255  12.056  0.0526  1.0990  0.7546
  464TIP3   OH222806   2.440   2.863   9.949  0.4070 -0.2828  0.2958
  464TIP3    H122807   2.364   2.913   9.920 -0.2506 -1.6725 -0.4187
  464TIP3    H222808   2.428   2.855  10.044 -1.6120 -2.4804 -0.0725
  465TIP3   OH222809   4.155   0.737  16.515 -0.3092 -0.5648  0.5225
  465TIP3    H122810   4.249   0.751  16.527 -0.7877  2.6817  1.5259
  465TIP3    H222811   4.134   0.785  16.435 -0.6398 -4.4651 -1.9798
  466TIP3   OH222812   4.567   4.184  15.033 -0.3921 -1.2166  0.0331
  466TIP3    H122813   4.479   4.174  14.996 -0.9979 -2.4932  1.7276
  466TIP3    H222814   4.583   4.104  15.081  2.0038 -1.2918 -0.7324
  467TIP3   OH222815   6.589   0.913  12.815 -0.0264 -0.2160 -0.5754
  467TIP3    H122816   6.570   1.003  12.842 -1.9516 -0.9430  0.6061
  467TIP3    H222817   6.670   0.891  12.860  0.7998  1.0876 -1.3455
  468TIP3   OH222818   3.426   4.093   4.531 -0.0474  0.1081 -0.0969
  468TIP3    H122819   3.505   4.042   4.550 -0.2170  0.3259  1.2642
  468TIP3    H222820   3.444   4.133   4.446 -0.2034 -2.7835 -1.6460
  469TIP3   OH222821   0.017   3.847  16.183 -0.2717 -0.3093 -0.2567
  469TIP3    H122822  -0.078   3.849  16.197 -0.0765  0.0532  1.2536
  469TIP3    H222823   0.027   3.822  16.092 -1.8193 -0.5984 -0.3862
  470TIP3   OH222824   5.875   1.626   2.102 -0.2523  0.5903 -0.1832
  470TIP3    H122825   5.819   1.634   2.024  0.7818 -0.5121 -1.0758
  470TIP3    H222826   5.948   1.571   2.073 -0.3195 -0.6639  1.8239
  471TIP3   OH222827   5.639   0.142   3.588  0.0958  0.4005 -0.2024
  471TIP3    H122828   5.630   0.048   3.603  1.1754  0.1233 -1.1125
  471TIP3    H222829   5.721   0.150   3.539 -0.2036  1.7780 -0.5092
  472TIP3   OH222830   3.822   0.624  15.517  0.5927  0.3071  0.3761
  472TIP3    H122831   3.876   0.649  15.442 -0.0616 -0.3163 -0.3036
  472TIP3    H222832   3.796   0.708  15.556 -1.1444  0.7520 -1.5660
  473TIP3   OH222833   4.351   6.580  13.198 -0.4291  0.3776 -0.4530
  473TIP3    H122834   4.271   6.626  13.173 -0.5738 -0.4618 -1.6299
  473TIP3    H222835   4.412   6.597  13.126  0.6679  1.4524  0.6772
  474TIP3   OH222836   1.408   4.361   3.996 -0.3763 -0.0302  0.2470
  474TIP3    H122837   1.447   4.276   4.013  0.3599  0.0429 -0.9884
  474TIP3    H222838   1.323   4.342   3.958  0.0914 -0.2340 -0.7160
  475TIP3   OH222839   5.211   4.722  15.405  0.1596  0.6640  0.4924
  475TIP3    H122840   5.127   4.715  15.450 -0.1508 -0.0336 -0.1664
  475TIP3    H222841   5.241   4.631  15.396 -2.5427 -0.1385 -5.7020
  476TIP3   OH222842   0.242   2.730   1.427 -0.4844  0.1659 -0.0835
  476TIP3    H122843   0.237   2.689   1.514 -0.8680  1.1436  0.3648
  476TIP3    H222844   0.335   2.751   1.417 -0.5531  0.7718  0.4440
  477TIP3   OH222845   0.435   4.274   5.612 -0.0843  0.3149  0.4424
  477TIP3    H122846   0.365   4.216   5.643  1.8721 -1.5389  1.7022
  477TIP3    H222847   0.417   4.285   5.519 -1.1933 -1.4335  0.3911
  478TIP3   OH222848   3.457   2.977  14.412 -0.3447  0.0283 -0.2009
  478TIP3    H122849   3.543   2.966  14.454 -0.5853 -0.3835  0.1894
  478TIP3    H222850   3.399   2.918  14.460 -0.8052  0.1555 -0.5949
  479TIP3   OH222851   4.492   2.496   4.181 -0.2861 -0.2452  0.0846
  479TIP3    H122852   4.401   2.522   4.169  0.0952  0.5755 -1.3368
  479TIP3    H222853   4.540   2.546   4.115  1.2003 -0.6713  0.7890
  480TIP3   OH222854   4.090   1.176  13.533 -0.0553 -0.1246 -0.4857
  480TIP3    H122855   4.053   1.262  13.514 -0.7440 -0.7400 -2.0941
  480TIP3    H222856   4.111   1.140  13.447  2.4758 -0.6200  0.2746
  481TIP3   OH222857   1.960   5.254  10.462  0.6058 -0.2102 -0.6887
  481TIP3    H122858   1.893   5.312  10.499  2.1007  0.1200  1.7389
  481TIP3    H222859   1.964   5.180  10.523  1.4819 -0.8883 -1.5396
  482TIP3   OH222860   6.638   0.410  15.990  0.1731 -0.2052 -0.3628
  482TIP3    H122861   6.733   0.395  15.987  0.1349 -0.5896  0.2634
  482TIP3    H222862   6.603   0.353  15.922  0.5075  0.9989 -1.5967
  483TIP3   OH222863   0.721   1.377   5.281  0.5689  0.1290  0.2807
  483TIP3    H122864   0.793   1.314   5.282  0.2556 -0.2340  0.2972
  483TIP3    H222865   0.651   1.335   5.331  0.3610  0.4982  0.3112
  484TIP3   OH222866   6.613   0.675  12.623 -0.0147  0.5196  0.3545
  484TIP3    H122867   6.612   0.629  12.707 -1.4401 -3.0105 -1.4002
  484TIP3    H222868   6.695   0.725  12.624  0.0480  0.5734  3.7541
  485TIP3   OH222869   4.112   1.059  16.039  0.1079  0.0687  0.2633
  485TIP3    H122870   4.058   1.131  16.072 -0.0685 -0.5034  1.2616
  485TIP3    H222871   4.173   1.041  16.110  0.4135 -0.5059 -0.1388
  486TIP3   OH222872   3.344   0.460   2.187  0.3431 -0.2322 -0.2629
  486TIP3    H122873   3.358   0.366   2.194 -0.6241 -0.3450  0.2248
  486TIP3    H222874   3.386   0.497   2.265  0.0505 -0.3325 -0.0579
  487TIP3   OH222875   6.102   0.908   0.929 -0.0626 -0.3748  0.1829
  487TIP3    H122876   6.063   0.886   0.844 -0.4508 -0.4054  0.3698
  487TIP3    H222877   6.067   0.843   0.989 -0.0582 -0.1412  0.4388
  488TIP3   OH222878   5.199   1.425  13.810 -0.3341  0.7367 -0.2595
  488TIP3    H122879   5.202   1.485  13.735 -1.7537  3.0631  1.4149
  488TIP3    H222880   5.108   1.395  13.813 -0.0105 -0.2454 -0.1196
  489TIP3   OH222881   3.489   3.638  13.318 -0.0697 -0.4270  0.0713
  489TIP3    H122882   3.476   3.715  13.374  1.6813 -0.0035 -0.0540
  489TIP3    H222883   3.411   3.637  13.262 -0.0140  1.4529 -0.1335
  490TIP3   OH222884   3.215   4.750  13.727 -0.4066  0.0884 -0.2649
  490TIP3    H122885   3.287   4.767  13.666  0.1975  1.4953  0.7898
  490TIP3    H222886   3.156   4.825  13.716 -0.4644  0.1817  0.6222
  491TIP3   OH222887   5.159   2.540   4.387  0.6578 -0.0055  0.2683
  491TIP3    H122888   5.193   2.508   4.471  1.3267 -0.9184 -0.3243
  491TIP3    H222889   5.079   2.490   4.373  0.9875 -0.4766 -0.0108
  492TIP3   OH222890   0.079   4.280   2.647  0.4950 -0.7825 -0.4120
  492TIP3    H122891   0.034   4.329   2.717  0.3507 -0.6605 -0.5881
  492TIP3    H222892   0.027   4.201   2.636  3.0835 -3.1914  2.8848
  493TIP3   OH222893   1.541   0.985   0.224  0.2067 -0.3934 -0.3701
  493TIP3    H122894   1.572   1.012   0.138  0.2426 -0.7551 -0.4700
  493TIP3    H222895   1.572   0.895   0.234  0.2236 -0.3440  0.0310
  494TIP3   OH222896   4.958   6.150  17.274  0.0535  0.3270  0.3961
  494TIP3    H122897   4.863   6.147  17.262  0.0336 -0.6911  0.7338
  494TIP3    H222898   4.982   6.062  17.301  1.7159 -1.0215 -4.3727
  495TIP3   OH222899   1.324   6.582  14.399  0.5475  0.0487 -0.4318
  495TIP3    H122900   1.323   6.577  14.495 -3.6165  1.0073 -0.2113
  495TIP3    H222901   1.346   6.494  14.370 -1.1533 -1.1123  1.5480
  496TIP3   OH222902   3.004   3.767  16.149  0.3195  0.3494 -0.0297
  496TIP3    H122903   2.945   3.699  16.181  0.1764 -0.0820 -1.1446
  496TIP3    H222904   2.949   3.844  16.137  0.3425  0.4648  0.5859
  497TIP3   OH222905   4.034   2.391   1.076 -0.0203  0.1113 -0.6709
  497TIP3    H122906   3.996   2.311   1.041 -1.3287  0.8620 -1.0092
  497TIP3    H222907   4.028   2.380   1.171 -0.4192 -0.0886 -0.7171
  498TIP3   OH222908   0.865   2.591   4.935 -0.3329 -0.0973  0.5554
  498TIP3    H122909   0.848   2.581   4.841 -0.1964  0.3413  0.4826
  498TIP3    H222910   0.960   2.602   4.941 -0.3901  0.3176  0.7057
  499TIP3   OH222911   0.837   1.465   4.088  1.0673 -0.1293 -0.4713
  499TIP3    H122912   0.861   1.557   4.074 -0.0153 -0.0505 -2.1822
  499TIP3    H222913   0.917   1.424   4.122  2.2420  1.0213 -1.7142
  500TIP3   OH222914   6.441   4.992  12.501  0.4502  0.3231  0.2725
  500TIP3    H122915   6.455   5.014  12.593  0.5381 -1.4467  0.7132
  500TIP3    H222916   6.430   4.897  12.500  1.0888  0.2177 -1.6135
  501TIP3   OH222917   2.371   2.445  12.622 -0.1914  0.6656 -0.1304
  501TIP3    H122918   2.366   2.407  12.535  2.2738 -0.6301  0.2086
  501TIP3    H222919   2.300   2.403  12.671 -1.2928  1.0515 -1.3495
  502TIP3   OH222920   6.050   1.593  11.641 -0.6967  0.0575 -0.2668
  502TIP3    H122921   5.996   1.537  11.697 -1.2899  0.7224 -0.1605
  502TIP3    H222922   6.038   1.681  11.677  1.0568  0.1324  0.2419
  503TIP3   OH222923   1.103   1.921   2.712 -0.0360 -0.1149 -0.2598
  503TIP3    H122924   1.073   1.915   2.622  0.2625 -1.4693 -0.2903
  503TIP3    H222925   1.081   1.837   2.751  0.6240  0.1236  0.6786
  504TIP3   OH222926   5.883   0.842  14.238 -0.2422  0.3350  0.9632
  504TIP3    H122927   5.788   0.841  14.231 -0.1264  0.1335 -0.9624
  504TIP3    H222928   5.913   0.891  14.162  1.2292 -0.1802  1.1723
  505TIP3   OH222929   6.159   3.147   1.398  0.9092  0.3771  0.7757
  505TIP3    H122930   6.208   3.127   1.318 -0.6823 -1.6307  0.2156
  505TIP3    H222931   6.217   3.205   1.448  3.0289 -0.3975 -0.6446
  506TIP3   OH222932   2.119   0.804   2.240 -0.2779  0.1328 -0.6080
  506TIP3    H122933   2.096   0.712   2.234 -2.6264  0.7430 -2.6346
  506TIP3    H222934   2.214   0.804   2.255  0.0019 -2.5913 -1.7919
  507TIP3   OH222935   5.148   1.620  10.327  0.2743 -0.0555 -0.4403
  507TIP3    H122936   5.116   1.544  10.279  0.2368 -0.4696  0.2315
  507TIP3    H222937   5.239   1.630  10.301  0.0609  0.1404 -1.1198
  508TIP3   OH222938   1.232   0.495  16.363 -0.1291 -0.1012  0.5998
  508TIP3    H122939   1.232   0.404  16.393 -0.1530 -0.4817 -0.5061
  508TIP3    H222940   1.152   0.503  16.310  0.6807  0.0948 -0.6381
  509TIP3   OH222941   4.759   1.225  16.017 -0.6451 -0.1131 -0.1419
  509TIP3    H122942   4.745   1.139  16.056 -1.8230 -0.5350 -1.4085
  509TIP3    H222943   4.720   1.218  15.930 -1.1055  1.8145 -0.1284
  510TIP3   OH222944   1.744   0.982   4.349  0.1752  0.2266  0.1688
  510TIP3    H122945   1.826   1.032   4.356  0.0474  0.2598  1.6537
  510TIP3    H222946   1.714   0.972   4.439 -1.9166  0.9323 -0.3876
  511TIP3   OH222947   6.679   2.116   0.775  0.2865  0.2870  0.0676
  511TIP3    H122948   6.686   2.211   0.764  0.4965  0.2872  0.1860
  511TIP3    H222949   6.592   2.103   0.813  0.8340  0.5731  1.4833
  512TIP3   OH222950   4.087   0.002   1.443 -0.2054  0.4366  0.1707
  512TIP3    H122951   4.060  -0.058   1.513  2.2129  0.6916  1.4107
  512TIP3    H222952   4.153   0.058   1.483  0.5280  1.2739 -2.0685
  513TIP3   OH222953   1.333   5.417   6.108  0.2269 -0.5166  0.2413
  513TIP3    H122954   1.393   5.447   6.176  0.3246 -0.6261  0.2026
  513TIP3    H222955   1.379   5.344   6.066  0.7954  0.4613 -0.8925
  514TIP3   OH222956   0.607   4.425  13.491  0.0276  0.4150  0.5261
  514TIP3    H122957   0.520   4.427  13.451  0.3366  0.0222 -0.1784
  514TIP3    H222958   0.622   4.333  13.512  0.2734  0.4858  0.6679
  515TIP3   OH222959   3.081   4.699  13.357 -0.4716  0.1807 -0.5339
  515TIP3    H122960   3.100   4.758  13.283 -0.5410  0.0571 -0.6520
  515TIP3    H222961   3.029   4.752  13.417  0.7263  0.7036  0.0694
  516TIP3   OH222962   1.225   4.693   4.703  0.0123  0.3385 -0.0739
  516TIP3    H122963   1.240   4.686   4.797 -2.1792 -1.6095  0.2231
  516TIP3    H222964   1.240   4.604   4.670 -1.3901  0.4787 -1.1762
  517TIP3   OH222965   2.692   3.887  11.311 -0.0409  0.0499 -0.3215
  517TIP3    H122966   2.733   3.913  11.228 -2.2609 -0.0966 -1.5293
  517TIP3    H222967   2.609   3.934  11.312 -0.1282 -0.0650  1.8016
  518TIP3   OH222968   4.050   5.324  12.371  0.2848 -0.3880  0.7824
  518TIP3    H122969   4.025   5.233  12.387  0.5957 -0.3302  1.6543
  518TIP3    H222970   3.967   5.372  12.369  0.0476 -0.8053 -0.6063
  519TIP3   OH222971   3.622   3.530  11.759 -0.4954 -0.2361 -0.4564
  519TIP3    H122972   3.646   3.620  11.784 -3.5030  0.3196  0.8548
  519TIP3    H222973   3.578   3.540  11.675 -1.0933 -0.4337 -0.1678
  520TIP3   OH222974   4.576   1.534  12.585  0.9736  0.5145 -0.0523
  520TIP3    H122975   4.510   1.588  12.628 -1.4347 -0.2420 -2.5309
  520TIP3    H222976   4.611   1.590  12.515  1.7954  0.3428  0.2085
  521TIP3   OH222977   1.691   1.019   5.969 -0.3228 -0.1521  0.2888
  521TIP3    H122978   1.751   0.951   5.939  0.2231 -0.5151  2.0828
  521TIP3    H222979   1.619   0.971   6.010 -0.3220  0.3302  0.8707
  522TIP3   OH222980   4.536   1.895  13.381  0.3604  0.0510  0.1356
  522TIP3    H122981   4.537   1.808  13.341 -0.6317 -0.0096  0.2068
  522TIP3    H222982   4.490   1.882  13.464  1.5098  0.3655  0.8486
  523TIP3   OH222983   2.456   5.105   3.044  0.5695  0.2365 -0.1368
  523TIP3    H122984   2.395   5.091   3.117  1.0199 -0.9010  0.0463
  523TIP3    H222985   2.486   5.195   3.054  0.3984  0.1898  0.9171
  524TIP3   OH222986   0.208   1.171   3.432 -0.3969 -0.0705 -0.0285
  524TIP3    H122987   0.231   1.084   3.465  1.2448  0.1306 -0.5616
  524TIP3    H222988   0.113   1.168   3.421 -0.8446 -0.7013  3.0617
  525TIP3   OH222989   4.030   6.486  10.869  0.6872  0.1452  0.1937
  525TIP3    H122990   4.010   6.398  10.838  1.6717 -0.0186 -0.0138
  525TIP3    H222991   4.006   6.543  10.796  3.6975 -0.2980 -1.3348
  526TIP3   OH222992   3.599   3.310   1.694 -0.4976 -0.7367  0.6008
  526TIP3    H122993   3.615   3.394   1.653  1.5983 -1.2504  0.2763
  526TIP3    H222994   3.560   3.256   1.625  1.9561 -1.2446 -0.4967
  527TIP3   OH222995   3.545   6.530  13.545 -0.1626  0.1588 -0.4227
  527TIP3    H122996   3.616   6.497  13.490 -0.8242 -1.4866 -0.3630
  527TIP3    H222997   3.559   6.488  13.630  0.0951  1.6401  0.2896
  528TIP3   OH222998   4.837   4.412   4.163  0.6411 -0.8357  0.0181
  528TIP3    H122999   4.850   4.322   4.133  0.5870 -0.8567  0.0574
  528TIP3    H223000   4.788   4.453   4.092 -0.1917 -1.1078  0.4224
  529TIP3   OH223001   2.510   4.524   4.866  1.0208 -0.0608 -0.2543
  529TIP3    H123002   2.449   4.501   4.936 -0.0103 -0.9880 -1.4292
  529TIP3    H223003   2.504   4.620   4.860  1.0729  0.0307  0.8536
  530TIP3   OH223004   2.388   2.698  14.038  0.2051  0.1928  0.0642
  530TIP3    H123005   2.394   2.788  14.006  1.1788  0.6225  1.3524
  530TIP3    H223006   2.467   2.655  14.004 -1.6023 -1.0541 -2.9262
  531TIP3   OH223007   0.881   0.063  14.243 -0.6278 -0.1581 -0.5883
  531TIP3    H123008   0.956   0.086  14.297 -0.4155 -2.6523  0.3046
  531TIP3    H223009   0.840   0.147  14.222 -1.4170  1.0469  4.4348
  532TIP3   OH223010   4.760   4.769  15.858 -0.1524  0.0646 -0.1956
  532TIP3    H123011   4.729   4.706  15.924 -0.4885  1.8702  1.4407
  532TIP3    H223012   4.850   4.787  15.883 -0.6282  1.6113  0.4906
  533TIP3   OH223013   0.048   4.704   3.688 -0.1548  0.4343  0.2039
  533TIP3    H123014   0.056   4.609   3.696  1.0944  0.5827  0.8697
  533TIP3    H223015   0.124   4.730   3.637 -0.7737  1.0391 -0.4361
  534TIP3   OH223016   2.337   1.940   2.950 -0.2668  0.1462  0.4046
  534TIP3    H123017   2.285   1.998   2.893 -0.0460  0.6723  0.7330
  534TIP3    H223018   2.410   1.994   2.979  0.5406 -0.6261 -0.1399
  535TIP3   OH223019   3.373   4.434   5.681  0.2932  0.0180 -0.0292
  535TIP3    H123020   3.350   4.388   5.762  2.2596 -0.7557  0.1452
  535TIP3    H223021   3.312   4.508   5.677 -1.0142 -0.9467  1.2075
  536TIP3   OH223022   1.872   3.403   1.882 -0.4913 -0.3544  0.2105
  536TIP3    H123023   1.965   3.389   1.865 -1.0492 -0.9332 -3.2402
  536TIP3    H223024   1.860   3.383   1.974  2.8486  0.1609  0.8575
  537TIP3   OH223025   6.532   5.150   1.633  0.2443 -0.1683  0.2773
  537TIP3    H123026   6.616   5.105   1.647  0.6650  0.2602 -0.7081
  537TIP3    H223027   6.557   5.235   1.596 -0.6058  0.2096  0.5665
  538TIP3   OH223028   1.589   5.931  11.869 -0.4177  0.3149 -0.3634
  538TIP3    H123029   1.563   5.839  11.863 -0.3059  0.1717  1.0773
  538TIP3    H223030   1.672   5.935  11.821  1.0511 -0.9684  1.8548
  539TIP3   OH223031   5.620   6.537   5.170  0.1666  0.2897  0.1545
  539TIP3    H123032   5.564   6.548   5.247 -1.2821 -1.3459 -0.6017
  539TIP3    H223033   5.563   6.559   5.096  0.0427 -2.5282 -0.7156
  540TIP3   OH223034   1.923   6.038  11.119 -0.0790 -0.1539 -0.4127
  540TIP3    H123035   1.962   6.005  11.038  3.2477 -2.6724  1.9336
  540TIP3    H223036   1.989   6.095  11.157 -1.1452  0.1913  1.0252
  541TIP3   OH223037   0.269   4.649  14.202 -0.1588  0.1419 -0.1476
  541TIP3    H123038   0.321   4.693  14.269 -1.3933  0.5755  0.5587
  541TIP3    H223039   0.333   4.622  14.136  1.3540 -1.8710  1.9998
  542TIP3   OH223040   3.614   2.967   3.601 -0.3000 -0.0346  0.7982
  542TIP3    H123041   3.673   2.939   3.532 -0.2341 -1.4165  1.3860
  542TIP3    H223042   3.530   2.982   3.556  0.1644  0.7580  0.1653
  543TIP3   OH223043   3.010   5.756   1.276  0.6506  0.2256 -0.5500
  543TIP3    H123044   3.009   5.842   1.318 -2.3107 -0.4382  0.9766
  543TIP3    H223045   2.979   5.772   1.187  0.2690  0.7529 -0.3236
  544TIP3   OH223046   5.909   2.142  11.675  0.0225  0.6204 -0.5008
  544TIP3    H123047   5.964   2.207  11.631 -0.1836 -0.1032 -1.8990
  544TIP3    H223048   5.832   2.191  11.705 -0.4071  0.9558 -2.0526
  545TIP3   OH223049   2.525   4.702  15.009 -0.5545 -0.0476  0.1295
  545TIP3    H123050   2.587   4.637  14.975 -1.4773  0.1986 -2.1850
  545TIP3    H223051   2.550   4.712  15.101  1.1638 -1.8597 -0.0561
  546TIP3   OH223052   3.591   6.267  11.396 -0.0035 -0.0931 -0.5089
  546TIP3    H123053   3.642   6.222  11.329 -1.4728 -1.3476 -0.8255
  546TIP3    H223054   3.537   6.198  11.435  0.5234  0.6686  1.7105
  547TIP3   OH223055   5.512   5.525   5.233 -0.1575  0.4888  0.3675
  547TIP3    H123056   5.422   5.500   5.255 -0.9437  2.7213  0.0344
  547TIP3    H223057   5.541   5.577   5.308  1.2981 -1.0827  0.9437
  548TIP3   OH223058   3.650   0.170  14.047 -1.2141  0.0469 -0.0129
  548TIP3    H123059   3.728   0.226  14.047 -1.0476 -0.1855 -0.0465
  548TIP3    H223060   3.590   0.211  14.110 -1.5854  0.9569 -0.9297
  549TIP3   OH223061   5.253   4.241  17.151 -0.0450  0.2502 -0.5709
  549TIP3    H123062   5.254   4.299  17.227 -2.2645 -1.7093  1.0868
  549TIP3    H223063   5.185   4.277  17.094 -0.2463  0.2149 -0.3534
  550TIP3   OH223064   6.599   3.772  11.125  0.2657  0.6390 -0.3333
  550TIP3    H123065   6.657   3.747  11.197  0.0273 -0.6783 -0.5767
  550TIP3    H223066   6.647   3.840  11.078  2.4575 -1.5896 -1.5650
  551TIP3   OH223067   4.295   0.988   5.538 -0.5512  0.1979 -0.0775
  551TIP3    H123068   4.245   0.956   5.614 -1.7826  0.9977 -0.5238
  551TIP3    H223069   4.369   0.928   5.532 -1.9318 -1.6357  0.0690
  552TIP3   OH223070   3.797   2.754   5.632  0.3272  0.3507  0.4806
  552TIP3    H123071   3.731   2.821   5.649 -0.9308 -0.1530 -2.0170
  552TIP3    H223072   3.781   2.686   5.698 -0.2183  1.2104  1.2438
  553TIP3   OH223073   1.673   1.901  17.297 -0.2788 -0.4434 -0.2570
  553TIP3    H123074   1.584   1.930  17.318  0.2134  0.0914  1.2231
  553TIP3    H223075   1.730   1.965  17.340  0.8166 -1.3898 -0.2452
  554TIP3   OH223076   5.311   3.785  12.608  0.1313 -0.0583  0.4511
  554TIP3    H123077   5.386   3.752  12.658 -0.3198 -0.1794  1.0623
  554TIP3    H223078   5.286   3.712  12.551 -1.2525 -1.0576  2.2409
  555TIP3   OH223079   3.757   3.606  16.343  0.5254 -0.5259 -0.0091
  555TIP3    H123080   3.837   3.570  16.380 -0.0643 -1.6507  0.2282
  555TIP3    H223081   3.785   3.651  16.263  1.6561  1.0042  1.2106
  556TIP3   OH223082   0.229   1.161   2.654  0.4616  0.5241 -0.1861
  556TIP3    H123083   0.170   1.086   2.646  0.4005  0.6134 -0.6182
  556TIP3    H223084   0.197   1.208   2.731 -1.3502  1.6922 -1.5786
  557TIP3   OH223085   3.343   0.055  13.113 -0.2409 -0.1010  0.1573
  557TIP3    H123086   3.393   0.068  13.194  1.6334 -0.6430 -0.8602
  557TIP3    H223087   3.360   0.134  13.061 -0.7603 -0.1251 -0.0533
  558TIP3   OH223088   6.035   3.131  14.825 -0.0654 -0.3661  0.4689
  558TIP3    H123089   5.974   3.148  14.753 -0.4444  0.3628  0.9571
  558TIP3    H223090   5.986   3.075  14.885  0.6047 -1.8675 -0.3103
  559TIP3   OH223091   0.891   4.132   2.794 -0.7581  0.1959  0.2335
  559TIP3    H123092   0.861   4.222   2.808 -1.0300  0.0553  0.5809
  559TIP3    H223093   0.887   4.120   2.699 -2.4398 -0.0285  0.3090
  560TIP3   OH223094   6.420   3.426   5.805 -0.5768  0.2667 -0.0122
  560TIP3    H123095   6.357   3.485   5.764 -1.6125 -0.4712  0.4654
  560TIP3    H223096   6.380   3.403   5.889  0.0609 -0.6762  0.0504
  561TIP3   OH223097   3.517   6.158   0.768 -0.3803  0.1833 -0.6236
  561TIP3    H123098   3.469   6.172   0.687 -0.2563  0.1140 -0.7087
  561TIP3    H223099   3.453   6.117   0.827 -0.5671  0.5452 -0.5724
  562TIP3   OH223100   6.102   0.363  17.206 -0.1536 -0.5593 -0.1371
  562TIP3    H123101   6.077   0.403  17.290  2.8737  0.7975  0.2525
  562TIP3    H223102   6.119   0.438  17.149  1.5958 -1.3569 -0.7120
  563TIP3   OH223103   1.546   0.777  16.771  0.0795  0.0539  0.1600
  563TIP3    H123104   1.520   0.689  16.744  1.1029 -0.5478  1.0429
  563TIP3    H223105   1.519   0.833  16.698 -2.3656 -0.6732  0.4077
  564TIP3   OH223106   4.594   5.799  14.704 -0.0282 -0.7129  0.0229
  564TIP3    H123107   4.636   5.780  14.788  1.7609  1.2097 -0.3587
  564TIP3    H223108   4.500   5.789  14.722  0.3512 -1.1492  2.0121
  565TIP3   OH223109   6.475   5.897   4.402 -0.2229 -0.3825  0.0396
  565TIP3    H123110   6.534   5.855   4.341  0.0991  1.2936 -0.8631
  565TIP3    H223111   6.527   5.911   4.481 -0.1689 -1.1326  0.1390
  566TIP3   OH223112   5.564   0.276  17.337 -0.6150  0.3501  0.4222
  566TIP3    H123113   5.639   0.306  17.287 -0.7537 -0.3577 -0.2438
  566TIP3    H223114   5.503   0.242  17.270 -0.0559 -2.2619  1.1347
  567TIP3   OH223115   0.417   3.634   2.162  0.4518 -0.1225  0.1621
  567TIP3    H123116   0.365   3.639   2.082  0.0895  0.5469  0.4307
  567TIP3    H223117   0.411   3.542   2.189 -1.5380  0.1508  0.7920
  568TIP3   OH223118   0.583   1.862   0.027 -0.3111 -0.5156  0.0735
  568TIP3    H123119   0.573   1.894   0.116 -0.2495  1.0192 -0.4418
  568TIP3    H223120   0.622   1.776   0.036  2.0276  0.6116  1.4479
  569TIP3   OH223121   3.357   0.605  15.779 -0.3458 -0.3876 -0.0594
  569TIP3    H123122   3.267   0.636  15.792  0.3555  1.4284  0.8995
  569TIP3    H223123   3.353   0.511  15.797 -1.9750 -0.2577  0.4132
  570TIP3   OH223124   6.215   1.814   1.646  0.1276 -0.1118  0.4162
  570TIP3    H123125   6.156   1.791   1.718 -0.0983  0.4498  0.4136
  570TIP3    H223126   6.181   1.765   1.571 -0.7934  0.7886  0.2319
  571TIP3   OH223127   6.032   3.930  12.392  0.2213 -0.2431  0.4293
  571TIP3    H123128   6.015   3.999  12.457 -1.8999  0.1492 -0.4552
  571TIP3    H223129   5.969   3.861  12.414  1.1749 -1.1950  0.2640
  572TIP3   OH223130   0.082   5.981  15.799  0.4950 -0.3918 -0.3421
  572TIP3    H123131   0.065   5.887  15.806 -0.7877 -0.0844  1.2961
  572TIP3    H223132   0.008   6.015  15.749 -1.3090  0.2458  2.5211
  573TIP3   OH223133   5.521   5.686  17.041  0.3977  0.0231 -0.1753
  573TIP3    H123134   5.613   5.661  17.035  0.7780  1.3525 -0.3274
  573TIP3    H223135   5.496   5.709  16.951 -0.7408 -2.3575 -0.5470
  574TIP3   OH223136   1.386   2.655   4.166  0.1975 -0.2929  0.8569
  574TIP3    H123137   1.398   2.601   4.088  0.3200  0.4884  0.3251
  574TIP3    H223138   1.340   2.733   4.134 -1.4122 -0.7697  1.8770
  575TIP3   OH223139   4.403   5.882   5.125  0.5983  0.2659  0.2259
  575TIP3    H123140   4.442   5.834   5.198 -0.0846 -1.5510 -0.5390
  575TIP3    H223141   4.311   5.893   5.150  0.5128  0.2248 -0.0698
  576TIP3   OH223142   6.214   4.967   5.025  0.2058  0.2048  0.0019
  576TIP3    H123143   6.243   4.906   5.093  0.2348 -0.1051 -0.2827
  576TIP3    H223144   6.153   4.916   4.972  1.0089  0.0906 -0.8557
  577TIP3   OH223145   6.336   1.130   3.283  0.8015 -0.3027  0.3850
  577TIP3    H123146   6.414   1.085   3.315  0.6821 -1.8416 -1.3739
  577TIP3    H223147   6.355   1.150   3.192 -0.3734  0.4855  0.2918
  578TIP3   OH223148   6.400   5.186   0.050 -0.4134 -0.2165 -0.0624
  578TIP3    H123149   6.392   5.091   0.040 -1.4104 -0.3207  1.4950
  578TIP3    H223150   6.493   5.203   0.034 -0.5051 -1.2189 -1.9349
  579TIP3   OH223151   3.031   1.317  10.864  0.5032  0.1318  0.2470
  579TIP3    H123152   2.995   1.402  10.836 -0.2303  0.0863  0.9940
  579TIP3    H223153   3.014   1.259  10.791 -1.2463  0.0483  0.6621
  580TIP3   OH223154   5.800   5.370   0.494 -0.0569 -0.2060  0.3354
  580TIP3    H123155   5.856   5.294   0.513  0.8143  0.3791  0.1827
  580TIP3    H223156   5.794   5.417   0.577  1.3319  0.7858 -0.0977
  581TIP3   OH223157   0.891   1.212  15.624  0.5490 -0.5196  0.2315
  581TIP3    H123158   0.826   1.180  15.561  4.2699 -0.9709 -3.8620
  581TIP3    H223159   0.910   1.301  15.596  0.0179  0.5689  3.0017
  582TIP3   OH223160   4.550   6.600  16.200  0.5088 -0.0297 -0.3611
  582TIP3    H123161   4.590   6.569  16.281  0.8362 -0.8674 -0.8374
  582TIP3    H223162   4.526   6.691  16.219 -0.2182 -0.4758  0.9618
  583TIP3   OH223163   2.469   2.688   5.425 -0.2552 -0.0354  0.2582
  583TIP3    H123164   2.549   2.735   5.400 -0.7287  0.5864 -0.1325
  583TIP3    H223165   2.418   2.684   5.344  0.3273 -2.4046 -0.0549
  584TIP3   OH223166   2.258   5.657   2.175 -0.3839  0.4764 -0.3842
  584TIP3    H123167   2.279   5.628   2.086 -1.0269  0.7584 -0.6342
  584TIP3    H223168   2.317   5.606   2.231  0.7907  1.0830 -1.0328
  585TIP3   OH223169   4.920   6.217   5.297 -0.0859  0.1204  0.7329
  585TIP3    H123170   4.906   6.171   5.214  1.1557  0.6654  0.1867
  585TIP3    H223171   4.865   6.171   5.360 -0.2062 -1.0072 -0.1672
  586TIP3   OH223172   5.232   1.015  14.430 -0.1713 -0.5294  0.0107
  586TIP3    H123173   5.268   1.007  14.342 -1.7734  0.4740 -0.7873
  586TIP3    H223174   5.296   1.069  14.477  3.2866 -4.9249  1.1303
  587TIP3   OH223175   1.259   1.183   3.970  0.0016 -0.7392 -0.3220
  587TIP3    H123176   1.341   1.231   3.957  0.5336 -1.3039  0.7626
  587TIP3    H223177   1.283   1.091   3.954 -0.2826 -0.9620  0.4676
  588TIP3   OH223178   1.230   3.559  17.323  0.4381  0.3111 -0.4885
  588TIP3    H123179   1.272   3.476  17.341  1.6079  0.9324 -0.2695
  588TIP3    H223180   1.158   3.564  17.387  1.4629  0.2501  0.7253
  589TIP3   OH223181   6.086   5.617   3.469  0.0543 -0.0372 -0.2999
  589TIP3    H123182   6.163   5.667   3.442 -1.3393  1.2515 -2.1201
  589TIP3    H223183   6.122   5.535   3.502  2.1708  0.0932 -2.0237
  590TIP3   OH223184   2.125   0.886   4.387  0.2086  0.2006  0.3779
  590TIP3    H123185   2.136   0.975   4.354  1.3511 -0.3586 -0.8282
  590TIP3    H223186   2.068   0.844   4.323 -0.1479 -0.0038  0.8266
  591TIP3   OH223187   3.952   3.992  16.584  0.1816  0.0918 -0.0497
  591TIP3    H123188   4.003   3.959  16.510 -1.3742 -0.7199 -0.7913
  591TIP3    H223189   3.867   4.014  16.548  0.3793  2.8373  0.8766
  592TIP3   OH223190   5.811   0.427   0.200  0.4340  0.3849  0.6119
  592TIP3    H123191   5.747   0.396   0.264  0.8936  0.4836  1.1326
  592TIP3    H223192   5.873   0.479   0.252  1.2288 -0.1342  0.2116
  593TIP3   OH223193   2.647   1.586  12.143  0.0545  0.2788  0.1982
  593TIP3    H123194   2.620   1.644  12.215 -0.4592  0.8404 -0.4343
  593TIP3    H223195   2.575   1.524  12.134  0.2575  0.0156  0.3616
  594TIP3   OH223196   5.205   5.501  15.211  1.0951  0.1626  0.0663
  594TIP3    H123197   5.193   5.411  15.179  2.3483 -0.6771  1.7742
  594TIP3    H223198   5.290   5.527  15.176  0.5336  0.8808 -0.7944
  595TIP3   OH223199   0.849   0.056   5.052 -0.2667 -0.4934 -0.0876
  595TIP3    H123200   0.892  -0.026   5.025  1.0553 -0.4050  1.5516
  595TIP3    H223201   0.759   0.048   5.019  0.3604 -1.7105 -1.6686
  596TIP3   OH223202   0.086   2.543  15.383 -0.7228 -0.2463 -0.6780
  596TIP3    H123203   0.059   2.591  15.304  0.0713  0.2320 -0.6600
  596TIP3    H223204   0.011   2.485  15.402 -0.9290 -0.3597 -1.7682
  597TIP3   OH223205   1.532   1.912   4.656 -0.3658 -0.4908 -0.3049
  597TIP3    H123206   1.520   1.979   4.589  0.8170 -1.1288 -1.1800
  597TIP3    H223207   1.535   1.829   4.607 -1.4689 -1.1781  0.7249
  598TIP3   OH223208   6.583   0.274  17.037 -0.0735 -0.4828  0.4225
  598TIP3    H123209   6.505   0.221  17.023 -0.0957 -0.1939 -0.7073
  598TIP3    H223210   6.556   0.363  17.014  0.7427 -0.4860 -0.6397
  599TIP3   OH223211   2.759   5.637   3.454  0.2329  0.2044  0.4066
  599TIP3    H123212   2.715   5.689   3.387 -0.0189 -1.3282 -0.6841
  599TIP3    H223213   2.744   5.546   3.428  3.9996 -0.4593 -0.0456
  600TIP3   OH223214   1.611   5.006   4.426  0.0118 -0.5470  0.5588
  600TIP3    H123215   1.532   5.059   4.432  1.4099  1.7522  0.2673
  600TIP3    H223216   1.674   5.064   4.383  1.5303 -2.6732 -0.1982
  601TIP3   OH223217   0.300   3.122   5.344 -0.5086 -0.3140  0.3365
  601TIP3    H123218   0.249   3.155   5.419  0.6462  2.6894 -0.0388
  601TIP3    H223219   0.370   3.070   5.383 -2.6746 -2.9379  0.9633
  602TIP3   OH223220   3.971   1.500  15.007 -0.4433  0.1595  0.8512
  602TIP3    H123221   3.881   1.465  15.012 -0.5154  0.5009  2.1022
  602TIP3    H223222   3.986   1.539  15.092  1.0309 -0.1822  0.7654
  603TIP3   OH223223   2.698   1.629   4.741 -0.4710 -0.4263 -0.3097
  603TIP3    H123224   2.785   1.599   4.715 -0.3061 -1.9282  1.7097
  603TIP3    H223225   2.645   1.549   4.745 -2.7770  0.6857 -4.0031
  604TIP3   OH223226   2.663   4.627  14.104 -0.2469 -0.1793 -0.9769
  604TIP3    H123227   2.629   4.577  14.179  0.4041 -0.3591 -0.7959
  604TIP3    H223228   2.629   4.715  14.117  0.3388 -0.0626 -0.1450
  605TIP3   OH223229   2.328   4.266   3.469 -0.0108  0.3313  0.4713
  605TIP3    H123230   2.407   4.233   3.427 -0.3680  0.3738 -0.2517
  605TIP3    H223231   2.358   4.300   3.554  0.7890  0.5800  0.0998
  606TIP3   OH223232   3.868   1.211  14.592 -0.4430  0.4779  0.1615
  606TIP3    H123233   3.812   1.273  14.545  1.4683  0.7784 -1.8679
  606TIP3    H223234   3.947   1.262  14.613  0.0409 -0.5505  0.8853
  607TIP3   OH223235   2.304   4.493   0.292 -0.2016  0.3268 -0.3309
  607TIP3    H123236   2.222   4.519   0.251 -0.1967  0.0326 -0.5332
  607TIP3    H223237   2.292   4.512   0.385 -0.4152  0.4876 -0.3925
  608TIP3   OH223238   5.076   0.870  16.575  0.3649  0.2452 -0.4413
  608TIP3    H123239   5.138   0.820  16.628 -1.1614  0.9609  2.2603
  608TIP3    H223240   5.064   0.818  16.496  0.9950 -2.1928  0.9641
  609TIP3   OH223241   6.458   3.882   2.194 -0.2322 -0.1639  0.3506
  609TIP3    H123242   6.547   3.875   2.161 -0.2738  0.2497  0.1547
  609TIP3    H223243   6.437   3.793   2.224 -0.1506 -0.5112 -0.5984
  610TIP3   OH223244   1.060   0.916  17.162 -0.0692  0.2929 -0.4543
  610TIP3    H123245   1.123   0.981  17.192 -0.5342 -0.2315  1.7893
  610TIP3    H223246   1.107   0.867  17.095  0.6807  2.1404 -1.3528
  611TIP3   OH223247   1.243   6.000  14.967 -0.4565  0.0251 -0.5895
  611TIP3    H123248   1.326   6.047  14.967 -0.4217 -0.0327 -0.9375
  611TIP3    H223249   1.214   6.003  15.058 -0.4673  0.7527 -0.6086
  612TIP3   OH223250   2.500   4.800   4.812 -0.0862  0.2007  0.1597
  612TIP3    H123251   2.527   4.772   4.724 -1.8340 -1.4864  0.0839
  612TIP3    H223252   2.467   4.889   4.799 -0.0798  0.0757 -0.8618
  613TIP3   OH223253   3.043   2.359   0.838 -0.0471  0.3752  0.4781
  613TIP3    H123254   3.073   2.440   0.797  0.3830 -0.5685 -1.1727
  613TIP3    H223255   2.989   2.317   0.771  1.4531 -1.6870  0.4653
  614TIP3   OH223256   2.257   4.879   3.463  0.4233 -0.0198  0.3970
  614TIP3    H123257   2.330   4.829   3.427 -0.0889 -2.3048  2.3027
  614TIP3    H223258   2.200   4.896   3.388  2.2987  0.8184 -0.9134
  615TIP3   OH223259   1.629   5.594  12.800 -0.4157 -0.4467  0.7887
  615TIP3    H123260   1.619   5.637  12.716 -0.8428 -2.8254 -0.4763
  615TIP3    H223261   1.562   5.634  12.856 -1.8494 -0.5520 -0.7773
  616TIP3   OH223262   2.401   1.916   1.099 -0.3289  0.1464  0.2002
  616TIP3    H123263   2.491   1.925   1.132 -0.1638  1.2626 -0.4834
  616TIP3    H223264   2.398   1.976   1.024 -1.2468 -0.9018 -0.6282
  617TIP3   OH223265   2.701   2.646  11.796 -0.4293 -0.6474 -0.8599
  617TIP3    H123266   2.608   2.659  11.778 -0.3702  2.3282  0.3971
  617TIP3    H223267   2.719   2.704  11.870  1.9481 -2.9327  0.4970
  618TIP3   OH223268   5.110   2.678  13.212  0.1028  0.1190  0.4196
  618TIP3    H123269   5.204   2.695  13.207  0.0692  0.7364  1.5394
  618TIP3    H223270   5.090   2.679  13.306 -0.6609 -2.0972  0.3519
  619TIP3   OH223271   0.099   1.211  17.400 -0.7916  0.1801 -0.2840
  619TIP3    H123272   0.160   1.146  17.435 -1.4511 -0.5197 -0.3933
  619TIP3    H223273   0.140   1.295  17.418  1.6438 -0.2916 -2.9386
  620TIP3   OH223274   5.493   1.785   4.701  0.3847 -0.4756  0.6321
  620TIP3    H123275   5.427   1.795   4.770 -0.6740  1.3432 -0.5553
  620TIP3    H223276   5.460   1.713   4.647  0.9696 -1.5841  1.7112
  621TIP3   OH223277   0.302   3.543  15.619 -0.0832  0.3520 -0.3347
  621TIP3    H123278   0.241   3.474  15.594  0.9839 -0.4677 -0.7120
  621TIP3    H223279   0.381   3.526  15.569  1.0087  0.5275  1.2421
  622TIP3   OH223280   0.628   6.102   4.651  0.0599  0.4467  0.5023
  622TIP3    H123281   0.645   6.092   4.557  0.2517 -0.3924  0.6191
  622TIP3    H223282   0.577   6.025   4.675  1.7245 -0.4130  1.4808
  623TIP3   OH223283   5.126   4.129   4.942 -0.5339  0.3237  0.6016
  623TIP3    H123284   5.174   4.094   5.017  0.4552  0.6665  0.1424
  623TIP3    H223285   5.080   4.206   4.976 -0.5468  0.1524  0.9806
  624TIP3   OH223286   5.664   3.952   3.479  0.1618 -0.3910  0.5979
  624TIP3    H123287   5.671   3.914   3.566  0.8229 -1.9403 -0.0975
  624TIP3    H223288   5.745   4.000   3.466 -0.0169 -0.0034  0.8949
  625TIP3   OH223289   4.410   0.250  11.800 -0.3950  0.1649 -0.1916
  625TIP3    H123290   4.448   0.172  11.841  1.4327  0.8308 -0.4913
  625TIP3    H223291   4.478   0.317  11.810 -0.3926  0.7144 -3.1102
  626TIP3   OH223292   2.604   6.590  14.767  0.4135  0.2480 -0.2315
  626TIP3    H123293   2.584   6.611  14.858 -0.7009  2.0693 -0.8509
  626TIP3    H223294   2.521   6.600  14.721  0.8635 -1.0396 -1.4196
  627TIP3   OH223295   0.507   1.871   2.766  0.6605 -0.4971 -0.0106
  627TIP3    H123296   0.558   1.945   2.799 -0.3253  0.2905 -0.2061
  627TIP3    H223297   0.568   1.823   2.709  0.5358  1.8205 -2.2811
  628TIP3   OH223298   0.338   2.069  11.932 -0.5765 -0.0620 -0.1910
  628TIP3    H123299   0.330   2.021  11.849 -0.7276 -1.8166  0.7830
  628TIP3    H223300   0.334   2.161  11.907 -5.4450 -0.4227 -1.7486
  629TIP3   OH223301   3.891   3.723  10.684  0.2366 -0.1167  0.8908
  629TIP3    H123302   3.976   3.765  10.673  0.1854  0.1710  1.5911
  629TIP3    H223303   3.830   3.794  10.702  0.0040 -0.4004  1.2565
  630TIP3   OH223304   6.350   0.022   1.204 -0.1181  0.4526  0.1176
  630TIP3    H123305   6.406  -0.055   1.217 -0.8838 -0.1352 -0.0161
  630TIP3    H223306   6.406   0.084   1.155  1.6624  1.3768  3.0554
  631TIP3   OH223307   4.996   3.141   0.787  0.4762 -0.1873 -0.2716
  631TIP3    H123308   5.075   3.157   0.838  1.1042 -1.1007 -0.9239
  631TIP3    H223309   4.954   3.068   0.832 -0.8100  1.2331  0.9470
  632TIP3   OH223310   0.861   3.213   2.718 -0.1764 -0.8283  0.0652
  632TIP3    H123311   0.819   3.286   2.764 -0.1416 -1.0491  0.4455
  632TIP3    H223312   0.800   3.190   2.648  0.4783  0.5548 -1.0273
  633TIP3   OH223313   6.253   5.996  16.636  0.2524  0.1699  0.3279
  633TIP3    H123314   6.274   5.955  16.720 -1.4637 -0.4479  0.4832
  633TIP3    H223315   6.304   5.947  16.572  0.4123 -0.3217  0.8238
  634TIP3   OH223316   6.056   0.302   5.695 -0.4196 -0.0461 -0.2603
  634TIP3    H123317   5.992   0.370   5.677 -0.8725 -0.5386 -0.5204
  634TIP3    H223318   6.065   0.254   5.613  0.4325  0.1438 -0.2838
  635TIP3   OH223319   5.007   3.015  16.965  0.2476  0.4426  0.0570
  635TIP3    H123320   4.980   2.964  16.889 -1.6256  0.5054  0.6365
  635TIP3    H223321   4.962   2.974  17.039  1.5813  0.7304  1.0731
  636TIP3   OH223322   5.383   3.311  11.184 -0.3084 -0.2062  0.1972
  636TIP3    H123323   5.321   3.286  11.115 -0.8581 -4.3906  1.9430
  636TIP3    H223324   5.468   3.280  11.151  0.0998  1.1836 -0.1214
  637TIP3   OH223325   2.426   4.545   3.920  0.2638 -0.2588  0.3685
  637TIP3    H123326   2.518   4.516   3.919 -0.1204 -1.6033  1.4052
  637TIP3    H223327   2.426   4.619   3.980  0.2164 -2.1195  2.8157
  638TIP3   OH223328   0.936   0.032  16.233 -0.0310 -0.4470 -0.0326
  638TIP3    H123329   1.027   0.051  16.210 -0.6336  1.0281 -1.3890
  638TIP3    H223330   0.940  -0.051  16.281  2.0150 -0.4118 -0.0530
  639TIP3   OH223331   1.723   0.831  11.050 -0.1188 -0.4773 -0.1957
  639TIP3    H123332   1.798   0.799  11.000 -0.1468 -0.2612 -0.3796
  639TIP3    H223333   1.687   0.902  10.996  0.0138 -0.0589  0.2590
  640TIP3   OH223334   1.112   3.439   1.756  0.0690 -0.6886 -0.8422
  640TIP3    H123335   1.023   3.468   1.741  0.6858  1.3670 -0.8062
  640TIP3    H223336   1.103   3.360   1.809 -1.6914  0.5519  0.8413
  641TIP3   OH223337   0.869   1.449   5.951 -0.6051 -0.3936  0.4737
  641TIP3    H123338   0.879   1.470   5.859  2.0162 -2.2688  0.2378
  641TIP3    H223339   0.775   1.434   5.962 -0.8885 -0.8589 -2.0577
  642TIP3   OH223340   3.318   1.971  13.695 -0.1518  0.3012 -0.0500
  642TIP3    H123341   3.285   2.050  13.739 -0.8507 -0.1537  0.2645
  642TIP3    H223342   3.255   1.954  13.625 -1.5283 -1.4536  1.5093
  643TIP3   OH223343   3.019   1.467  15.711 -0.8051  0.0979 -0.2354
  643TIP3    H123344   3.033   1.467  15.806 -0.5525 -0.0101 -0.2713
  643TIP3    H223345   3.043   1.555  15.683 -1.3908  0.2971 -0.1288
  644TIP3   OH223346   5.167   1.224   2.407  0.2004 -0.3116 -0.6666
  644TIP3    H123347   5.102   1.163   2.440  0.9555 -0.2789  0.9873
  644TIP3    H223348   5.238   1.169   2.373  0.7395 -0.3780  0.5328
  645TIP3   OH223349   5.418   6.601  12.172 -0.6115 -0.1818 -0.6083
  645TIP3    H123350   5.396   6.512  12.142  0.0447 -0.2611 -0.8832
  645TIP3    H223351   5.354   6.657  12.129 -0.3642 -0.4119 -1.2889
  646TIP3   OH223352   4.192   1.575   3.209  0.5350  0.0336 -0.2272
  646TIP3    H123353   4.217   1.570   3.301  0.1016  1.6257  0.0052
  646TIP3    H223354   4.098   1.592   3.210  1.2284  6.0498 -0.6313
  647TIP3   OH223355   2.186   3.523   3.900 -0.0676 -0.0122 -0.6960
  647TIP3    H123356   2.145   3.515   3.986 -1.1165 -1.3857 -1.2909
  647TIP3    H223357   2.160   3.610   3.869 -1.0296 -0.1430 -0.2926
  648TIP3   OH223358   1.700   5.327  16.946  0.4534 -0.1556 -0.6202
  648TIP3    H123359   1.756   5.367  16.879  1.0277  0.6446  0.3244
  648TIP3    H223360   1.757   5.314  17.021 -0.1987 -1.0203 -0.2533
  649TIP3   OH223361   3.485   3.518  14.397 -0.0044 -0.1549 -0.2369
  649TIP3    H123362   3.438   3.473  14.327 -1.0479 -1.8758  1.4811
  649TIP3    H223363   3.488   3.610  14.369 -2.9935 -0.2399 -1.1939
  650TIP3   OH223364   2.766   4.058   3.329 -0.0349 -0.4385  0.4977
  650TIP3    H123365   2.833   4.035   3.394  0.6452 -1.0017 -0.3773
  650TIP3    H223366   2.736   3.974   3.295 -1.0004 -0.1771  0.6834
  651TIP3   OH223367   2.573   4.773   4.554  0.2815  0.1890 -0.0119
  651TIP3    H123368   2.652   4.721   4.542 -0.8081 -1.3943 -0.7024
  651TIP3    H223369   2.583   4.846   4.492  0.9499 -0.3153 -0.5133
  652TIP3   OH223370   3.740   3.272   4.817 -0.1279  0.2367 -0.0579
  652TIP3    H123371   3.650   3.250   4.843 -0.4173 -1.1344 -1.9905
  652TIP3    H223372   3.748   3.366   4.836 -1.2869 -0.0157  1.9558
  653TIP3   OH223373   3.391   6.114  11.918  0.2320  0.1505  0.2619
  653TIP3    H123374   3.340   6.176  11.867 -0.5413 -0.0862  0.7177
  653TIP3    H223375   3.366   6.028  11.884  1.0547  0.0671 -0.1526
  654TIP3   OH223376   6.649   6.305   2.128 -0.5747 -0.2382 -0.0558
  654TIP3    H123377   6.670   6.380   2.183  2.3637 -0.4643 -0.7247
  654TIP3    H223378   6.568   6.270   2.165 -0.2910  1.3376  2.2456
  655TIP3   OH223379   6.085   4.620  11.287  0.2133  0.4829  0.4116
  655TIP3    H123380   6.088   4.714  11.274 -1.1141  0.3696 -0.9422
  655TIP3    H223381   5.994   4.596  11.268  0.3594 -0.9902  1.3737
  656TIP3   OH223382   1.543   6.443   2.510  0.9412 -0.4509  0.6746
  656TIP3    H123383   1.603   6.512   2.479  1.7414 -1.2115  0.4706
  656TIP3    H223384   1.550   6.447   2.605  1.3842 -0.5915  0.6491
  657TIP3   OH223385   3.235   5.833  16.519 -0.0219  0.2407  0.3343
  657TIP3    H123386   3.178   5.774  16.569  0.1724 -0.0602  0.2006
  657TIP3    H223387   3.175   5.878  16.458  0.0195 -0.7499 -0.4479
  658TIP3   OH223388   2.564   1.012   4.256 -0.1503 -0.2983 -0.1015
  658TIP3    H123389   2.528   1.090   4.299  0.0267 -0.8057  0.9813
  658TIP3    H223390   2.656   1.010   4.283  0.1045 -0.3528 -0.9229
  659TIP3   OH223391   2.621   1.385   5.530 -0.1176 -0.2985 -0.0121
  659TIP3    H123392   2.538   1.415   5.491  1.3210  2.8238 -0.9990
  659TIP3    H223393   2.595   1.337   5.608 -2.9530 -2.3845 -2.0354
  660TIP3   OH223394   2.741   4.327  13.445 -0.3564 -0.1617  0.2793
  660TIP3    H123395   2.830   4.292  13.441  0.3047  1.3838  0.9861
  660TIP3    H223396   2.745   4.409  13.396 -1.3833 -0.0398  0.3756
  661TIP3   OH223397   3.538   2.548   5.265  0.0500 -0.7111  0.0482
  661TIP3    H123398   3.524   2.454   5.280  0.1997 -0.5838  1.0538
  661TIP3    H223399   3.632   2.559   5.269 -0.0112 -0.3925  0.8108
  662TIP3   OH223400   3.340   6.133  14.959 -0.0203  0.2804  0.7188
  662TIP3    H123401   3.271   6.152  14.895 -2.0211 -2.4976  1.8713
  662TIP3    H223402   3.392   6.063  14.919 -0.6169 -0.7066  1.6112
  663TIP3   OH223403   1.714   3.713   4.821 -1.0590  0.1255  0.6598
  663TIP3    H123404   1.655   3.674   4.885 -1.7640  1.4367  0.8419
  663TIP3    H223405   1.701   3.808   4.830  0.1210  0.3995 -0.2006
  664TIP3   OH223406   5.025   2.852   2.752  0.2266  0.6348  0.1670
  664TIP3    H123407   5.051   2.760   2.748 -0.0363  0.6000 -1.4353
  664TIP3    H223408   4.956   2.855   2.819  0.3218 -0.2959  0.3158
  665TIP3   OH223409   4.577   3.157   2.526 -0.1951  0.4083 -0.5258
  665TIP3    H123410   4.484   3.174   2.535 -0.1546 -0.4373  2.1109
  665TIP3    H223411   4.620   3.235   2.562  0.0229 -0.8785  2.2232
  666TIP3   OH223412   5.424   0.117   3.012  0.3852 -0.0770 -0.3916
  666TIP3    H123413   5.472   0.047   2.966  1.5375 -0.4966  1.3488
  666TIP3    H223414   5.447   0.105   3.104 -1.7621  0.7935  0.3165
  667TIP3   OH223415   4.971   3.610  12.931  0.5820 -0.5383 -0.5270
  667TIP3    H123416   4.897   3.596  12.872  1.2842 -0.2933 -1.4865
  667TIP3    H223417   5.017   3.685  12.894 -0.4544  1.4361  1.8403
  668TIP3   OH223418   6.646   3.730   1.663  0.2349 -0.5955 -0.8539
  668TIP3    H123419   6.640   3.824   1.647 -0.2034 -0.6712 -1.1367
  668TIP3    H223420   6.558   3.697   1.647  0.0049 -0.8370  0.7729
  669TIP3   OH223421   5.096   2.611   1.290 -0.3551  0.5603  0.3069
  669TIP3    H123422   5.168   2.549   1.302 -1.0107 -0.1220  0.8941
  669TIP3    H223423   5.024   2.573   1.340 -1.9547 -0.1329 -2.3300
  670TIP3   OH223424   3.758   2.228  13.470 -0.1724 -0.1123  0.7072
  670TIP3    H123425   3.693   2.233  13.540  0.4218 -0.5085  1.2992
  670TIP3    H223426   3.842   2.247  13.513  0.0268  1.1275 -0.1863
  671TIP3   OH223427   6.113   1.969  10.823  0.1565  0.3453  0.2868
  671TIP3    H123428   6.055   1.960  10.747  0.0079  0.6434  0.3629
  671TIP3    H223429   6.095   1.891  10.876 -0.9805  0.9662  0.8492
  672TIP3   OH223430   2.652   5.543   0.802 -0.0398  0.0039 -0.2157
  672TIP3    H123431   2.693   5.514   0.720  0.1677 -0.8995  0.1971
  672TIP3    H223432   2.706   5.504   0.870 -1.0100 -0.3807  0.3490
  673TIP3   OH223433   4.120   3.648   1.070  0.0272 -0.0868 -0.3881
  673TIP3    H123434   4.162   3.592   1.005 -0.3910  0.6518 -1.3206
  673TIP3    H223435   4.109   3.592   1.146  1.1757 -0.7717 -0.6982
  674TIP3   OH223436   5.323   5.971  15.879 -0.6526 -0.2286 -0.3501
  674TIP3    H123437   5.390   5.940  15.818 -0.7637 -0.4628 -0.3587
  674TIP3    H223438   5.281   6.045  15.835  0.2705  0.5656  0.0831
  675TIP3   OH223439   2.222   3.022   3.219 -0.3781  0.1793 -0.0377
  675TIP3    H123440   2.274   3.077   3.160 -0.1173  0.6142  0.5918
  675TIP3    H223441   2.170   3.084   3.270  1.2817  0.0254  2.0003
  676TIP3   OH223442   1.116   0.211  16.519  0.1324 -0.1321  0.1445
  676TIP3    H123443   1.057   0.137  16.535  0.5629 -0.4495  0.3077
  676TIP3    H223444   1.175   0.181  16.450  1.0082 -0.3600  0.9699
  677TIP3   OH223445   1.741   5.008  12.974  0.1578  0.0657 -0.1561
  677TIP3    H123446   1.772   4.920  12.953 -2.8815 -0.7476 -1.6985
  677TIP3    H223447   1.691   4.997  13.055  1.7283  0.9258  1.0042
  678TIP3   OH223448   2.418   6.437  11.845  0.1977  0.2676  0.0032
  678TIP3    H123449   2.413   6.486  11.927  2.6580  1.8948 -0.6856
  678TIP3    H223450   2.420   6.504  11.777 -0.1746 -0.9766 -1.2781
  679TIP3   OH223451   5.618   4.139   5.198  0.3219  0.6624  0.0471
  679TIP3    H123452   5.581   4.174   5.280 -1.5266  1.3770 -1.0294
  679TIP3    H223453   5.599   4.045   5.202  0.4760  0.6505  0.5578
  680TIP3   OH223454   3.217   4.858   0.138 -0.4547 -0.3139 -0.3283
  680TIP3    H123455   3.214   4.765   0.113  0.7234 -0.3271 -0.4362
  680TIP3    H223456   3.193   4.859   0.230 -2.0635 -0.5481 -0.7070
  681TIP3   OH223457   5.748   1.090   3.262  0.2895 -0.0383  0.6132
  681TIP3    H123458   5.806   1.166   3.259 -0.1251  0.2463 -0.8822
  681TIP3    H223459   5.723   1.075   3.171 -3.2969  0.8775  1.2806
  682TIP3   OH223460   0.163   2.082  10.901  0.3705 -0.0254 -0.2348
  682TIP3    H123461   0.105   2.008  10.921  0.2727  0.0852 -0.1099
  682TIP3    H223462   0.206   2.057  10.819 -0.0072 -0.0179 -0.4386
  683TIP3   OH223463   5.082   4.874  14.859  0.2426  0.1128  0.5540
  683TIP3    H123464   5.061   4.781  14.864 -0.7740  0.2726 -0.2953
  683TIP3    H223465   5.069   4.896  14.767 -0.6445  1.3339  0.9452
  684TIP3   OH223466   1.121   4.238  14.297  0.2261  0.1000 -0.7873
  684TIP3    H123467   1.151   4.212  14.384  1.2257  0.1867 -1.1008
  684TIP3    H223468   1.048   4.298  14.314  1.1551  1.0264  0.0111
  685TIP3   OH223469   4.178   6.514  10.446  0.5119  0.3574  0.1169
  685TIP3    H123470   4.140   6.429  10.465  1.7055 -0.3654 -0.5683
  685TIP3    H223471   4.271   6.496  10.432  0.9428  1.8949  0.7672
  686TIP3   OH223472   4.912   2.086  12.574  0.1780 -0.5094 -0.4640
  686TIP3    H123473   4.918   2.120  12.663 -1.5869 -2.0575  0.2973
  686TIP3    H223474   4.863   2.153  12.526  1.6080  0.5852 -0.4584
  687TIP3   OH223475   1.508   4.090   0.156  0.2355 -0.9446 -0.4156
  687TIP3    H123476   1.530   4.100   0.064 -0.6746 -1.6280 -0.7149
  687TIP3    H223477   1.585   4.125   0.203  0.6900 -0.5724 -1.4150
  688TIP3   OH223478   2.057   0.739   3.139  0.1198  0.3771 -0.4525
  688TIP3    H123479   1.991   0.799   3.105  1.0848  1.3576 -0.6610
  688TIP3    H223480   2.114   0.721   3.064  0.9435  0.7339  0.0782
  689TIP3   OH223481   2.776   4.819   1.309  0.6347  0.7046 -0.5681
  689TIP3    H123482   2.794   4.734   1.349 -1.4419  0.9481  1.1042
  689TIP3    H223483   2.790   4.882   1.380 -0.1184  1.5079 -1.1135
  690TIP3   OH223484   2.146   1.795   3.499  0.4246 -0.1043 -0.2636
  690TIP3    H123485   2.181   1.731   3.561 -0.7541  2.1132  2.9854
  690TIP3    H223486   2.209   1.866   3.501  0.1529  0.1770 -1.3338
  691TIP3   OH223487   1.844   5.399  13.801  0.3258  0.5232  0.5565
  691TIP3    H123488   1.858   5.449  13.721 -0.3410 -1.0274 -0.5725
  691TIP3    H223489   1.895   5.319  13.789 -0.5159 -0.1450  1.2639
  692TIP3   OH223490   3.042   3.299  14.859  0.5055  0.6886  0.5224
  692TIP3    H123491   3.043   3.290  14.764 -1.5041  0.7939  0.4498
  692TIP3    H223492   3.116   3.246  14.889  0.0329 -0.8958 -0.9691
  693TIP3   OH223493   3.462   4.759  11.860 -0.0380  0.4240  0.2318
  693TIP3    H123494   3.388   4.699  11.867 -0.1499  0.6012  0.5432
  693TIP3    H223495   3.524   4.713  11.804 -0.1798  0.0740  0.3620
  694TIP3   OH223496   4.787   1.795  14.191  0.3826  0.2673 -0.1356
  694TIP3    H123497   4.841   1.736  14.140  0.2954  0.7944 -0.8484
  694TIP3    H223498   4.805   1.882  14.155 -0.8985  0.4598 -0.3669
  695TIP3   OH223499   2.568   5.599   4.386 -0.7989 -0.7648  0.0630
  695TIP3    H123500   2.477   5.628   4.393 -1.6697 -2.6711 -2.0703
  695TIP3    H223501   2.576   5.529   4.451 -0.4246  0.2460  1.1428
  696TIP3   OH223502   0.756   2.436   3.816  0.8290  0.2978  0.0527
  696TIP3    H123503   0.753   2.525   3.780 -2.4809 -0.2005 -1.2198
  696TIP3    H223504   0.726   2.446   3.907 -0.5482  0.4274 -0.3906
  697TIP3   OH223505   5.354   0.475   2.225 -0.1077 -0.2712 -0.2201
  697TIP3    H123506   5.448   0.489   2.210  0.1462 -1.3602  0.1894
  697TIP3    H223507   5.331   0.404   2.166 -0.5708 -0.2939 -0.0169
  698TIP3   OH223508   0.699   4.290   5.949 -0.1702 -1.0452  0.5037
  698TIP3    H123509   0.645   4.353   5.901 -1.3914 -2.8608 -0.6074
  698TIP3    H223510   0.765   4.344   5.993 -0.8171  0.9489 -0.8455
  699TIP3   OH223511   2.728   3.011   6.169  0.0789  0.6301 -0.1590
  699TIP3    H123512   2.777   3.043   6.093  0.8146 -0.0548  0.0214
  699TIP3    H223513   2.694   3.090   6.210  0.3869  1.0641 -0.7202
  700TIP3   OH223514   1.847   6.143   3.753 -0.3996 -0.3059 -0.0045
  700TIP3    H123515   1.780   6.144   3.822  0.1085 -0.7223  0.5026
  700TIP3    H223516   1.797   6.134   3.672 -1.0580  1.0078  0.2339
  701TIP3   OH223517   5.958   2.120  16.867  0.4311 -0.3581  0.3888
  701TIP3    H123518   5.933   2.074  16.947  1.3569 -2.7000 -0.5725
  701TIP3    H223519   5.895   2.088  16.801 -1.4492  2.8499  0.4287
  702TIP3   OH223520   0.377   0.848  13.040  0.0267  0.9389  0.3594
  702TIP3    H123521   0.402   0.807  12.957 -0.2368  0.5139  0.4898
  702TIP3    H223522   0.421   0.796  13.107 -0.6088  0.6383  0.5466
  703TIP3   OH223523   2.902   2.171  13.216  0.3307  0.2094  0.1277
  703TIP3    H123524   2.896   2.075  13.223 -0.3978  0.2710  0.4407
  703TIP3    H223525   2.924   2.200  13.304 -3.0368  0.5585  1.0121
  704TIP3   OH223526   4.553   1.523  17.001  0.4051  0.3509 -0.7163
  704TIP3    H123527   4.504   1.478  16.932  1.7634 -0.2499 -1.3364
  704TIP3    H223528   4.562   1.457  17.070 -1.2104  1.0480  0.1835
  705TIP3   OH223529   2.322   4.087   2.141 -0.0755  0.1629 -0.3859
  705TIP3    H123530   2.314   4.001   2.182  0.0632  1.2368  2.0716
  705TIP3    H223531   2.401   4.082   2.088  0.7628 -0.7906  0.9060
  706TIP3   OH223532   3.396   2.633  15.243  0.4123 -0.2486  0.5100
  706TIP3    H123533   3.356   2.578  15.176 -0.4514  1.7335 -0.6626
  706TIP3    H223534   3.485   2.600  15.251 -0.0194 -1.6842 -0.2883
  707TIP3   OH223535   4.698   1.498   0.068  0.0880 -0.4370 -0.0209
  707TIP3    H123536   4.748   1.433   0.118  0.2567  0.4381  0.9673
  707TIP3    H223537   4.720   1.479  -0.023  1.5734 -0.6042  0.3515
  708TIP3   OH223538   6.490   4.585   2.089  0.2077 -0.1586  0.7210
  708TIP3    H123539   6.457   4.674   2.103 -0.3913  0.1876 -2.2176
  708TIP3    H223540   6.585   4.594   2.084  0.0826  0.5722 -0.7859
  709TIP3   OH223541   5.423   4.673   3.305  0.0176  0.6057  0.5390
  709TIP3    H123542   5.333   4.682   3.275  0.6048  3.5060 -0.6484
  709TIP3    H223543   5.455   4.763   3.315  3.3043 -0.2781 -0.6653
  710TIP3   OH223544   6.610   1.846  14.386 -0.3883  0.1678 -0.4155
  710TIP3    H123545   6.584   1.911  14.452  0.4293  0.5124 -0.4166
  710TIP3    H223546   6.705   1.840  14.396  0.2570  2.5418 -3.6131
  711TIP3   OH223547   5.932   1.869   4.127 -0.0051 -0.2370  0.1348
  711TIP3    H123548   5.980   1.815   4.189 -0.7619 -0.7521  0.2845
  711TIP3    H223549   5.869   1.918   4.180 -1.0258 -1.0831 -0.2646
  712TIP3   OH223550   5.509   3.783  14.187  0.1450 -0.0806  0.7202
  712TIP3    H123551   5.597   3.767  14.221  0.3717  0.6393  0.5075
  712TIP3    H223552   5.460   3.817  14.262  0.3669  0.5618  0.5865
  713TIP3   OH223553   4.822   0.743   2.687 -0.1723 -0.0521 -0.0462
  713TIP3    H123554   4.779   0.669   2.731  0.5832 -2.7890 -3.4091
  713TIP3    H223555   4.915   0.721   2.688  0.3964  2.1823  0.9683
  714TIP3   OH223556   0.846   1.881  11.189  0.3456 -0.3692  0.4426
  714TIP3    H123557   0.917   1.832  11.232  1.0462  0.3063  0.0782
  714TIP3    H223558   0.856   1.861  11.096  0.6864  0.5265  0.2843
  715TIP3   OH223559   2.408   1.936   4.488 -0.1319 -0.8203 -0.2467
  715TIP3    H123560   2.475   2.003   4.476  0.2659 -1.3077 -0.8327
  715TIP3    H223561   2.449   1.871   4.544 -0.6479 -0.4056  0.6320
  716TIP3   OH223562   3.617   6.629   4.664  0.3569 -0.3967  0.4102
  716TIP3    H123563   3.523   6.636   4.679  0.1899  2.3899 -1.3041
  716TIP3    H223564   3.656   6.693   4.722  1.0225 -0.2585 -0.1710
  717TIP3   OH223565   0.400   0.077  14.815 -0.3758 -1.0813  0.3657
  717TIP3    H123566   0.368   0.023  14.743  0.0765 -2.3532  1.1039
  717TIP3    H223567   0.464   0.135  14.774 -0.9811 -0.9674 -0.4606
  718TIP3   OH223568   5.065   3.951  15.027  0.0659  0.2932 -0.6281
  718TIP3    H123569   5.057   4.046  15.038  0.7928  0.2131  0.9077
  718TIP3    H223570   5.114   3.922  15.104  0.2829 -1.2751 -1.3151
  719TIP3   OH223571   2.684   3.872  13.062 -0.0694  0.1625 -0.2036
  719TIP3    H123572   2.758   3.917  13.021 -0.5676  0.9250 -0.2806
  719TIP3    H223573   2.708   3.779  13.060  0.8638  0.4005 -0.2624
  720TIP3   OH223574   2.810   5.754  13.486 -0.1278 -0.3953  0.1133
  720TIP3    H123575   2.770   5.813  13.422 -0.6707  0.4150  1.1601
  720TIP3    H223576   2.901   5.748  13.460 -0.1658  0.5697 -0.2746
  721TIP3   OH223577   3.369   0.913  12.612 -0.3788 -0.2035 -0.2025
  721TIP3    H123578   3.319   0.972  12.669 -1.9379 -0.0655 -1.6346
  721TIP3    H223579   3.327   0.828  12.623 -1.3356  0.0248 -1.8273
  722TIP3   OH223580   0.355   6.111   4.046  0.7120  0.0071  0.5001
  722TIP3    H123581   0.342   6.140   4.136  0.3300 -0.1654  0.5070
  722TIP3    H223582   0.373   6.017   4.054  1.7822  0.1990  0.4685
  723TIP3   OH223583   3.155   4.790  14.524 -0.2400 -0.1299  0.1126
  723TIP3    H123584   3.207   4.865  14.492  2.5220 -1.8396  0.2873
  723TIP3    H223585   3.163   4.794  14.619 -0.7279 -0.2325  0.1590
  724TIP3   OH223586   0.348   3.783   0.021 -0.1357  0.0067  0.1032
  724TIP3    H123587   0.297   3.828   0.088  0.0750  0.4789 -0.0424
  724TIP3    H223588   0.337   3.690   0.039 -0.0930  0.1316  0.7784
  725TIP3   OH223589   0.066   0.477   6.468 -0.2341 -0.0317 -0.1011
  725TIP3    H123590   0.077   0.571   6.487 -0.2816 -0.1808  0.7159
  725TIP3    H223591   0.102   0.433   6.545  3.0199 -0.8073 -1.8536
  726TIP3   OH223592   6.068   1.975  12.793  0.3482 -0.0130 -0.3075
  726TIP3    H123593   6.130   2.001  12.862  1.5143 -1.6540 -0.6726
  726TIP3    H223594   5.992   1.943  12.842  0.0730  1.3031  0.1629
  727TIP3   OH223595   4.006   2.545   0.694  0.1877 -0.3588 -0.0615
  727TIP3    H123596   4.047   2.573   0.612 -0.4045 -1.7915 -0.8922
  727TIP3    H223597   3.940   2.612   0.712  0.5205  0.1286 -0.6103
  728TIP3   OH223598   5.595   0.902  13.712  0.3150  0.1591  0.3187
  728TIP3    H123599   5.569   0.812  13.692 -0.0099  0.0594  1.1698
  728TIP3    H223600   5.675   0.916  13.660  1.9886 -1.5548  2.2555
  729TIP3   OH223601   4.832   1.090   3.171  0.5593  0.4450  0.4802
  729TIP3    H123602   4.775   1.147   3.223  1.0224 -0.9190  2.6431
  729TIP3    H223603   4.777   1.058   3.100  0.7000  4.7210 -1.8963
  730TIP3   OH223604   0.588   2.883   5.872 -0.5229 -0.2972 -0.3270
  730TIP3    H123605   0.608   2.797   5.833  0.3663 -0.4654  0.4620
  730TIP3    H223606   0.507   2.910   5.829  0.3099 -0.5539 -2.1739
  731TIP3   OH223607   0.205   4.546   2.827  0.0668 -0.7525  0.0965
  731TIP3    H123608   0.228   4.634   2.858  3.1471 -0.3152 -2.8193
  731TIP3    H223609   0.284   4.494   2.841 -1.5198 -3.0485  1.2782
  732TIP3   OH223610   5.851   5.404   3.620 -0.0108 -0.1262  0.5516
  732TIP3    H123611   5.830   5.395   3.527  0.0117  0.2174  0.5143
  732TIP3    H223612   5.902   5.325   3.640 -0.3264 -0.3804  0.3625
  733TIP3   OH223613   0.643   3.829   4.604 -0.2271  0.0660 -0.3057
  733TIP3    H123614   0.685   3.894   4.547  0.3660  0.2799  0.3715
  733TIP3    H223615   0.704   3.756   4.606  1.7060  1.5404  3.1095
  734TIP3   OH223616   5.326   5.773   3.817 -0.2202  0.7933 -0.5107
  734TIP3    H123617   5.316   5.752   3.910 -0.0268 -0.6002 -0.7791
  734TIP3    H223618   5.249   5.736   3.775 -1.3833  3.2290 -0.6881
  735TIP3   OH223619   6.161   3.436   4.399  0.3979 -0.4805  0.6952
  735TIP3    H123620   6.107   3.481   4.335  0.0213 -1.9978 -0.1214
  735TIP3    H223621   6.100   3.406   4.466  0.5523 -0.3443  0.9009
  736TIP3   OH223622   3.875   5.962   1.341  0.0487  0.5071  0.1479
  736TIP3    H123623   3.943   5.912   1.297 -0.9558 -1.8236  1.1086
  736TIP3    H223624   3.804   5.967   1.276 -0.8956 -1.7468  0.9093
  737TIP3   OH223625   4.112   0.478  13.683  0.3561  0.2116 -0.1443
  737TIP3    H123626   4.080   0.474  13.593 -2.8612  1.5244  0.8159
  737TIP3    H223627   4.097   0.389  13.717 -0.4238  0.2686 -0.3161
  738TIP3   OH223628   2.570   1.726  15.733 -0.5656  0.4115  0.5853
  738TIP3    H123629   2.578   1.727  15.828  1.6482  0.4841  0.4404
  738TIP3    H223630   2.601   1.639  15.707 -1.4152  0.2871 -0.0723
  739TIP3   OH223631   1.531   4.170  11.484 -0.0208 -0.2551  0.7886
  739TIP3    H123632   1.623   4.159  11.462 -0.1815  0.6034 -0.4605
  739TIP3    H223633   1.505   4.249  11.437 -1.0754  0.2551  2.1771
  740TIP3   OH223634   3.813   4.792   3.301 -0.7049  0.2065  0.1321
  740TIP3    H123635   3.732   4.844   3.302 -0.5341  0.4732  0.8293
  740TIP3    H223636   3.879   4.852   3.266 -0.3944  0.6623  1.4276
  741TIP3   OH223637   1.606   6.523   2.765 -0.0712  0.0517 -0.3838
  741TIP3    H123638   1.583   6.615   2.760  0.2827  0.2748  1.5072
  741TIP3    H223639   1.627   6.508   2.857  1.0238 -1.6436 -0.8568
  742TIP3   OH223640   4.111   1.379  17.316 -0.2598 -0.4154  0.6586
  742TIP3    H123641   4.151   1.449  17.264 -0.0988  0.2797  1.6759
  742TIP3    H223642   4.023   1.368  17.279 -0.0875 -0.0639  0.1325
  743TIP3   OH223643   5.710   6.635  12.135 -0.0532 -0.3448 -0.0211
  743TIP3    H123644   5.755   6.712  12.170 -0.7539  1.0980 -2.1397
  743TIP3    H223645   5.617   6.658  12.137 -0.4046 -1.7308  0.6403
  744TIP3   OH223646   6.094   6.739   1.078  0.0601  0.6162  0.4131
  744TIP3    H123647   6.069   6.829   1.060  1.6058  1.0995  0.5561
  744TIP3    H223648   6.183   6.745   1.114  1.5375 -1.1727 -2.5998
  745TIP3   OH223649   5.974   0.955  14.021 -0.3006 -0.0381  0.4030
  745TIP3    H123650   5.932   1.030  13.981 -0.6357 -1.0521 -1.2094
  745TIP3    H223651   5.994   0.896  13.948 -0.4162 -1.6999  1.6549
  746TIP3   OH223652   1.955   0.379   0.073 -0.2049 -0.4314 -0.8332
  746TIP3    H123653   2.036   0.328   0.077  1.0918  1.4314 -1.6800
  746TIP3    H223654   1.889   0.317   0.042  0.4368 -2.4668  1.5956
  747TIP3   OH223655   4.649   6.068   4.125 -0.2133 -0.1481  0.2055
  747TIP3    H123656   4.630   6.155   4.091 -0.4361 -0.7278 -1.2254
  747TIP3    H223657   4.593   6.009   4.075  0.0338 -1.1322  1.0474
  748TIP3   OH223658   2.660   1.554   1.157 -0.0039 -0.1712 -0.4112
  748TIP3    H123659   2.733   1.560   1.218 -0.0410  1.1588 -0.4619
  748TIP3    H223660   2.595   1.500   1.203 -0.1547  1.0420  0.9047
  749TIP3   OH223661   6.640   6.234  16.656  0.3186 -0.3946  0.3557
  749TIP3    H123662   6.658   6.306  16.596 -0.0381 -1.2154 -0.7623
  749TIP3    H223663   6.632   6.276  16.742 -0.5237  0.9769 -0.3627
  750TIP3   OH223664   5.116   2.432  11.086 -0.0242  0.3959 -0.0569
  750TIP3    H123665   5.152   2.380  11.014 -0.2224 -1.0711  0.8729
  750TIP3    H223666   5.161   2.400  11.164 -1.8328 -0.0501  0.8536
  751TIP3   OH223667   6.583   0.871  12.256 -0.5317  0.0037 -0.4136
  751TIP3    H123668   6.551   0.909  12.338 -1.4366  0.4911 -0.9799
  751TIP3    H223669   6.506   0.867  12.199  0.0889 -0.2952 -1.2577
  752TIP3   OH223670   4.303   3.113   2.542  0.4083 -0.0285  0.6140
  752TIP3    H123671   4.223   3.153   2.577  0.2810  0.2725 -0.0192
  752TIP3    H223672   4.322   3.163   2.463 -0.2488 -1.7803 -0.7007
  753TIP3   OH223673   0.238   0.716  11.445 -0.1200 -0.3622 -0.1866
  753TIP3    H123674   0.223   0.775  11.519  3.1509  2.6118 -1.6454
  753TIP3    H223675   0.206   0.764  11.369  1.3881 -1.0201 -1.2758
  754TIP3   OH223676   6.414   4.369   4.938  0.6671  0.7693  0.1962
  754TIP3    H123677   6.412   4.338   4.848  0.8994  0.4162  0.3080
  754TIP3    H223678   6.324   4.362   4.969  0.4836  1.4129 -0.1782
  755TIP3   OH223679   1.530   2.612  17.348  0.2494 -0.4896 -0.4087
  755TIP3    H123680   1.578   2.650  17.275 -2.2512  0.2043 -1.8204
  755TIP3    H223681   1.526   2.681  17.414  0.3163 -0.2041 -0.7032
  756TIP3   OH223682   6.422   5.405  12.173  0.1039 -0.1894  0.2587
  756TIP3    H123683   6.399   5.316  12.200 -0.2109 -0.3736 -0.5690
  756TIP3    H223684   6.512   5.416  12.203 -0.2524 -0.3472  1.4111
  757TIP3   OH223685   6.288   2.460  13.263  0.5306 -0.0110 -0.2803
  757TIP3    H123686   6.357   2.399  13.239  0.3306  0.3337 -1.7960
  757TIP3    H223687   6.327   2.546  13.252  0.5956  0.1748  1.1977
  758TIP3   OH223688   2.860   2.622  13.387 -0.1351 -0.1926 -0.2276
  758TIP3    H123689   2.788   2.664  13.432 -0.7532 -1.9826  0.5521
  758TIP3    H223690   2.893   2.688  13.327 -0.3286  1.7398  1.6848
  759TIP3   OH223691   0.185   6.698  16.491 -0.5441 -0.2003 -0.0151
  759TIP3    H123692   0.253   6.761  16.516 -1.0795  0.7115 -0.7897
  759TIP3    H223693   0.169   6.716  16.398 -0.7286 -1.4772 -0.2469
  760TIP3   OH223694   4.355   2.358   0.118 -0.1619 -0.6216 -0.3367
  760TIP3    H123695   4.345   2.385   0.026 -0.6296  1.6869  0.3368
  760TIP3    H223696   4.421   2.418   0.153 -0.7318 -0.8121  1.0987
  761TIP3   OH223697   3.052   3.913  12.134 -0.0393  0.3228  0.6104
  761TIP3    H123698   3.085   3.987  12.187  1.9206 -0.0036 -0.0660
  761TIP3    H223699   3.078   3.934  12.045  0.5462 -1.1467  0.3985
  762TIP3   OH223700   0.725   0.880  15.985 -0.1868  0.2667 -0.3731
  762TIP3    H123701   0.780   0.803  16.002  0.7990  0.8867 -0.6694
  762TIP3    H223702   0.780   0.938  15.932 -2.0790 -0.2557 -3.1056
  763TIP3   OH223703   4.097   3.277   2.223  0.6164 -0.7616  0.4535
  763TIP3    H123704   4.111   3.302   2.132 -0.4709  0.0079  0.4782
  763TIP3    H223705   4.185   3.262   2.258  1.2489  1.5798  0.0084
  764TIP3   OH223706   3.468   3.305  14.199 -0.3719  0.2423 -0.0184
  764TIP3    H123707   3.544   3.278  14.249 -0.8923  0.0713  0.7001
  764TIP3    H223708   3.489   3.283  14.108  0.6020  0.6034  0.1128
  765TIP3   OH223709   5.562   1.757  11.282 -0.3204 -0.2360  0.1583
  765TIP3    H123710   5.493   1.696  11.255 -1.8054  0.8052  1.3841
  765TIP3    H223711   5.616   1.769  11.204 -1.5658 -1.0579 -0.8733
  766TIP3   OH223712   5.791   5.134   4.748 -0.3433 -0.7444  0.3646
  766TIP3    H123713   5.812   5.113   4.839 -2.0325 -2.2555  0.4444
  766TIP3    H223714   5.860   5.196   4.722  0.9253 -1.2700  2.2442
  767TIP3   OH223715   0.622   5.196  12.180  0.3752 -0.0816  0.0959
  767TIP3    H123716   0.698   5.228  12.130  0.8451 -1.1589  0.0825
  767TIP3    H223717   0.569   5.150  12.115 -0.5566  1.0466  0.0121
  768TIP3   OH223718   3.206   0.553   4.594 -0.1311 -0.4299  0.2061
  768TIP3    H123719   3.147   0.545   4.669  0.7924  2.2219  1.3676
  768TIP3    H223720   3.151   0.587   4.523 -0.6324 -1.1481  0.2439
  769TIP3   OH223721   6.489   4.524  10.618 -0.2627 -0.4956 -0.4705
  769TIP3    H123722   6.518   4.433  10.610  0.0518 -0.5584  1.1070
  769TIP3    H223723   6.441   4.541  10.537 -0.3355 -2.0666 -0.7843
  770TIP3   OH223724   6.329   4.215   3.303  0.4796  0.2790  0.1248
  770TIP3    H123725   6.269   4.146   3.272 -1.1241  1.1719  1.1162
  770TIP3    H223726   6.416   4.174   3.301 -0.2375 -1.2836 -0.7031
  771TIP3   OH223727   5.874   0.333  13.160 -0.1629  0.7770 -0.5096
  771TIP3    H123728   5.936   0.401  13.132 -1.0192  0.7296 -2.7007
  771TIP3    H223729   5.918   0.251  13.139 -0.0513  0.6856  0.0636
  772TIP3   OH223730   5.065   4.905   2.314 -0.1128 -0.1875 -0.3561
  772TIP3    H123731   5.137   4.961   2.341  1.3983 -2.6875  1.2100
  772TIP3    H223732   5.078   4.824   2.363 -3.5050 -1.0925 -0.7190
  773TIP3   OH223733   1.942   4.723  13.246  0.3864  0.0013  0.0715
  773TIP3    H123734   1.959   4.674  13.165 -0.2625 -1.1695  0.6031
  773TIP3    H223735   1.987   4.806  13.234 -0.1021  0.0598 -1.7017
  774TIP3   OH223736   2.948   2.253  14.724  0.2398 -0.0671  0.2912
  774TIP3    H123737   2.880   2.213  14.670  0.8582  0.3240 -0.8020
  774TIP3    H223738   2.959   2.192  14.797 -0.4334 -0.7338 -0.1481
  775TIP3   OH223739   2.452   4.625   5.895 -0.2047  0.8447  0.0660
  775TIP3    H123740   2.377   4.637   5.953 -0.1660  2.0862 -0.1066
  775TIP3    H223741   2.506   4.703   5.908  1.2003 -0.1445  0.3677
  776TIP3   OH223742   3.907   3.136  12.430  0.0499  0.2932 -0.0187
  776TIP3    H123743   3.870   3.103  12.512  1.0771 -1.0899 -0.0841
  776TIP3    H223744   3.984   3.082  12.414  2.1470  3.0060  0.0697
  777TIP3   OH223745   6.455   0.758   2.132  0.2709  0.2313 -0.5906
  777TIP3    H123746   6.413   0.675   2.110 -0.5202  0.3130  0.5047
  777TIP3    H223747   6.384   0.813   2.164  0.6720  1.6012 -1.9557
  778TIP3   OH223748   3.881   5.153  15.290 -0.2853  0.1734  0.1448
  778TIP3    H123749   3.851   5.065  15.313 -0.2763  0.0367 -0.3450
  778TIP3    H223750   3.815   5.211  15.328 -1.0570 -0.1109 -0.6981
  779TIP3   OH223751   3.564   2.369  12.823  0.3497  0.1560 -0.0582
  779TIP3    H123752   3.490   2.399  12.877  1.0972  1.2245  0.4097
  779TIP3    H223753   3.578   2.439  12.760  1.2708  0.2038  0.1789
  780TIP3   OH223754   4.344   6.413   4.566 -0.0102 -0.2546  0.8649
  780TIP3    H123755   4.289   6.489   4.585 -0.6490 -0.8421  1.4241
  780TIP3    H223756   4.320   6.388   4.477  2.1665  1.8123 -0.4128
  781TIP3   OH223757   0.967   5.726   5.579 -0.4397  0.1853 -0.1495
  781TIP3    H123758   1.008   5.667   5.641 -1.9489 -1.2849 -0.4734
  781TIP3    H223759   1.008   5.706   5.495 -0.1297  0.4426 -0.0624
  782TIP3   OH223760   4.384   0.737   2.758 -0.6175  0.4704  0.0476
  782TIP3    H123761   4.371   0.645   2.782  0.4771  0.6310  1.3706
  782TIP3    H223762   4.334   0.785   2.824 -1.2313  0.8402 -0.6753
  783TIP3   OH223763   5.598   0.634  13.693  0.3486 -0.2912 -0.4731
  783TIP3    H123764   5.527   0.569  13.695 -0.6590  0.6859  3.3183
  783TIP3    H223765   5.678   0.584  13.706 -0.3417 -0.9109  1.6220
  784TIP3   OH223766   5.667   2.606  15.616  0.5296  0.1234  0.0202
  784TIP3    H123767   5.678   2.538  15.682  0.6050  0.3984  0.2936
  784TIP3    H223768   5.651   2.559  15.534 -2.1332 -0.2351  0.6541
  785TIP3   OH223769   4.259   0.275   2.376 -0.1697 -0.4604  0.4211
  785TIP3    H123770   4.243   0.361   2.336 -2.2586 -0.2772  1.4898
  785TIP3    H223771   4.216   0.281   2.461  0.4763 -2.2707  0.9079
  786TIP3   OH223772   1.419   1.554  16.792  0.2106  0.0440 -0.0189
  786TIP3    H123773   1.358   1.492  16.752  0.4175 -1.8458  2.3830
  786TIP3    H223774   1.362   1.616  16.839  0.0854 -0.0491 -0.0467
  787TIP3   OH223775   2.479   6.495  13.045  0.2518 -0.2749 -0.4082
  787TIP3    H123776   2.531   6.446  12.982  1.6539 -0.2262  0.6687
  787TIP3    H223777   2.533   6.499  13.123 -0.6202  1.3662  0.1592
  788TIP3   OH223778   5.730   2.276   1.432 -0.1505  0.2911  0.0208
  788TIP3    H123779   5.802   2.306   1.488 -0.0143 -0.6129  0.3360
  788TIP3    H223780   5.745   2.182   1.422 -0.5715  0.3177 -0.9570
  789TIP3   OH223781   4.985   0.564  12.901 -0.4162  0.0452 -0.0186
  789TIP3    H123782   5.070   0.603  12.922 -0.2835  0.3418 -1.0556
  789TIP3    H223783   4.964   0.597  12.814 -0.6179 -1.6386 -0.6476
  790TIP3   OH223784   5.851   1.712   0.619 -0.1757  0.2179  0.5821
  790TIP3    H123785   5.786   1.769   0.660 -1.8728  0.3153 -2.0420
  790TIP3    H223786   5.867   1.644   0.685 -0.2206  2.1351  2.6657
  791TIP3   OH223787   4.504   0.048   0.552 -0.3263  0.3412  0.3520
  791TIP3    H123788   4.543   0.097   0.479 -2.0947  2.1648  0.5493
  791TIP3    H223789   4.502  -0.043   0.521  0.2394  0.8497 -1.2887
  792TIP3   OH223790   5.082   0.569   2.205 -0.0960  0.4372  0.6332
  792TIP3    H123791   5.089   0.662   2.186  0.6966  0.3268  0.3384
  792TIP3    H223792   5.170   0.535   2.189 -0.1351 -0.1930  1.6425
  793TIP3   OH223793   0.780   2.841  12.611 -0.4594  0.3396 -0.2019
  793TIP3    H123794   0.732   2.790  12.546  0.6324 -1.0981  0.0600
  793TIP3    H223795   0.823   2.910  12.561 -1.4173  0.6074 -0.6709
  794TIP3   OH223796   3.689   0.540   3.001  0.0952 -0.2351  0.2843
  794TIP3    H123797   3.745   0.563   3.075 -1.4081 -0.7465  1.6040
  794TIP3    H223798   3.687   0.620   2.948  1.7566 -0.0925  0.3863
  795TIP3   OH223799   4.468   6.371  12.147  0.3749 -0.0681 -0.2679
  795TIP3    H123800   4.375   6.361  12.165  0.7502 -0.9112  1.3603
  795TIP3    H223801   4.487   6.302  12.082  0.2785 -1.3649  1.0358
  796TIP3   OH223802   3.696   0.186  11.450  0.0438  0.1677 -0.2915
  796TIP3    H123803   3.730   0.225  11.369 -0.2086  1.1683  0.0719
  796TIP3    H223804   3.768   0.192  11.512 -0.4507  1.3770  0.1843
  797TIP3   OH223805   3.285   0.723  13.760 -1.0948 -0.2421  0.0494
  797TIP3    H123806   3.233   0.801  13.779  0.2737  0.4488  1.0678
  797TIP3    H223807   3.332   0.744  13.680  0.1609  0.4723  0.9426
  798TIP3   OH223808   5.652   0.173   3.278 -0.8293  0.0399 -0.1847
  798TIP3    H123809   5.657   0.081   3.306 -0.1516  0.3959  0.9046
  798TIP3    H223810   5.734   0.212   3.307 -0.8723  0.8801 -1.1243
  799TIP3   OH223811   2.871   2.278   6.248  0.0848  0.5165 -0.3883
  799TIP3    H123812   2.926   2.204   6.275 -1.7740 -0.9554 -0.4200
  799TIP3    H223813   2.898   2.350   6.305 -0.6286 -1.2487  2.4168
  800TIP3   OH223814   0.898   2.054  15.060  0.4941 -0.3466  0.5489
  800TIP3    H123815   0.922   2.056  15.153  0.7173  0.5529  0.4743
  800TIP3    H223816   0.981   2.062  15.014  0.2337  1.1155  0.2867
  801TIP3   OH223817   1.318   4.306   5.970 -0.2399  0.3545  0.1435
  801TIP3    H123818   1.390   4.255   6.007 -0.5520  0.3367  0.7393
  801TIP3    H223819   1.259   4.241   5.933  0.1868  0.3847 -0.6093
  802TIP3   OH223820   4.941   1.426  12.232  0.1707  0.5366 -0.2817
  802TIP3    H123821   4.972   1.494  12.172  1.8109 -0.4213 -0.5720
  802TIP3    H223822   4.972   1.454  12.318  1.4090 -0.1169 -0.4884
  803TIP3   OH223823   3.224   6.622  15.028  0.0070  0.2772 -0.4518
  803TIP3    H123824   3.149   6.586  15.075  0.0027  1.3731  0.4221
  803TIP3    H223825   3.188   6.693  14.974  0.4502  1.0408  0.2383
  804TIP3   OH223826   3.144   4.409  11.137  0.7517 -0.5797  0.3838
  804TIP3    H123827   3.160   4.493  11.095  1.1786 -1.1991 -0.7377
  804TIP3    H223828   3.194   4.413  11.219 -1.4323  1.2807  1.7331
  805TIP3   OH223829   4.737   1.823  11.967  0.2760  0.4573 -0.0030
  805TIP3    H123830   4.756   1.901  12.019  0.2899 -1.2419  2.7372
  805TIP3    H223831   4.691   1.764  12.027  0.0942 -1.5864 -1.9979
  806TIP3   OH223832   1.456   3.604   4.041 -0.5411 -0.0935 -0.1078
  806TIP3    H123833   1.426   3.652   4.118 -1.6977 -0.9395 -0.0078
  806TIP3    H223834   1.493   3.523   4.077 -2.2435 -1.0720 -0.4888
  807TIP3   OH223835   4.628   0.583  17.390  0.1387 -0.2084 -0.4786
  807TIP3    H123836   4.704   0.537  17.355  1.2747 -0.0196  1.5603
  807TIP3    H223837   4.663   0.637  17.461 -2.0479 -1.4706  1.7652
  808TIP3   OH223838   2.730   6.093   1.951 -0.1399 -0.0992  0.0746
  808TIP3    H123839   2.652   6.148   1.946 -0.3473 -0.4288 -0.5541
  808TIP3    H223840   2.695   6.006   1.971 -0.3000 -0.9229 -3.2286
  809TIP3   OH223841   0.130   0.666   4.561  0.8652  0.0956 -0.4086
  809TIP3    H123842   0.041   0.702   4.564  1.1036  0.6632  0.1582
  809TIP3    H223843   0.160   0.684   4.473 -0.2794 -1.8504 -1.2646
  810TIP3   OH223844   4.180   3.088   0.434  0.2322 -0.5111 -0.4508
  810TIP3    H123845   4.247   3.133   0.382  0.6750  0.6806  1.0650
  810TIP3    H223846   4.164   3.147   0.507 -0.9883 -1.7406  0.3070
  811TIP3   OH223847   6.253   4.229   0.974  0.3607  0.2359 -0.0161
  811TIP3    H123848   6.160   4.227   0.996  0.3819  2.4216  0.5426
  811TIP3    H223849   6.290   4.152   1.017 -1.2097 -0.8291 -0.4833
  812TIP3   OH223850   2.066   1.393  12.120 -0.6492 -0.0910 -0.5879
  812TIP3    H123851   1.997   1.375  12.056 -0.4582  0.9624 -1.1162
  812TIP3    H223852   2.138   1.427  12.068  0.2174 -0.9972 -0.0177
  813TIP3   OH223853   0.135   3.412  16.326  0.0275 -0.3066  0.3414
  813TIP3    H123854   0.154   3.504  16.346  0.2928 -0.4351  0.6988
  813TIP3    H223855   0.049   3.414  16.285 -0.6106 -0.0309  1.6206
  814TIP3   OH223856   4.899   6.016  12.684 -0.1206  0.4397 -0.3272
  814TIP3    H123857   4.928   5.978  12.601 -2.4501 -2.7717  0.1514
  814TIP3    H223858   4.823   6.070  12.659 -0.1116  0.4157 -0.4078
  815TIP3   OH223859   4.428   2.666  12.697  0.2251 -0.0419 -0.1951
  815TIP3    H123860   4.455   2.708  12.778 -3.5480  2.6041 -0.0290
  815TIP3    H223861   4.468   2.719  12.628 -0.0345  0.4203  0.0017
  816TIP3   OH223862   3.556   3.400   2.750 -0.4047 -0.1763 -0.0624
  816TIP3    H123863   3.509   3.317   2.748  0.6167 -0.7920  0.7317
  816TIP3    H223864   3.599   3.402   2.835 -0.9660  1.4915  0.2156
  817TIP3   OH223865   3.950   1.022   0.797  0.0085 -0.5621  0.2088
  817TIP3    H123866   3.986   1.110   0.805 -0.2359 -0.6068  2.3442
  817TIP3    H223867   3.918   1.017   0.706  1.0539  1.1139 -0.2969
  818TIP3   OH223868   6.532   5.554  16.401 -0.5600 -0.4717 -0.0771
  818TIP3    H123869   6.607   5.589  16.353  0.0860 -0.8687  0.6052
  818TIP3    H223870   6.523   5.464  16.369 -0.9449 -0.3339 -0.3711
  819TIP3   OH223871   6.530   1.621   4.775 -0.4646 -0.2365 -0.0744
  819TIP3    H123872   6.582   1.541   4.780 -0.0269  0.0061 -0.5860
  819TIP3    H223873   6.595   1.691   4.763 -0.7123  0.3978  1.9336
  820TIP3   OH223874   2.664   1.978  12.959 -0.5310  0.1452 -0.7499
  820TIP3    H123875   2.580   2.018  12.981 -1.4023 -1.7152 -0.5133
  820TIP3    H223876   2.675   1.908  13.024  2.5436  1.9942  0.9548
  821TIP3   OH223877   5.184   1.663   4.276 -0.6199  0.1743 -0.2923
  821TIP3    H123878   5.247   1.730   4.300 -1.0047  0.6663 -0.6425
  821TIP3    H223879   5.230   1.605   4.216 -0.9630  1.4424 -1.8369
  822TIP3   OH223880   0.702   2.756   1.106 -0.9372  0.2588 -0.2341
  822TIP3    H123881   0.766   2.740   1.174 -1.5035 -1.4396 -0.0629
  822TIP3    H223882   0.749   2.805   1.039  0.1023  0.3717  0.5647
  823TIP3   OH223883   0.806   1.435  12.768  0.8260 -0.2132 -0.0610
  823TIP3    H123884   0.753   1.358  12.789 -1.2148  1.1217  0.0336
  823TIP3    H223885   0.849   1.414  12.685  2.3208 -2.3556  1.1712
  824TIP3   OH223886   2.288   4.054   2.683  0.3234  0.1576  0.5842
  824TIP3    H123887   2.245   4.005   2.753 -0.5169  0.8020  0.5361
  824TIP3    H223888   2.319   4.134   2.724 -0.5429  0.7284  0.1442
  825TIP3   OH223889   4.808   5.922  13.862  0.2986 -0.1750 -0.4374
  825TIP3    H123890   4.815   5.828  13.873 -0.5046  0.0017  2.2639
  825TIP3    H223891   4.884   5.946  13.809  0.4650 -2.3167 -1.2599
  826TIP3   OH223892   2.277   5.115  11.884 -0.2219  0.3028  0.2870
  826TIP3    H123893   2.284   5.203  11.921  0.2665  0.3593  0.0685
  826TIP3    H223894   2.360   5.073  11.906  0.2179  0.4469 -1.0083
  827TIP3   OH223895   6.134   1.883  16.653  0.0676  0.0603  0.4601
  827TIP3    H123896   6.105   1.923  16.735  0.7724 -1.0567  1.2816
  827TIP3    H223897   6.061   1.895  16.593  0.3869  2.9565  0.4980
  828TIP3   OH223898   3.344   3.926  10.924 -0.2721 -0.3299  0.0764
  828TIP3    H123899   3.326   3.908  10.832  0.8515  0.1053 -0.2365
  828TIP3    H223900   3.348   4.021  10.930 -0.3025 -0.3557  0.5775
  829TIP3   OH223901   6.445   4.931   4.288 -0.1305  0.4272  0.0627
  829TIP3    H123902   6.510   4.999   4.267  0.4020  0.0751  0.5437
  829TIP3    H223903   6.431   4.885   4.205 -0.8916  1.4464 -0.3970
  830TIP3   OH223904   3.019   4.575   6.389 -0.0038  0.0600 -0.4200
  830TIP3    H123905   2.954   4.567   6.458 -0.2005 -1.7201 -0.7600
  830TIP3    H223906   2.972   4.616   6.316 -0.5188 -0.4109 -0.3595
  831TIP3   OH223907   4.615   4.251  13.075 -0.1134 -0.1606  0.0567
  831TIP3    H123908   4.676   4.316  13.040  1.4180 -0.4391  1.9996
  831TIP3    H223909   4.573   4.295  13.149 -0.6888 -0.6712  0.0370
  832TIP3   OH223910   1.852   2.987  10.735  0.1863  0.9270 -0.2641
  832TIP3    H123911   1.905   2.949  10.665 -0.1837  0.8728 -0.5178
  832TIP3    H223912   1.857   3.082  10.720 -0.8428  0.8765 -1.0817
  833TIP3   OH223913   2.427   0.851   4.444 -0.1587  0.4314  0.0932
  833TIP3    H123914   2.475   0.887   4.370  0.5473 -0.3941  0.1281
  833TIP3    H223915   2.346   0.902   4.448  0.4207  1.4093 -0.3710
  834TIP3   OH223916   5.901   1.625  16.167  0.3662  0.0493 -0.3873
  834TIP3    H123917   5.987   1.603  16.201  0.1437 -0.6564 -0.2592
  834TIP3    H223918   5.896   1.721  16.173  0.3375 -0.0356  1.5498
  835TIP3   OH223919   1.678   3.094  14.760 -0.4226 -0.0080 -0.1164
  835TIP3    H123920   1.727   3.160  14.809  0.3879  0.6489 -1.7129
  835TIP3    H223921   1.642   3.142  14.685 -1.7260 -0.9361 -0.1188
  836TIP3   OH223922   5.913   0.400   0.564  0.1495  1.0874  0.0155
  836TIP3    H123923   5.864   0.322   0.540 -0.3736  1.3257  0.2971
  836TIP3    H223924   5.847   0.461   0.598  0.7389  1.1007  1.1749
  837TIP3   OH223925   2.599   2.699  16.342 -0.0058 -0.6235 -0.0037
  837TIP3    H123926   2.638   2.654  16.418  1.6476 -1.0235 -1.0249
  837TIP3    H223927   2.631   2.789  16.349  1.6527 -1.0713 -1.1187
  838TIP3   OH223928   0.713   3.312  10.656 -0.0926  0.5630 -0.2118
  838TIP3    H123929   0.684   3.400  10.680  0.4027  0.6817 -0.0278
  838TIP3    H223930   0.792   3.297  10.709  0.8214  0.6800 -1.4837
  839TIP3   OH223931   3.971   1.558  14.382  0.3458  0.0583 -0.1677
  839TIP3    H123932   3.911   1.554  14.308 -0.1518 -0.2978  0.2456
  839TIP3    H223933   4.010   1.470  14.385  1.5789  0.5419 -0.9802
  840TIP3   OH223934   0.889   1.342  12.512  0.9552  0.1656  0.1554
  840TIP3    H123935   0.921   1.372  12.427  1.3367 -0.5390  0.0406
  840TIP3    H223936   0.862   1.251  12.496 -2.7456  1.1773 -0.1854
  841TIP3   OH223937   3.823   4.887   4.978  0.1601 -0.0473 -0.2804
  841TIP3    H123938   3.777   4.955   5.027  0.6924  0.5673 -0.6142
  841TIP3    H223939   3.759   4.817   4.969  0.4202 -0.7449  2.4007
  842TIP3   OH223940   6.009   5.798  15.532 -0.7927  0.0394 -0.2601
  842TIP3    H123941   5.977   5.853  15.604 -1.1672 -1.4767  0.7831
  842TIP3    H223942   5.930   5.774  15.485 -0.7508 -0.4715 -0.0699
  843TIP3   OH223943   1.731   3.935  17.380  0.8817  0.4000  0.3450
  843TIP3    H123944   1.648   3.982  17.386  0.9238  0.3051  2.8881
  843TIP3    H223945   1.708   3.843  17.395  1.3333  0.2281  0.0101
  844TIP3   OH223946   5.027   3.644  16.346  0.3571 -0.3123 -0.0716
  844TIP3    H123947   5.084   3.656  16.270  1.0092 -0.3741  0.3887
  844TIP3    H223948   5.087   3.612  16.415 -0.3167 -0.7805  0.3024
  845TIP3   OH223949   2.393   0.503  11.399 -0.3289 -0.5047  0.0225
  845TIP3    H123950   2.438   0.457  11.328 -0.7394 -1.5509  0.4246
  845TIP3    H223951   2.393   0.595  11.372 -1.1184 -0.9612 -1.6995
  846TIP3   OH223952   1.591   1.344  16.989  0.0153  0.8346 -0.1133
  846TIP3    H123953   1.637   1.366  16.908 -0.6224  0.2964 -0.6301
  846TIP3    H223954   1.524   1.412  16.999 -0.4112  0.4689 -0.4537
  847TIP3   OH223955   4.167   5.252  13.684  0.4746  0.0376 -0.1403
  847TIP3    H123956   4.124   5.323  13.732  1.8681 -0.1187  1.4334
  847TIP3    H223957   4.101   5.182  13.680 -0.2266  0.6725  0.1024
  848TIP3   OH223958   4.811   4.620  14.445  0.3507 -0.0850 -0.2454
  848TIP3    H123959   4.832   4.580  14.529 -1.2720 -0.3030  0.0784
  848TIP3    H223960   4.721   4.595  14.427  0.6209  0.0346 -2.0203
  849TIP3   OH223961   5.294   2.505   4.143 -0.1899 -0.2252 -0.2030
  849TIP3    H123962   5.385   2.494   4.171  0.1551  1.4979 -0.5392
  849TIP3    H223963   5.244   2.513   4.225  0.1203 -0.1068 -0.0245
  850TIP3   OH223964   5.240   3.964   3.660 -0.3262  0.2199  0.4466
  850TIP3    H123965   5.162   3.918   3.630  1.0416 -1.6605 -0.4184
  850TIP3    H223966   5.239   4.047   3.612 -2.0109  0.4614  0.8329
  851TIP3   OH223967   2.324   5.373   0.639 -0.6940  0.1581 -0.0115
  851TIP3    H123968   2.352   5.448   0.690 -0.0669 -0.3040  0.3353
  851TIP3    H223969   2.359   5.297   0.685 -0.5805 -0.3010 -0.8193
  852TIP3   OH223970   2.168   1.292  14.221 -0.2237  0.9457 -0.0887
  852TIP3    H123971   2.223   1.237  14.276 -0.6197 -1.5868 -2.0221
  852TIP3    H223972   2.201   1.380  14.234  0.5464  0.3251  3.0935
  853TIP3   OH223973   0.539   3.339  12.701  0.6065 -0.2473  0.2077
  853TIP3    H123974   0.630   3.313  12.684  0.4841 -1.9037  1.7423
  853TIP3    H223975   0.543   3.390  12.782  0.4931  2.4477 -1.3731
  854TIP3   OH223976   1.970   6.195  11.982 -0.2368 -0.1069  0.1263
  854TIP3    H123977   1.920   6.275  11.996 -3.1737 -2.0960  2.2555
  854TIP3    H223978   1.926   6.151  11.910  0.5372 -0.3932 -0.1782
  855TIP3   OH223979   4.266   6.713  15.406 -0.0778 -0.2188 -0.2313
  855TIP3    H123980   4.353   6.713  15.366 -0.1370 -0.3393 -0.3610
  855TIP3    H223981   4.233   6.624  15.393 -0.1416 -0.2296 -0.0080
  856TIP3   OH223982   5.112   1.738  15.606  0.1626  0.7266  0.2744
  856TIP3    H123983   5.138   1.730  15.515 -3.1289  1.2120 -0.8466
  856TIP3    H223984   5.184   1.699  15.655  2.5346  1.4156 -2.4109
  857TIP3   OH223985   4.875   5.044  17.228  0.0756 -0.2692 -0.0012
  857TIP3    H123986   4.847   4.978  17.164 -0.3981 -0.2657  0.1920
  857TIP3    H223987   4.856   5.004  17.313  0.0487  0.0011  0.1223
  858TIP3   OH223988   3.533   4.788   2.042 -0.2401 -1.0126 -0.0702
  858TIP3    H123989   3.508   4.874   2.075 -2.7205 -0.7944 -2.2040
  858TIP3    H223990   3.628   4.793   2.033  0.0391  0.4197  2.5278
  859TIP3   OH223991   3.874   1.820  11.827  0.1096  0.2765 -0.3263
  859TIP3    H123992   3.867   1.772  11.910  0.3298  0.4417 -0.2087
  859TIP3    H223993   3.870   1.912  11.853 -1.0537  0.3187 -0.6237
  860TIP3   OH223994   4.250   5.279  11.756  0.0928 -0.3254  0.7522
  860TIP3    H123995   4.179   5.263  11.819  0.1249 -2.4651  0.3147
  860TIP3    H223996   4.330   5.276  11.809  0.0230 -0.4625  0.8486
  861TIP3   OH223997   4.551   3.379   5.174 -0.0611  0.3218  0.6443
  861TIP3    H123998   4.472   3.402   5.126  0.6907 -0.3054 -0.9846
  861TIP3    H223999   4.520   3.350   5.260 -1.5722  0.2576  0.1003
  862TIP3   OH224000   3.375   0.870  11.139  0.0616 -0.4194  0.4714
  862TIP3    H124001   3.456   0.919  11.150 -0.1616 -0.4850  3.0661
  862TIP3    H224002   3.397   0.781  11.166 -1.1617 -0.1048  2.7100
  863TIP3   OH224003   1.688   0.913   4.084  0.2332  0.5945 -0.1105
  863TIP3    H124004   1.687   0.948   4.173  2.6517 -0.0651  0.2390
  863TIP3    H224005   1.732   0.981   4.032 -1.9675  1.3915 -1.0733
  864TIP3   OH224006   5.620   0.532   2.155 -0.1215  0.6610 -0.2460
  864TIP3    H124007   5.648   0.622   2.170  2.6939 -0.3455  1.3770
  864TIP3    H224008   5.666   0.505   2.075  0.4798  0.1588  0.2592
  865TIP3   OH224009   3.610   6.071  16.665 -0.0803  0.2677 -0.4644
  865TIP3    H124010   3.676   6.139  16.675  1.3153 -1.1325  0.3150
  865TIP3    H224011   3.526   6.117  16.673  0.7398  1.4927  3.8178
  866TIP3   OH224012   5.622   6.435   4.465  0.3545  0.0790  0.2573
  866TIP3    H124013   5.699   6.480   4.430  0.2794 -0.1578 -0.2238
  866TIP3    H224014   5.550   6.497   4.452  0.1355 -0.4030 -0.9817
  867TIP3   OH224015   4.693   3.842   6.171  0.6889 -0.1722 -0.3985
  867TIP3    H124016   4.599   3.862   6.179  0.4941 -1.4969  1.2199
  867TIP3    H224017   4.733   3.883   6.247  1.5519  0.9411 -1.4315
  868TIP3   OH224018   2.143   3.072  17.225  0.2985  0.4743  0.6020
  868TIP3    H124019   2.222   3.051  17.175  1.3198  1.9786  1.5104
  868TIP3    H224020   2.074   3.018  17.185  1.8913 -1.3694  0.1950
  869TIP3   OH224021   5.066   3.695   1.768 -0.4547  0.1027 -0.1660
  869TIP3    H124022   5.114   3.633   1.823 -3.1562 -1.1505  0.9651
  869TIP3    H224023   5.092   3.781   1.800  0.9280 -0.5029  0.4238
  870TIP3   OH224024   2.969   4.026  13.582 -0.6486 -0.4726 -0.2664
  870TIP3    H124025   2.935   3.952  13.532  0.1779  1.0271 -3.2597
  870TIP3    H224026   2.963   4.100  13.523  3.7167  0.7619  0.4806
  871TIP3   OH224027   2.232   4.239   3.867 -0.1486 -0.3633  0.0465
  871TIP3    H124028   2.286   4.246   3.788 -0.2099 -4.0433 -0.4594
  871TIP3    H224029   2.146   4.210   3.836 -0.2423 -1.6673  1.3985
  872TIP3   OH224030   5.211   4.425  15.467  0.2044  0.4089 -0.6157
  872TIP3    H124031   5.193   4.434  15.561  0.9646  2.7449 -0.6238
  872TIP3    H224032   5.283   4.363  15.463 -0.2684 -0.2253  0.2926
  873TIP3   OH224033   5.009   3.788   3.617 -0.4045  0.2657 -0.0595
  873TIP3    H124034   4.967   3.756   3.537  1.0228  1.4873 -1.3480
  873TIP3    H224035   5.040   3.708   3.661 -0.7080 -0.3885 -0.9931
  874TIP3   OH224036   0.431   2.303  12.831 -0.5727  0.1229  0.6766
  874TIP3    H124037   0.336   2.292  12.826 -0.3664 -1.1904 -1.4299
  874TIP3    H224038   0.467   2.229  12.782  1.6188 -0.2782  2.7120
  875TIP3   OH224039   5.358   3.532   0.028 -0.6231 -0.1986 -0.1535
  875TIP3    H124040   5.440   3.580   0.039 -0.4225 -0.6009  0.0939
  875TIP3    H224041   5.379   3.461  -0.033 -1.4024  1.2160 -2.2151
  876TIP3   OH224042   3.389   3.148   0.126 -0.5562  0.1910  0.1475
  876TIP3    H124043   3.436   3.127   0.207  2.4991  3.0846 -0.6335
  876TIP3    H224044   3.435   3.098   0.058  0.7902  2.0810 -0.4462
  877TIP3   OH224045   3.296   1.940  14.141  0.3924  0.4299 -0.7236
  877TIP3    H124046   3.354   1.962  14.069  0.0414 -0.4979 -1.3045
  877TIP3    H224047   3.355   1.913  14.212  0.7215  0.8729 -0.8299
  878TIP3   OH224048   1.461   3.916   1.455  0.4103 -0.2247  0.2130
  878TIP3    H124049   1.392   3.862   1.493  2.9030 -4.3621 -0.4690
  878TIP3    H224050   1.533   3.911   1.519  1.3550  0.7925 -0.7298
  879TIP3   OH224051   0.189   6.356   2.684  0.1335  0.0477 -0.1852
  879TIP3    H124052   0.151   6.279   2.725  0.0900  0.2049  0.0669
  879TIP3    H224053   0.282   6.335   2.675  0.3689  0.4743  1.0677
  880TIP3   OH224054   6.407   6.142  15.024  0.6435  0.0413 -0.2889
  880TIP3    H124055   6.411   6.162  15.117  1.3453 -0.4325 -0.2071
  880TIP3    H224056   6.480   6.191  14.986  0.9203 -0.4730 -0.4411
  881TIP3   OH224057   2.775   6.533  11.147 -0.4427  0.5841 -0.0875
  881TIP3    H124058   2.852   6.561  11.198  1.4059  0.7253 -2.7532
  881TIP3    H224059   2.734   6.466  11.202  2.5896 -0.7521  0.7840
  882TIP3   OH224060   2.931   6.749   0.810  0.0984  0.0051 -0.3612
  882TIP3    H124061   2.919   6.834   0.768  0.9798  0.0104 -0.6218
  882TIP3    H224062   2.960   6.691   0.740 -0.7402 -0.5785 -0.2344
  883TIP3   OH224063   4.286   3.673  13.789  0.2621 -0.5563 -0.3713
  883TIP3    H124064   4.234   3.595  13.774  1.1338 -1.0694 -0.7961
  883TIP3    H224065   4.301   3.674  13.884 -0.9370 -0.1109 -0.1662
  884TIP3   OH224066   0.568   1.594   4.998  0.6464  0.0334  0.3881
  884TIP3    H124067   0.635   1.526   4.988  1.0288  0.5033 -0.3617
  884TIP3    H224068   0.589   1.658   4.929 -0.8914 -0.0688 -0.2158
  885TIP3   OH224069   3.017   0.099   5.438  0.5577  0.0174  0.3172
  885TIP3    H124070   2.955   0.121   5.509 -0.5298 -0.5789 -0.4133
  885TIP3    H224071   2.964   0.103   5.359  1.6204  0.0626 -0.4043
  886TIP3   OH224072   4.519   0.481   1.160 -0.1490 -0.2657 -0.1612
  886TIP3    H124073   4.594   0.430   1.189 -0.3383 -1.3316 -1.4303
  886TIP3    H224074   4.443   0.425   1.179 -0.4016 -0.2637 -1.1252
  887TIP3   OH224075   2.366   6.349   2.977  0.4849  0.2375  0.0844
  887TIP3    H124076   2.324   6.396   3.049  0.5738  0.2989  0.0969
  887TIP3    H224077   2.328   6.386   2.898 -1.2437 -1.3368  0.1179
  888TIP3   OH224078   1.154   6.310  10.990  0.3183 -0.2115  0.0333
  888TIP3    H124079   1.063   6.293  10.965  0.1481  1.3832 -0.5508
  888TIP3    H224080   1.193   6.349  10.913  1.0598  0.5675  0.7816
  889TIP3   OH224081   5.717   6.033  11.747  0.4740  0.1391 -0.2189
  889TIP3    H124082   5.764   5.993  11.820 -1.5545 -0.2074  0.9967
  889TIP3    H224083   5.752   5.990  11.669  0.7326 -1.5854  0.7868
  890TIP3   OH224084   2.113   3.397  13.716  0.3220  1.1326  0.0871
  890TIP3    H124085   2.058   3.475  13.724 -0.9248  0.2569  0.3181
  890TIP3    H224086   2.166   3.397  13.795  0.7006  2.0091 -0.1538
  891TIP3   OH224087   5.473   2.296   0.477  0.4207  0.6549 -0.5970
  891TIP3    H124088   5.547   2.352   0.453  0.6854  1.1462  1.2375
  891TIP3    H224089   5.416   2.298   0.400  2.4363  0.0077 -2.1932
  892TIP3   OH224090   0.501   2.026   0.559  0.6393  0.0762 -0.3440
  892TIP3    H124091   0.477   1.988   0.644 -1.5194 -0.1797 -0.9956
  892TIP3    H224092   0.591   1.997   0.544  1.3277  0.6626  2.1246
  893TIP3   OH224093   0.982   5.065  15.244  0.0384 -0.0116  0.2361
  893TIP3    H124094   0.954   5.051  15.154 -0.2828  0.0830  0.3210
  893TIP3    H224095   1.067   5.109  15.236  0.1311 -0.2377 -0.0195
  894TIP3   OH224096   5.648   0.809   0.716 -0.3732 -0.1174  0.5393
  894TIP3    H124097   5.634   0.813   0.810  0.1743  0.5774  0.5985
  894TIP3    H224098   5.560   0.803   0.679 -0.5384 -2.0554  1.1461
  895TIP3   OH224099   3.904   4.784   0.081 -0.3023 -0.2309 -0.0124
  895TIP3    H124100   3.842   4.772   0.008 -0.2996 -1.1078  0.1100
  895TIP3    H224101   3.988   4.797   0.038 -0.6827  1.9760 -0.2033
  896TIP3   OH224102   4.885   6.250  16.383 -0.2394  0.3429 -0.2930
  896TIP3    H124103   4.952   6.214  16.441 -0.2251  2.3145  1.0252
  896TIP3    H224104   4.841   6.173  16.347 -0.2021 -1.0217  2.3062
  897TIP3   OH224105   2.326   6.324   5.929 -0.2937  0.2395 -0.1656
  897TIP3    H124106   2.280   6.378   5.993  0.0420  2.9770 -2.0639
  897TIP3    H224107   2.406   6.297   5.974 -0.5759  1.1637  0.9357
  898TIP3   OH224108   1.705   5.257  11.995 -0.2211  0.4244 -0.1309
  898TIP3    H124109   1.755   5.180  11.967 -0.3233  0.4834 -0.4852
  898TIP3    H224110   1.753   5.291  12.070 -0.6245 -0.4626  0.5431
  899TIP3   OH224111   2.999   3.234   1.583  0.7783 -0.5290 -0.0186
  899TIP3    H124112   3.008   3.139   1.589 -0.5879 -0.6914 -0.2045
  899TIP3    H224113   2.975   3.250   1.491 -0.0195 -0.1029  0.2583
  900TIP3   OH224114   4.657   3.835  15.792  0.0324  0.7873 -0.5173
  900TIP3    H124115   4.680   3.762  15.735  2.2090  0.9747  0.0468
  900TIP3    H224116   4.665   3.800  15.880 -1.2682  1.0778 -0.2680
  901TIP3   OH224117   0.614   1.169   1.055  0.4976  0.2196 -0.6290
  901TIP3    H124118   0.667   1.155   1.134  0.1635 -1.0544 -0.6080
  901TIP3    H224119   0.532   1.207   1.088  0.5035  0.0436 -0.4099
  902TIP3   OH224120   4.296   0.609   0.220 -0.0192 -0.3470  0.2043
  902TIP3    H124121   4.347   0.543   0.266  1.4841  1.1905  0.8393
  902TIP3    H224122   4.316   0.691   0.265 -1.5338  0.6218 -0.7846
  903TIP3   OH224123   5.752   3.588  12.453 -0.1622 -0.0328  0.3991
  903TIP3    H124124   5.744   3.671  12.500  0.0791  0.0515  0.2894
  903TIP3    H224125   5.804   3.608  12.376 -1.2265 -0.0025 -0.3288
  904TIP3   OH224126   2.623   6.149   2.631  0.4933  0.3293  0.2680
  904TIP3    H124127   2.682   6.224   2.632  0.2561  0.5210  0.0318
  904TIP3    H224128   2.551   6.176   2.689  1.3483 -0.4927  1.7961
  905TIP3   OH224129   4.963   1.280   4.360 -0.3421  0.0394  0.0711
  905TIP3    H124130   5.013   1.223   4.302 -0.5224  0.6394 -0.7007
  905TIP3    H224131   5.023   1.350   4.384 -0.4637  0.1480  0.0652
  906TIP3   OH224132   4.573   3.966  16.074  0.5939  0.1474 -0.1829
  906TIP3    H124133   4.554   4.060  16.071  1.7832  0.5017  1.6875
  906TIP3    H224134   4.648   3.959  16.133  0.0562 -2.0627  0.3183
  907TIP3   OH224135   1.394   1.038  11.312  0.3306  0.1316 -0.0737
  907TIP3    H124136   1.484   1.005  11.304  0.8628  1.5332 -0.3260
  907TIP3    H224137   1.340   0.973  11.267  1.4308  0.0860 -1.3929
  908TIP3   OH224138   6.385   2.558   4.974  0.2858 -0.0365 -0.1029
  908TIP3    H124139   6.409   2.559   5.066 -3.4016  1.5332  1.0483
  908TIP3    H224140   6.318   2.627   4.966 -0.5742 -1.0576 -3.6253
  909TIP3   OH224141   1.251   5.285   3.645  0.1679  0.2851 -0.0517
  909TIP3    H124142   1.233   5.196   3.675  2.2893  0.1239  0.8943
  909TIP3    H224143   1.198   5.340   3.703  1.6066 -0.2237  1.8550
  910TIP3   OH224144   1.837   5.283  14.904  0.6402  0.1585  0.1888
  910TIP3    H124145   1.872   5.200  14.873 -0.8523 -0.5959  0.4159
  910TIP3    H224146   1.815   5.331  14.824 -1.6840 -1.1170 -0.0421
  911TIP3   OH224147   3.718   5.603   3.497  0.0733  0.0942 -0.2518
  911TIP3    H124148   3.754   5.649   3.573 -0.1723  0.2839 -0.2487
  911TIP3    H224149   3.689   5.674   3.438 -1.2623 -0.0547  0.2022
  912TIP3   OH224150   2.495   3.949  11.895 -0.1636  0.5999  0.5676
  912TIP3    H124151   2.568   3.970  11.953 -0.8422  0.6724  1.4032
  912TIP3    H224152   2.443   4.029  11.891  0.2305  0.8146 -0.6901
  913TIP3   OH224153   3.365   0.499   4.100  0.0612  0.4447  0.3494
  913TIP3    H124154   3.456   0.492   4.072  0.7867  1.3844  2.3079
  913TIP3    H224155   3.343   0.591   4.088 -0.8079  0.1417 -0.5343
  914TIP3   OH224156   3.565   6.239  15.226  0.0322 -0.0065 -0.5311
  914TIP3    H124157   3.647   6.246  15.177  0.3699 -0.3450 -0.0254
  914TIP3    H224158   3.563   6.148  15.255 -1.6496 -0.6924 -2.4931
  915TIP3   OH224159   2.156   1.567  14.155  0.1425 -0.9796  0.0824
  915TIP3    H124160   2.122   1.568  14.066 -0.6849  0.3473  0.3951
  915TIP3    H224161   2.088   1.607  14.208  1.1741 -0.5076  1.1080
  916TIP3   OH224162   5.295   3.521  16.460 -0.2348 -0.1324 -0.2402
  916TIP3    H124163   5.315   3.572  16.538  0.2234 -0.1174 -0.3622
  916TIP3    H224164   5.351   3.558  16.392  0.3913 -1.0491 -0.2406
  917TIP3   OH224165   3.707   6.226  16.977  0.4425 -0.1874 -0.3301
  917TIP3    H124166   3.779   6.203  17.035  0.8022 -1.1867 -1.1355
  917TIP3    H224167   3.633   6.174  17.008  0.0092  0.9034  0.5509
  918TIP3   OH224168   3.021   0.760  14.366 -0.6853 -0.0887 -0.5288
  918TIP3    H124169   3.037   0.666  14.371  1.0078  0.1125 -1.2674
  918TIP3    H224170   2.956   0.777  14.434  1.0496 -1.4003  1.6319
  919TIP3   OH224171   6.239   4.820  14.833 -0.0134  0.5367 -0.2544
  919TIP3    H124172   6.265   4.909  14.811  1.7249  0.3526  0.8677
  919TIP3    H224173   6.252   4.814  14.928  1.1860 -1.2727 -0.4780
  920TIP3   OH224174   0.107   1.138   0.648  0.3884 -0.5895  0.3733
  920TIP3    H124175   0.034   1.198   0.633  0.7433 -0.2576 -0.0501
  920TIP3    H224176   0.069   1.051   0.639 -0.0788 -0.4284  0.7466
  921TIP3   OH224177   3.791   1.859   5.437  0.2445 -0.2515  0.3899
  921TIP3    H124178   3.837   1.782   5.470 -0.3970 -0.5415  0.6150
  921TIP3    H224179   3.699   1.844   5.460 -0.0231  0.1423 -0.4004
  922TIP3   OH224180   2.393   6.674  12.766 -0.2538  0.0332  0.1557
  922TIP3    H124181   2.334   6.686  12.840  0.0287 -1.4696  0.6520
  922TIP3    H224182   2.480   6.698  12.800 -0.2375  0.0992  0.0703
  923TIP3   OH224183   0.361   0.421  12.054  0.3458  0.5920  0.8684
  923TIP3    H124184   0.370   0.418  12.150 -1.3338  0.1768  1.0364
  923TIP3    H224185   0.313   0.503  12.037 -0.6416 -0.0445  0.5166
  924TIP3   OH224186   1.205   6.271  12.595 -0.7883  0.0024  0.1630
  924TIP3    H124187   1.287   6.288  12.549 -0.4359 -0.1975  0.7002
  924TIP3    H224188   1.193   6.177  12.588  0.1118 -0.2913  1.8068
  925TIP3   OH224189   6.217   5.420   3.588 -0.4063  0.1872  0.6746
  925TIP3    H124190   6.297   5.428   3.537 -0.3043 -2.9502  0.1488
  925TIP3    H224191   6.247   5.388   3.673 -0.8880  2.2478  1.7026
  926TIP3   OH224192   0.452   3.906   2.266 -0.7320  0.1618 -0.5574
  926TIP3    H124193   0.441   3.821   2.222  0.6241  0.9771 -2.6369
  926TIP3    H224194   0.545   3.909   2.289 -1.0785  0.4799  0.9135
  927TIP3   OH224195   6.700   2.562   1.275 -0.2487  0.5248  0.1742
  927TIP3    H124196   6.722   2.654   1.286 -1.0181  1.1136 -2.3771
  927TIP3    H224197   6.784   2.517   1.277  0.0985  1.2053  1.8825
  928TIP3   OH224198   5.048   1.191   3.597 -0.0452  0.1662 -0.1674
  928TIP3    H124199   5.052   1.161   3.688  1.3637 -2.4987 -0.9890
  928TIP3    H224200   4.955   1.207   3.581 -0.6694 -1.8183  1.0784
  929TIP3   OH224201   2.493   2.962   1.094  0.4071 -0.2720 -0.0042
  929TIP3    H124202   2.527   2.876   1.119 -0.1934 -0.3177  0.6993
  929TIP3    H224203   2.458   2.998   1.175  0.1246  0.3917 -0.4131
  930TIP3   OH224204   3.895   3.024  15.325  0.2798 -0.1832 -0.0697
  930TIP3    H124205   3.953   3.035  15.400  1.1972 -3.5170 -0.1264
  930TIP3    H224206   3.929   3.084  15.259  2.1609 -0.2707  0.7472
  931TIP3   OH224207   3.479   5.121  14.902  0.5863  0.5731  0.4636
  931TIP3    H124208   3.508   5.076  14.824  0.2221 -0.3384  0.8366
  931TIP3    H224209   3.558   5.156  14.942  1.5246 -3.0308  2.2138
  932TIP3   OH224210   3.927   0.558   2.308 -0.1725 -0.4292 -0.1617
  932TIP3    H124211   3.910   0.465   2.294  0.1008 -0.8250  1.8255
  932TIP3    H224212   3.842   0.596   2.329 -0.2173 -0.2898 -0.5734
  933TIP3   OH224213   0.698   1.906  13.159 -0.1568 -0.5843  0.1199
  933TIP3    H124214   0.779   1.856  13.173  1.6466  2.0223 -0.2639
  933TIP3    H224215   0.694   1.920  13.065  0.5015  1.5521  0.3401
  934TIP3   OH224216   1.270   0.083  15.654  0.0282 -1.0698  0.0668
  934TIP3    H124217   1.199   0.029  15.687  0.0537 -0.7350  0.6884
  934TIP3    H224218   1.280   0.057  15.562 -2.0818  0.1114 -0.5626
  935TIP3   OH224219   4.995   2.035   5.538  0.7036 -0.4243  0.1101
  935TIP3    H124220   4.989   1.969   5.469 -0.3699  0.5572 -0.7870
  935TIP3    H224221   4.948   2.110   5.503  1.2989  0.5840  1.3836
  936TIP3   OH224222   3.070   6.291  12.787  0.6070 -0.5530  0.7359
  936TIP3    H124223   3.058   6.205  12.827  0.8364 -0.0095  2.0177
  936TIP3    H224224   3.139   6.278  12.722  0.5633 -1.3476  0.8336
  937TIP3   OH224225   6.726   1.259  12.903  0.2594 -0.5016  0.1891
  937TIP3    H124226   6.770   1.180  12.871  0.7269 -0.3050  0.3293
  937TIP3    H224227   6.784   1.330  12.876 -1.4076  0.0514 -2.2420
  938TIP3   OH224228   1.808   4.660  17.264  0.2347 -0.2069 -0.1557
  938TIP3    H124229   1.750   4.727  17.228  0.6223 -0.3558 -1.1121
  938TIP3    H224230   1.845   4.700  17.343 -0.0304  0.4597 -0.3587
  939TIP3   OH224231   6.616   2.825   3.248  0.3782 -0.5074 -0.0184
  939TIP3    H124232   6.643   2.746   3.201  0.1297 -0.9908  0.6360
  939TIP3    H224233   6.693   2.882   3.247  1.3904 -1.7473  1.5677
  940TIP3   OH224234   1.100   6.205   5.826 -1.1488  0.0095 -0.3083
  940TIP3    H124235   1.108   6.281   5.768  0.8417 -0.7716 -1.1302
  940TIP3    H224236   1.039   6.147   5.780  0.3539 -0.5730 -1.6770
  941TIP3   OH224237   0.560   1.722   1.973 -0.0390 -0.1871  0.5160
  941TIP3    H124238   0.467   1.727   1.952  0.2558 -1.7769 -1.5003
  941TIP3    H224239   0.579   1.628   1.981  1.3962  0.0951  0.8057
  942TIP3   OH224240   5.957   2.487   5.554 -0.3171 -0.2714 -0.1136
  942TIP3    H124241   6.035   2.540   5.540  0.2163 -1.1101 -0.4241
  942TIP3    H224242   5.988   2.396   5.545 -1.1508 -0.6442  0.6252
  943TIP3   OH224243   0.332   6.448   3.396  0.3206  0.1099  0.6950
  943TIP3    H124244   0.341   6.521   3.335  0.2772 -0.7309 -0.3530
  943TIP3    H224245   0.345   6.487   3.482  2.3287  1.0162  0.0427
  944TIP3   OH224246   1.651   5.975   5.117  0.1534  0.1972  0.5493
  944TIP3    H124247   1.677   6.036   5.186  0.7224  1.8418 -1.0479
  944TIP3    H224248   1.578   6.018   5.073 -0.6864 -1.1712  0.5638
  945TIP3   OH224249   6.481   1.561   2.510 -0.4630  0.2193 -0.0376
  945TIP3    H124250   6.438   1.624   2.567 -0.1169  0.6800 -0.2807
  945TIP3    H224251   6.423   1.485   2.510 -0.4115  0.1614  1.0155
  946TIP3   OH224252   3.267   3.207  14.327 -0.0148 -0.6689 -0.1238
  946TIP3    H124253   3.341   3.266  14.311 -0.3752  0.9164  3.0707
  946TIP3    H224254   3.303   3.120  14.314  2.1317  0.0935  0.2320
  947TIP3   OH224255   3.173   2.846  11.716 -0.0360  0.0762  0.0640
  947TIP3    H124256   3.147   2.756  11.698 -0.6583 -0.0580  1.4904
  947TIP3    H224257   3.264   2.840  11.745  0.2935  0.0534 -0.9593
  948TIP3   OH224258   2.381   3.921   1.617  0.4927  0.0528  0.5111
  948TIP3    H124259   2.381   3.906   1.712 -0.5366  0.2282  0.5442
  948TIP3    H224260   2.473   3.939   1.597  0.8939 -0.9556  1.3118
  949TIP3   OH224261   6.742   0.107  14.319  0.9227  0.3573  0.3905
  949TIP3    H124262   6.738   0.167  14.393  0.1886  0.2855  0.4183
  949TIP3    H224263   6.760   0.022  14.358 -0.0408  0.2165  0.5569
  950TIP3   OH224264   5.328   5.998   2.780  0.6645 -0.0163  0.3181
  950TIP3    H124265   5.292   6.051   2.851 -0.4175 -0.3407  0.0324
  950TIP3    H224266   5.394   6.054   2.739 -0.8572  1.3724 -0.3604
  951TIP3   OH224267   4.078   4.933  14.649 -0.3576  0.8624  0.6425
  951TIP3    H124268   4.052   4.842  14.663  1.5606  0.0812 -0.5831
  951TIP3    H224269   4.110   4.962  14.735 -0.9143  0.3836  1.0258
  952TIP3   OH224270   6.385   3.654   4.038 -0.2319 -0.1132 -0.4213
  952TIP3    H124271   6.412   3.581   4.093  2.6840 -0.0198 -1.5324
  952TIP3    H224272   6.444   3.726   4.063 -2.9647  1.9248  0.6148
  953TIP3   OH224273   6.737   2.857  13.377 -0.9542 -0.1247 -0.3695
  953TIP3    H124274   6.766   2.830  13.464 -1.0540  2.0112  0.3740
  953TIP3    H224275   6.754   2.781  13.321 -2.5284 -2.2279  1.8066
  954TIP3   OH224276   0.706   2.034   1.651  0.1030 -0.3787  0.1726
  954TIP3    H124277   0.620   2.060   1.683  0.4106  0.5626  0.2705
  954TIP3    H224278   0.759   2.028   1.730  0.7679  1.5731 -0.0593
  955TIP3   OH224279   6.255   6.072  15.548 -0.1360 -0.2677  0.2976
  955TIP3    H124280   6.181   6.126  15.519 -0.7304 -1.1936  0.0507
  955TIP3    H224281   6.258   5.999  15.486 -0.5708 -1.5615  1.7473
  956TIP3   OH224282   1.735   3.178  12.894  0.2050  0.0533  0.7492
  956TIP3    H124283   1.787   3.099  12.903 -0.8731 -0.5322  2.3082
  956TIP3    H224284   1.767   3.236  12.964 -1.6016 -0.5759  2.1758
  957TIP3   OH224285   3.122   5.932  13.269 -0.4557  0.1724  0.2308
  957TIP3    H124286   3.038   5.967  13.237 -0.8600 -0.4997  0.5230
  957TIP3    H224287   3.099   5.848  13.308  0.5127 -0.4892 -0.5691
  958TIP3   OH224288   2.649   6.557   6.210 -0.1545 -0.4175  0.8589
  958TIP3    H124289   2.743   6.570   6.194 -0.5290 -0.1773 -1.6228
  958TIP3    H224290   2.615   6.645   6.223 -0.0241 -0.5273  2.0472
  959TIP3   OH224291   5.523   3.951  13.475 -0.1840 -0.4100 -0.5926
  959TIP3    H124292   5.436   3.991  13.488 -0.8316 -1.6911 -0.8660
  959TIP3    H224293   5.578   3.994  13.541 -1.0273  0.3845 -0.3729
  960TIP3   OH224294   3.389   4.230  12.911  0.2165  0.0212 -0.2694
  960TIP3    H124295   3.398   4.325  12.917  0.0602  0.0344 -0.2316
  960TIP3    H224296   3.439   4.196  12.985  1.8435 -0.0181 -1.3239
  961TIP3   OH224297   4.665   2.241   3.117 -0.2772 -0.6027  0.2139
  961TIP3    H124298   4.760   2.241   3.129 -0.4390 -1.3634  1.8614
  961TIP3    H224299   4.639   2.151   3.136 -1.2313 -0.6819 -1.3428
  962TIP3   OH224300   2.013   1.553  13.925 -0.1273 -0.0856  0.0914
  962TIP3    H124301   1.936   1.554  13.982  0.4759 -0.5510  0.9236
  962TIP3    H224302   1.986   1.605  13.849 -1.7621 -1.4031 -0.2878
  963TIP3   OH224303   2.337   5.392  10.169 -0.5632  0.0373 -0.5982
  963TIP3    H124304   2.411   5.338  10.199  1.9667  3.0472 -0.9363
  963TIP3    H224305   2.295   5.420  10.250 -1.4508 -1.6906 -0.4006
  964TIP3   OH224306   5.328   5.406   4.073  0.0063  0.5018 -0.1193
  964TIP3    H124307   5.252   5.464   4.071 -1.3902 -1.2560 -2.3137
  964TIP3    H224308   5.326   5.360   3.989  1.9033 -1.6354  0.8867
  965TIP3   OH224309   1.673   0.707  13.709 -0.5711 -0.2502 -0.0576
  965TIP3    H124310   1.597   0.729  13.655 -1.1684 -0.5768  0.6194
  965TIP3    H224311   1.639   0.644  13.773 -0.2098  1.0167  1.4510
  966TIP3   OH224312   5.825   0.323   3.468 -0.1559 -0.4714 -0.7429
  966TIP3    H124313   5.813   0.406   3.421  2.1120 -0.3973 -1.2868
  966TIP3    H224314   5.834   0.350   3.560  1.3833  0.0148 -1.0078
  967TIP3   OH224315   2.547   5.531  10.388 -0.1190  0.4009 -0.4254
  967TIP3    H124316   2.538   5.436  10.378 -1.7113  0.6747 -2.3076
  967TIP3    H224317   2.641   5.546  10.399  0.2213 -1.3483 -0.6775
  968TIP3   OH224318   1.472   4.327   5.307 -0.5887  0.0809 -0.2013
  968TIP3    H124319   1.464   4.377   5.388  0.8990  0.7528 -0.4343
  968TIP3    H224320   1.544   4.266   5.324  0.0212  0.5140 -1.1428
  969TIP3   OH224321   4.689   2.929   1.176  0.0817  0.6852 -0.1894
  969TIP3    H124322   4.707   2.844   1.137  2.6066  0.6424  0.8840
  969TIP3    H224323   4.731   2.926   1.262 -0.2062  2.8430  0.0985
  970TIP3   OH224324   3.553   1.797   2.044 -0.6050  0.0229  0.4097
  970TIP3    H124325   3.579   1.818   2.134  0.0946 -0.1920  0.2647
  970TIP3    H224326   3.636   1.782   1.999 -1.0065 -0.9370 -0.0121
  971TIP3   OH224327   0.232   5.986   4.991 -0.2860  0.2188 -0.0140
  971TIP3    H124328   0.281   6.051   4.940 -0.5422 -0.9064 -1.7708
  971TIP3    H224329   0.277   5.983   5.075  1.4568  0.6299 -0.8917
  972TIP3   OH224330   6.402   1.887  14.982  0.4020  0.2238 -0.6834
  972TIP3    H124331   6.373   1.799  15.004 -0.1899  0.2848 -1.1733
  972TIP3    H224332   6.428   1.882  14.890  2.4685  0.0593 -0.1511
  973TIP3   OH224333   4.825   5.206   4.748 -0.2578  0.2489 -0.2177
  973TIP3    H124334   4.758   5.269   4.722 -1.1178  0.4166  2.1429
  973TIP3    H224335   4.776   5.138   4.795  1.0022 -0.6820 -0.2201
  974TIP3   OH224336   3.672   6.425  15.443  0.4486 -0.4470 -0.3787
  974TIP3    H124337   3.721   6.373  15.507 -0.0208  1.2354  1.4391
  974TIP3    H224338   3.637   6.360  15.381  2.7514 -1.9239 -0.2461
  975TIP3   OH224339   3.647   0.505  16.285 -0.5249 -0.2098 -0.5218
  975TIP3    H124340   3.706   0.482  16.214 -0.8025  0.0272 -0.8324
  975TIP3    H224341   3.559   0.496  16.248 -0.6552  1.6030 -0.7528
  976TIP3   OH224342   2.892   1.908  10.379 -0.1600 -0.2076  0.8208
  976TIP3    H124343   2.973   1.920  10.429 -0.0540 -1.1144  0.8861
  976TIP3    H224344   2.919   1.860  10.301 -0.7975 -1.5902  1.4164
  977TIP3   OH224345   1.799   2.979   5.406  0.6126  0.4699  0.0756
  977TIP3    H124346   1.765   3.031   5.334 -1.1453 -0.2296  0.3466
  977TIP3    H224347   1.863   2.920   5.366  0.3515  0.7340 -0.7320
  978TIP3   OH224348   5.610   3.056   5.596  0.1359 -0.0250  0.2959
  978TIP3    H124349   5.550   3.054   5.522 -0.1819  0.2915  0.5485
  978TIP3    H224350   5.635   2.964   5.608  1.9820  0.1207 -1.6605
  979TIP3   OH224351   2.017   1.067  11.023 -0.4154  0.0393 -0.8570
  979TIP3    H124352   1.991   0.977  11.044 -3.6192  1.0642  0.0642
  979TIP3    H224353   1.960   1.092  10.951  0.4834  1.3610 -1.1386
  980TIP3   OH224354   0.392   3.378  16.241 -0.7191 -0.1826 -0.3289
  980TIP3    H124355   0.427   3.360  16.328 -3.0358 -1.5111  0.4124
  980TIP3    H224356   0.299   3.354  16.247 -0.6391 -1.9187 -3.6036
  981TIP3   OH224357   1.571   1.948   5.898  0.2144 -0.0133 -0.2160
  981TIP3    H124358   1.633   1.934   5.826  1.2222  1.5093  0.3002
  981TIP3    H224359   1.623   1.994   5.965 -1.3325  0.8120  0.4647
  982TIP3   OH224360   1.860   6.658   0.678  0.2852  1.1062  0.4184
  982TIP3    H124361   1.784   6.676   0.623  0.8855  1.1403 -0.4228
  982TIP3    H224362   1.823   6.623   0.759 -0.7178  2.7779  0.7358
  983TIP3   OH224363   1.677   2.177  13.129 -0.5533  0.4038  0.5502
  983TIP3    H124364   1.703   2.093  13.091  0.5589  0.8491  0.2917
  983TIP3    H224365   1.635   2.153  13.212  0.9349 -0.3678  1.1167
  984TIP3   OH224366   4.980   6.400   3.230 -0.8388  0.0318  0.2929
  984TIP3    H124367   4.962   6.344   3.305 -1.1291 -0.2434  0.0255
  984TIP3    H224368   4.922   6.366   3.161 -1.1219  0.7561  0.1711
  985TIP3   OH224369   0.778   0.532  10.742  0.0128 -0.3006  0.2683
  985TIP3    H124370   0.735   0.446  10.744 -0.6080 -0.0542 -1.2577
  985TIP3    H224371   0.762   0.565  10.653  1.7533  0.6282  0.2548
  986TIP3   OH224372   3.524   3.935   2.074  0.0508  0.5069  0.2852
  986TIP3    H124373   3.468   3.878   2.022  0.5889 -0.1450  0.4091
  986TIP3    H224374   3.470   4.013   2.090 -0.4857  0.2781 -0.3630
  987TIP3   OH224375   3.517   3.102  16.986  0.0611  0.1444 -0.2521
  987TIP3    H124376   3.591   3.043  16.969 -0.6068 -1.1278  1.0842
  987TIP3    H224377   3.558   3.183  17.017  0.9341 -0.0551 -0.8314
  988TIP3   OH224378   4.988   5.733  15.751 -0.3221  0.4889 -0.0313
  988TIP3    H124379   4.916   5.738  15.688  0.1604  1.3695 -0.5308
  988TIP3    H224380   4.957   5.782  15.827  0.2282  2.0330 -0.7568
  989TIP3   OH224381   5.260   4.612  14.801 -0.6095 -0.3288 -0.0642
  989TIP3    H124382   5.267   4.602  14.706  0.1265 -1.5866  0.0918
  989TIP3    H224383   5.175   4.573  14.822 -1.4342  1.2589 -0.3410
  990TIP3   OH224384   4.721   3.894  16.833  0.4787 -0.2438  0.0177
  990TIP3    H124385   4.636   3.866  16.799  0.4387  0.8322 -0.8224
  990TIP3    H224386   4.777   3.900  16.756  0.7653  0.9262  0.3003
  991TIP3   OH224387   5.480   1.282  11.836 -0.0004 -0.2285 -0.6416
  991TIP3    H124388   5.415   1.352  11.841  0.7691  0.4014  1.7280
  991TIP3    H224389   5.446   1.213  11.893  1.1820 -0.0627  0.2944
  992TIP3   OH224390   6.336   3.966   2.721  0.5177  0.3529  0.0838
  992TIP3    H124391   6.380   3.912   2.655 -1.0497 -1.6298  0.5505
  992TIP3    H224392   6.355   3.922   2.804 -1.4965 -0.0279  0.3894
  993TIP3   OH224393   0.292   6.216   4.520  0.3566  0.1537  0.5691
  993TIP3    H124394   0.207   6.248   4.488  0.0202 -1.5283 -0.3510
  993TIP3    H224395   0.339   6.189   4.441  0.8267 -1.0445  1.2344
  994TIP3   OH224396   1.230   2.800  11.574 -0.1464  0.8374  0.1895
  994TIP3    H124397   1.270   2.782  11.489 -1.5114 -0.3035 -0.2514
  994TIP3    H224398   1.209   2.713  11.609 -0.4633  1.3331  1.2752
  995TIP3   OH224399   1.389   2.021   3.587  0.0664  0.1935 -0.0177
  995TIP3    H124400   1.466   1.999   3.638 -0.2095 -0.3290  0.1734
  995TIP3    H224401   1.367   1.941   3.540 -0.4951  0.2714  0.1038
  996TIP3   OH224402   5.161   3.081   5.419 -0.7674  0.3179  0.1150
  996TIP3    H124403   5.117   3.159   5.385 -1.1235 -0.4074 -1.1563
  996TIP3    H224404   5.098   3.042   5.480 -1.6791 -0.3729 -1.2232
  997TIP3   OH224405   1.680   3.999   4.861 -0.0892  0.0014  0.1711
  997TIP3    H124406   1.598   4.000   4.910 -1.1587 -1.1686 -1.5103
  997TIP3    H224407   1.743   4.042   4.919 -2.3660  3.1026  0.5874
  998TIP3   OH224408   3.387   3.907  12.760  0.1276 -0.2092 -0.4279
  998TIP3    H124409   3.369   3.836  12.699 -3.3998 -0.9581  1.2049
  998TIP3    H224410   3.390   3.864  12.846 -2.5636  1.5093  0.6612
  999TIP3   OH224411   1.258   1.258  13.224 -0.5797 -0.0067 -0.0076
  999TIP3    H124412   1.263   1.253  13.319  0.9815  0.2322 -0.0414
  999TIP3    H224413   1.336   1.308  13.199 -0.4489 -0.8769 -1.4641
 1000TIP3   OH224414   1.911   0.081   3.111  0.5386  0.0396 -0.4918
 1000TIP3    H124415   1.935   0.159   3.062 -1.9379  0.5951 -0.9753
 1000TIP3    H224416   1.924   0.009   3.050 -0.2326  0.4623 -1.1758
 1001TIP3   OH224417   2.687   6.349  12.583 -0.8908  0.0292 -0.2487
 1001TIP3    H124418   2.695   6.259  12.614  0.4633  0.0942 -0.3624
 1001TIP3    H224419   2.627   6.343  12.509 -0.5887 -0.8242 -0.4357
 1002TIP3   OH224420   6.374   6.080  12.613 -0.5360 -0.0197 -0.3332
 1002TIP3    H124421   6.389   6.171  12.639  0.7249 -0.2323 -0.2713
 1002TIP3    H224422   6.424   6.069  12.533  0.3633 -1.0013  0.3358
 1003TIP3   OH224423   6.242   5.293  16.003 -0.4617 -0.1576  0.1022
 1003TIP3    H124424   6.221   5.384  15.981  1.0978  0.1641 -0.1744
 1003TIP3    H224425   6.243   5.248  15.919  4.5955  0.8838 -0.7341
 1004TIP3   OH224426   3.314   3.057  14.752  0.2983 -0.6061 -0.0531
 1004TIP3    H124427   3.286   3.087  14.665  2.7448 -0.9364 -1.0281
 1004TIP3    H224428   3.248   3.093  14.811 -1.2813 -0.0910 -1.9833
 1005TIP3   OH224429   6.191   0.720   5.616  0.3673  0.1356 -0.7576
 1005TIP3    H124430   6.198   0.624   5.622  1.5774  0.2771  0.9535
 1005TIP3    H224431   6.152   0.736   5.530 -2.1363 -1.9763 -0.1457
 1006TIP3   OH224432   0.607   2.926  15.144 -0.1864 -0.1583  0.2766
 1006TIP3    H124433   0.579   2.999  15.089  0.6058  0.3838  0.5860
 1006TIP3    H224434   0.700   2.917  15.128  0.0623 -0.0027  1.5008
 1007TIP3   OH224435   4.803   4.445  12.993 -0.2314  0.0538  0.1238
 1007TIP3    H124436   4.824   4.435  13.086  0.3451  0.1322  0.0122
 1007TIP3    H224437   4.860   4.516  12.964 -1.8908  1.4683  0.1723
 1008TIP3   OH224438   2.995   3.983   5.304 -0.0657  0.0551 -0.3758
 1008TIP3    H124439   2.947   3.970   5.222  1.3640 -0.9158 -1.1028
 1008TIP3    H224440   3.000   4.078   5.314 -1.9943  0.1913 -0.3251
 1009TIP3   OH224441   3.270   5.657  12.141  0.7023  0.0262  0.0133
 1009TIP3    H124442   3.197   5.708  12.103  1.1134 -0.0010 -0.8380
 1009TIP3    H224443   3.283   5.696  12.227 -0.9482 -0.5819  0.5847
 1010TIP3   OH224444   5.587   5.788   5.177  0.6982  0.3930 -0.2597
 1010TIP3    H124445   5.501   5.810   5.214  0.3182  0.0510 -0.9142
 1010TIP3    H224446   5.626   5.730   5.241 -0.2485 -0.7737 -0.6997
 1011TIP3   OH224447   5.563   2.606  14.171 -0.6465 -0.5762 -1.0679
 1011TIP3    H124448   5.586   2.694  14.204  2.5824 -0.8948 -2.1432
 1011TIP3    H224449   5.530   2.560  14.248  0.3351  0.7421  0.2008
 1012TIP3   OH224450   0.460   5.102  16.238  0.3449 -0.2316 -0.7472
 1012TIP3    H124451   0.401   5.121  16.311  0.0242  0.0612 -1.0803
 1012TIP3    H224452   0.410   5.126  16.160  1.4810  1.6065 -0.9724
 1013TIP3   OH224453   2.245   0.994  15.223 -0.4866 -0.6311  0.4232
 1013TIP3    H124454   2.296   1.058  15.272  1.0872 -0.9201 -0.7896
 1013TIP3    H224455   2.219   1.039  15.143  1.0408 -1.6086 -0.6682
 1014TIP3   OH224456   3.592   2.107   4.232 -0.7435  0.8027 -0.0106
 1014TIP3    H124457   3.587   2.179   4.294 -0.7270  0.8609 -0.0775
 1014TIP3    H224458   3.676   2.064   4.250 -0.0632  1.6889 -0.9600
 1015TIP3   OH224459   5.626   1.328   4.845 -0.2987  0.6241  0.2537
 1015TIP3    H124460   5.656   1.254   4.898 -0.4981  0.4065  0.0619
 1015TIP3    H224461   5.556   1.292   4.791 -2.0720  1.4810  1.8538
 1016TIP3   OH224462   1.816   3.374   0.828  0.1951  0.5041 -0.0442
 1016TIP3    H124463   1.868   3.373   0.908 -1.6963  0.3297  1.2670
 1016TIP3    H224464   1.762   3.453   0.834  0.6589  0.9836 -1.6209
 1017TIP3   OH224465   1.457   0.810   3.760  0.0250 -0.4197 -0.0734
 1017TIP3    H124466   1.432   0.867   3.833 -0.7071 -1.5080  0.5688
 1017TIP3    H224467   1.376   0.764   3.736 -0.2291  1.2724 -2.8890
 1018TIP3   OH224468   2.775   2.084   0.549  0.9056 -0.0035 -0.4299
 1018TIP3    H124469   2.727   2.167   0.540  1.8260  0.7492  1.1984
 1018TIP3    H224470   2.717   2.028   0.599  0.6934  0.0075 -0.6618
 1019TIP3   OH224471   0.220   4.582  16.904 -0.2840  0.1616 -0.0373
 1019TIP3    H124472   0.279   4.627  16.964  0.4398  2.4071 -2.2608
 1019TIP3    H224473   0.203   4.498  16.946  1.1617  1.0878  2.6505
 1020TIP3   OH224474   6.186   2.552  15.953  0.2345  0.3569  0.2574
 1020TIP3    H124475   6.202   2.459  15.972 -0.6713  0.2057  0.3378
 1020TIP3    H224476   6.182   2.557  15.858  2.3265  0.6879  0.1435
 1021TIP3   OH224477   5.833   3.713  11.537 -0.1626 -0.4907  0.4764
 1021TIP3    H124478   5.898   3.748  11.597  0.0692 -0.5928  0.2837
 1021TIP3    H224479   5.882   3.691  11.458 -0.2995 -1.3075  0.6119
 1022TIP3   OH224480   6.653   3.493  12.308  0.1548 -0.1975 -0.2777
 1022TIP3    H124481   6.598   3.416  12.323  2.4618 -1.9976 -0.4707
 1022TIP3    H224482   6.608   3.564  12.353 -1.7804 -1.7675  0.4187
 1023TIP3   OH224483   6.458   1.643  11.102  0.2152 -0.0730  0.0326
 1023TIP3    H124484   6.376   1.630  11.053  1.1940  0.5776 -1.9012
 1023TIP3    H224485   6.526   1.611  11.042  1.4801  0.6439  1.0438
 1024TIP3   OH224486   5.827   5.285   5.444  0.0025 -0.2630  0.3235
 1024TIP3    H124487   5.744   5.255   5.406 -0.3679  0.6117  0.4227
 1024TIP3    H224488   5.805   5.305   5.535  0.8114 -2.0496  0.9691
 1025TIP3   OH224489   3.845   2.522  13.709  0.3576  0.2408 -0.2145
 1025TIP3    H124490   3.798   2.530  13.627  0.6446 -0.2042 -0.4279
 1025TIP3    H224491   3.895   2.441  13.700 -0.4424 -0.3974  0.8230
 1026TIP3   OH224492   0.814   4.238   0.272 -0.6084 -0.0982 -0.2928
 1026TIP3    H124493   0.840   4.178   0.202  1.6922  0.1908  0.2208
 1026TIP3    H224494   0.791   4.319   0.226 -0.7336 -0.4215 -0.8140
 1027TIP3   OH224495   4.681   1.812  10.531  0.3945 -0.4415  0.8197
 1027TIP3    H124496   4.664   1.808  10.625  0.4685 -0.7159  0.8221
 1027TIP3    H224497   4.619   1.749  10.493 -0.4589  0.5222  0.5685
 1028TIP3   OH224498   1.153   1.459   3.518  0.0143 -0.7930  0.2474
 1028TIP3    H124499   1.121   1.393   3.457  1.4606  0.5167 -2.0605
 1028TIP3    H224500   1.075   1.512   3.539 -0.2568 -0.2884 -1.8035
 1029TIP3   OH224501   0.360   3.375   1.952 -0.1234  0.4513  0.1587
 1029TIP3    H124502   0.403   3.360   2.037  2.9278  0.1036 -1.3185
 1029TIP3    H224503   0.370   3.469   1.937 -0.5521  0.4930  0.1435
 1030TIP3   OH224504   5.873   3.742   0.407  0.0093  0.5466 -0.1520
 1030TIP3    H124505   5.901   3.656   0.438 -0.6425  0.6479  0.7757
 1030TIP3    H224506   5.860   3.793   0.487 -0.3985  1.2562 -0.6560
 1031TIP3   OH224507   5.914   5.183  13.875 -0.3009 -0.4204  0.3890
 1031TIP3    H124508   5.921   5.090  13.897  1.2023 -0.3622  0.2731
 1031TIP3    H224509   5.834   5.212  13.917 -0.7288 -1.7400  0.5307
 1032TIP3   OH224510   0.678   5.734   3.080 -0.1574 -0.0081 -0.1222
 1032TIP3    H124511   0.699   5.704   3.168  3.2959  0.1578 -0.7514
 1032TIP3    H224512   0.731   5.813   3.068  0.0298 -0.4121 -2.5571
 1033TIP3   OH224513   2.022   4.441  16.979  0.3547  0.0754 -0.5927
 1033TIP3    H124514   2.032   4.375  17.049 -0.1458  0.5779 -0.0321
 1033TIP3    H224515   2.001   4.390  16.901 -0.4767 -0.4125 -0.0667
 1034TIP3   OH224516   1.065   6.107   2.900  0.0723 -0.4555  0.2778
 1034TIP3    H124517   1.069   6.053   2.979  1.8819 -1.7872 -0.6644
 1034TIP3    H224518   1.003   6.061   2.843  0.0772 -0.4255  0.2484
 1035TIP3   OH224519   6.330   3.921  12.149  0.3068 -0.0223  0.7685
 1035TIP3    H124520   6.235   3.929  12.144  0.2677 -0.9785 -0.8595
 1035TIP3    H224521   6.345   3.831  12.179  0.6966 -0.1297  0.2557
 1036TIP3   OH224522   2.389   0.015   2.520  0.7886  0.3855 -0.3715
 1036TIP3    H124523   2.320   0.081   2.517 -0.2565 -0.6133  0.6859
 1036TIP3    H224524   2.410  -0.001   2.428 -0.9690  0.1641 -0.7884
 1037TIP3   OH224525   3.455   0.217   3.248  0.5227  0.3563 -0.3031
 1037TIP3    H124526   3.471   0.299   3.295  5.1045 -0.5912  0.2097
 1037TIP3    H224527   3.448   0.151   3.316 -0.9439 -0.0477 -0.8036
 1038TIP3   OH224528   3.550   5.679  14.870  0.0731 -0.3068 -0.4914
 1038TIP3    H124529   3.567   5.708  14.780  0.3384  1.6928  0.1429
 1038TIP3    H224530   3.469   5.629  14.864 -0.4136  0.5549 -1.7308
 1039TIP3   OH224531   3.619   4.972  12.305 -0.3724  0.3176 -0.0979
 1039TIP3    H124532   3.636   4.982  12.398  0.8292 -1.1979 -0.1049
 1039TIP3    H224533   3.529   4.938  12.300 -1.0353  1.9489  0.3808
 1040TIP3   OH224534   3.238   6.128  13.451  0.3241  0.1705 -0.5079
 1040TIP3    H124535   3.202   6.064  13.389 -0.2525  0.0535 -0.0664
 1040TIP3    H224536   3.328   6.100  13.465  0.3270 -0.0574 -0.9627
 1041TIP3   OH224537   3.606   6.208  12.474  0.1552  0.6327  0.4840
 1041TIP3    H124538   3.640   6.256  12.399  0.7654 -0.7015 -0.1270
 1041TIP3    H224539   3.673   6.142  12.493 -0.7646 -0.1677  1.1003
 1042TIP3   OH224540   3.263   2.861  15.297 -0.0950  0.8932 -0.7460
 1042TIP3    H124541   3.245   2.831  15.386  1.7152  2.0836  0.0736
 1042TIP3    H224542   3.282   2.781  15.248  0.3898  0.3453  0.3128
 1043TIP3   OH224543   1.423   3.581  14.954 -0.3246  0.2784 -0.2713
 1043TIP3    H124544   1.401   3.540  14.870 -1.5928  0.3156  0.0074
 1043TIP3    H224545   1.458   3.509  15.007  0.6748  0.2982 -0.8822
 1044TIP3   OH224546   1.120   3.211   2.826 -0.8564 -0.1535 -0.2146
 1044TIP3    H124547   1.110   3.265   2.905 -0.3704  1.0673 -0.9628
 1044TIP3    H224548   1.034   3.213   2.785 -0.7789  0.2669 -0.3636
 1045TIP3   OH224549   0.671   3.053   3.629 -0.0913 -1.2509  0.2659
 1045TIP3    H124550   0.683   2.978   3.571  0.2876 -1.7197  0.9443
 1045TIP3    H224551   0.626   3.018   3.706  0.9652 -1.0074  1.0237
 1046TIP3   OH224552   3.400   4.368   4.842  0.0996  0.1010  0.0979
 1046TIP3    H124553   3.465   4.381   4.911 -1.8745 -0.1312  2.1024
 1046TIP3    H224554   3.360   4.283   4.862 -0.2826 -0.1509 -1.5768
 1047TIP3   OH224555   1.288   2.563  15.722 -0.2935  0.1885 -0.4901
 1047TIP3    H124556   1.203   2.567  15.678 -1.4410 -1.8439  1.3173
 1047TIP3    H224557   1.267   2.576  15.815  0.6929 -4.1337  0.5495
 1048TIP3   OH224558   3.251   5.942  15.479  0.8920  1.0273 -0.1861
 1048TIP3    H124559   3.170   5.990  15.461  1.3273  1.3747 -1.3325
 1048TIP3    H224560   3.290   5.927  15.392  1.9604  0.6962  0.3271
 1049TIP3   OH224561   2.876   6.645   5.614  0.0390 -0.3865  0.0875
 1049TIP3    H124562   2.834   6.726   5.585  0.7250  0.0913  0.3957
 1049TIP3    H224563   2.905   6.664   5.703  2.0127 -0.2455 -0.5292
 1050TIP3   OH224564   1.878   4.381  10.733 -0.7668  0.3465  0.5956
 1050TIP3    H124565   1.824   4.395  10.655  1.7137  1.4464 -1.0564
 1050TIP3    H224566   1.939   4.312  10.709  0.8316  1.5281  1.0669
 1051TIP3   OH224567   5.398   2.973   0.798 -0.1472  0.1553 -0.3132
 1051TIP3    H124568   5.357   2.906   0.853  0.3617 -2.1611 -2.5768
 1051TIP3    H224569   5.325   3.026   0.766 -0.7231 -0.2043  0.3924
 1052TIP3   OH224570   0.229   3.314  14.339 -0.3923  0.3897  0.0349
 1052TIP3    H124571   0.218   3.299  14.433 -0.8406 -0.3670 -0.1307
 1052TIP3    H224572   0.311   3.270  14.318  0.0659  1.1496  0.1928
 1053TIP3   OH224573   2.723   1.751  13.133  0.1260  0.1171 -0.5565
 1053TIP3    H124574   2.689   1.671  13.093 -0.4490  0.6510 -1.1746
 1053TIP3    H224575   2.681   1.755  13.219 -0.4559  0.1531 -0.8353
 1054TIP3   OH224576   5.848   3.582   1.135 -0.0787 -0.2854  0.7682
 1054TIP3    H124577   5.859   3.509   1.195  1.9466 -0.2381  0.5099
 1054TIP3    H224578   5.922   3.576   1.074 -0.9202  0.8684 -0.4449
 1055TIP3   OH224579   5.148   5.178   3.502  0.2388  0.3503  0.2939
 1055TIP3    H124580   5.202   5.255   3.516 -0.1316  0.9600 -1.4060
 1055TIP3    H224581   5.058   5.208   3.519  0.2612 -0.2762  1.6696
 1056TIP3   OH224582   3.892   3.161   3.521 -0.1333 -0.2273 -0.2929
 1056TIP3    H124583   3.874   3.080   3.569  1.4129 -0.8649 -0.7218
 1056TIP3    H224584   3.810   3.211   3.527 -0.4240 -0.8373  1.8729
 1057TIP3   OH224585   1.215   4.793  16.829 -0.4028  0.2960  0.3850
 1057TIP3    H124586   1.248   4.878  16.799  0.4413 -0.1056  0.1162
 1057TIP3    H224587   1.232   4.793  16.923 -0.1054  0.3116  0.3358
 1058TIP3   OH224588   0.124   3.466   6.485 -0.3410  0.3273  0.1485
 1058TIP3    H124589   0.123   3.561   6.501 -0.1277  0.3500  0.0243
 1058TIP3    H224590   0.033   3.439   6.498 -0.8315  0.8832 -1.7771
 1059TIP3   OH224591   6.212   5.422  15.103  0.7932 -0.0947 -0.8454
 1059TIP3    H124592   6.211   5.326  15.098 -0.2195 -0.4009  2.5896
 1059TIP3    H224593   6.210   5.441  15.196  0.2908  3.3215 -1.4280
 1060TIP3   OH224594   6.723   0.615   2.121 -0.3300 -0.1244 -0.1983
 1060TIP3    H124595   6.725   0.704   2.086 -0.5460 -0.2476 -0.5306
 1060TIP3    H224596   6.733   0.626   2.216 -1.0940  0.2966 -0.1636
 1061TIP3   OH224597   1.911   0.894   5.796  0.4511 -0.1924 -0.4464
 1061TIP3    H124598   1.975   0.867   5.730 -0.1062  2.4216 -2.2411
 1061TIP3    H224599   1.857   0.816   5.811  1.7135 -1.3742 -1.7358
 1062TIP3   OH224600   0.291   0.927   1.531 -0.5309 -0.0114 -0.6507
 1062TIP3    H124601   0.218   0.960   1.478 -2.7059 -0.0083  2.1169
 1062TIP3    H224602   0.252   0.905   1.615  2.2634 -2.3261  0.2328
 1063TIP3   OH224603   5.154   4.282   3.996 -0.0123  0.2837  0.1795
 1063TIP3    H124604   5.063   4.293   4.022  0.0271 -1.2671  1.0623
 1063TIP3    H224605   5.184   4.204   4.042  1.2503 -0.2725 -1.4627
 1064TIP3   OH224606   5.951   0.627  13.593  0.0782  0.3734  0.4012
 1064TIP3    H124607   5.893   0.552  13.605  0.3902  0.2719  1.2834
 1064TIP3    H224608   5.915   0.673  13.516 -1.1847  0.3302  0.9421
 1065TIP3   OH224609   0.071   3.607  13.165  0.4287  0.3328 -0.3797
 1065TIP3    H124610   0.063   3.648  13.078 -1.3266  1.4253  0.2403
 1065TIP3    H224611   0.105   3.520  13.147 -1.4792 -0.0938 -2.3917
 1066TIP3   OH224612   4.887   0.158  12.523  0.2292 -0.0322 -0.0562
 1066TIP3    H124613   4.956   0.097  12.551 -0.1910 -0.6510 -0.3436
 1066TIP3    H224614   4.885   0.225  12.591 -2.1014 -2.4841  2.5728
 1067TIP3   OH224615   1.347   2.153   1.552  0.4847  0.0582 -0.0661
 1067TIP3    H124616   1.332   2.060   1.566 -1.0177  0.5246  1.8396
 1067TIP3    H224617   1.261   2.189   1.530  0.1418  1.5687  3.1741
 1068TIP3   OH224618   6.287   5.434   6.786 -0.3891  0.0227  0.5421
 1068TIP3    H124619   6.358   5.376   6.814 -0.0914 -0.1876 -0.6141
 1068TIP3    H224620   6.221   5.375   6.751 -0.4394  0.3257  0.1249
 1069TIP3   OH224621   3.554   0.190  11.755 -0.0638  0.5996  0.3213
 1069TIP3    H124622   3.516   0.129  11.818 -1.5193  3.6530  2.7155
 1069TIP3    H224623   3.487   0.203  11.689  0.4231 -0.6559 -0.4389
 1070TIP3   OH224624   5.624   4.242  11.283 -0.1049  0.0725  0.4053
 1070TIP3    H124625   5.709   4.233  11.240  0.0032  2.1242  0.0542
 1070TIP3    H224626   5.561   4.205  11.221  0.2754  1.0769 -0.6250
 1071TIP3   OH224627   4.979   1.555  15.835 -0.2778 -0.6246 -0.8005
 1071TIP3    H124628   4.887   1.545  15.860 -0.5012  0.6308 -1.0472
 1071TIP3    H224629   4.976   1.602  15.752  0.6250  1.0007  0.0394
 1072TIP3   OH224630   3.227   4.018   4.115  0.4096 -0.4179  0.4940
 1072TIP3    H124631   3.310   4.058   4.086  0.7896 -0.3543  1.6072
 1072TIP3    H224632   3.226   3.932   4.074  1.6277 -0.9013  1.4333
 1073TIP3   OH224633   3.809   5.437  12.360 -0.0250  0.5940  0.3740
 1073TIP3    H124634   3.842   5.450  12.271  1.9708  0.0133  0.9683
 1073TIP3    H224635   3.714   5.439  12.351 -0.0722 -2.9042 -2.3562
 1074TIP3   OH224636   5.321   4.152  11.474  0.0473 -0.3327 -0.0362
 1074TIP3    H124637   5.238   4.116  11.442 -1.4028  1.7377  1.1128
 1074TIP3    H224638   5.363   4.188  11.397 -0.7434 -0.2917 -0.4600
 1075TIP3   OH224639   0.910   5.519  13.431  0.4462  0.3378 -0.4517
 1075TIP3    H124640   0.971   5.459  13.389  2.6004  0.6078  2.0198
 1075TIP3    H224641   0.837   5.464  13.459  1.4156 -0.7549 -0.0221
 1076TIP3   OH224642   3.502   5.830  11.137 -0.1668 -0.6156 -0.2088
 1076TIP3    H124643   3.415   5.836  11.098 -0.3862 -2.3454 -0.0299
 1076TIP3    H224644   3.527   5.921  11.154 -3.1494 -0.1461  2.4595
 1077TIP3   OH224645   2.529   0.111   4.246  0.1367 -0.0512 -0.2530
 1077TIP3    H124646   2.579   0.142   4.171  1.9742  0.3861  1.0530
 1077TIP3    H224647   2.492   0.190   4.285 -0.1174 -0.1749 -0.2452
 1078TIP3   OH224648   2.463   1.206   0.164 -0.2879  0.5118 -0.1757
 1078TIP3    H124649   2.413   1.201   0.245  0.5975 -2.2435  0.3249
 1078TIP3    H224650   2.400   1.188   0.095 -0.3363 -1.3770  0.3160
 1079TIP3   OH224651   1.798   4.461   3.083 -0.5978  0.3763  0.5688
 1079TIP3    H124652   1.820   4.368   3.090  1.0042  0.6972  0.1961
 1079TIP3    H224653   1.811   4.496   3.171  0.2158  0.5056  0.4125
 1080TIP3   OH224654   3.389   1.288  12.855  0.1506 -0.2464 -0.0353
 1080TIP3    H124655   3.346   1.373  12.852 -0.2098 -0.4443 -0.7766
 1080TIP3    H224656   3.468   1.302  12.908 -0.7996  0.1236  1.3094
 1081TIP3   OH224657   2.076   1.549  13.088  0.0147 -0.5602  0.6958
 1081TIP3    H124658   2.116   1.476  13.040 -2.1051 -1.4253  0.1305
 1081TIP3    H224659   2.082   1.623  13.028 -0.4215 -1.0162  0.0780
 1082TIP3   OH224660   4.851   1.393  16.218 -0.2646 -0.8193  0.0394
 1082TIP3    H124661   4.791   1.463  16.243  2.4794  1.4842  0.7784
 1082TIP3    H224662   4.805   1.345  16.149 -2.4147  1.5881 -0.3545
 1083TIP3   OH224663   6.268   6.693  16.211 -0.0221 -0.4570 -0.7403
 1083TIP3    H124664   6.329   6.620  16.225  2.1949  1.0440 -1.8933
 1083TIP3    H224665   6.286   6.752  16.284 -0.9484 -0.5003 -0.4693
 1084TIP3   OH224666   4.398   1.108   0.438  0.4276  0.0099 -0.1704
 1084TIP3    H124667   4.396   1.093   0.533  0.8950  0.3510 -0.1021
 1084TIP3    H224668   4.319   1.159   0.420  0.1771 -0.3168 -0.0109
 1085TIP3   OH224669   5.279   4.788  14.490  0.0859 -0.1292 -0.6085
 1085TIP3    H124670   5.261   4.736  14.412 -0.2801 -0.0276 -0.5958
 1085TIP3    H224671   5.195   4.830  14.510 -0.6462 -2.3311  1.4583
 1086TIP3   OH224672   5.332   5.569   3.191 -0.1198  0.3236 -0.3261
 1086TIP3    H124673   5.278   5.492   3.210  1.4738 -1.0717 -1.1574
 1086TIP3    H224674   5.394   5.573   3.263  0.1927  0.4546 -0.6004
 1087TIP3   OH224675   4.729   1.985  11.376 -0.4502  0.2399  0.2612
 1087TIP3    H124676   4.716   1.999  11.282 -1.3233 -1.0970  0.1570
 1087TIP3    H224677   4.823   1.993  11.390 -0.2661 -0.0173 -0.8088
 1088TIP3   OH224678   6.337   5.351  13.162  0.4126 -0.5673 -0.2773
 1088TIP3    H124679   6.309   5.279  13.218 -0.9073  1.3108  1.6170
 1088TIP3    H224680   6.268   5.359  13.097 -0.2868  0.0155  0.5211
 1089TIP3   OH224681   3.629   5.683  11.368 -0.0354  0.0328  0.1712
 1089TIP3    H124682   3.575   5.741  11.314  0.1083  0.9345  0.9740
 1089TIP3    H224683   3.713   5.679  11.323 -0.9781 -2.0766 -1.5615
 1090TIP3   OH224684   1.452   0.567   4.482  0.1225 -0.6923 -0.0570
 1090TIP3    H124685   1.481   0.610   4.402  0.0391 -0.2723  0.1331
 1090TIP3    H224686   1.357   0.580   4.483  0.0892 -0.9354 -0.0294
 1091TIP3   OH224687   5.948   0.537  15.017  0.7087  0.0606  0.0923
 1091TIP3    H124688   5.991   0.615  15.052  0.9733  0.1289 -0.3807
 1091TIP3    H224689   5.983   0.528  14.928 -0.3350  0.1807 -0.3442
 1092TIP3   OH224690   5.632   0.347   4.447 -0.1569  0.6577 -0.3015
 1092TIP3    H124691   5.677   0.359   4.363  0.2453  0.1747 -0.1568
 1092TIP3    H224692   5.602   0.257   4.446  0.4900  0.4221  0.3791
 1093TIP3   OH224693   2.398   5.566   5.908  0.4017 -0.6803 -0.6547
 1093TIP3    H124694   2.307   5.539   5.903  0.3691 -0.4461 -1.4515
 1093TIP3    H224695   2.395   5.661   5.912  0.5676 -0.7070  0.8475
 1094TIP3   OH224696   5.487   3.494   1.409 -0.5475  0.7889 -0.2132
 1094TIP3    H124697   5.420   3.563   1.409 -2.2215 -0.7718 -0.8256
 1094TIP3    H224698   5.440   3.415   1.382  1.2735 -0.6636  0.6889
 1095TIP3   OH224699   3.938   2.461   3.528 -0.2900 -0.3306  0.4547
 1095TIP3    H124700   3.871   2.398   3.503  0.2543 -0.9830  0.6192
 1095TIP3    H224701   3.921   2.480   3.620 -0.5360 -0.1222  0.3692
 1096TIP3   OH224702   1.361   1.635   0.158 -0.1111 -0.1504  0.2675
 1096TIP3    H124703   1.442   1.598   0.194  1.0022 -0.0032 -1.9106
 1096TIP3    H224704   1.385   1.663   0.070 -1.7353  2.9021  0.6808
 1097TIP3   OH224705   2.946   3.882   5.576 -0.5348 -0.3178  0.5254
 1097TIP3    H124706   2.857   3.885   5.611 -0.7711  0.3012 -0.1060
 1097TIP3    H224707   2.942   3.935   5.496  0.4084 -0.2532  0.5119
 1098TIP3   OH224708   4.490   4.336  12.327 -0.0473 -0.2405  0.7308
 1098TIP3    H124709   4.488   4.367  12.236  0.6943 -0.5679  0.5923
 1098TIP3    H224710   4.523   4.410  12.377  0.4067 -0.3520  0.6000
 1099TIP3   OH224711   4.887   6.647   3.971  0.2358  0.0046  0.0074
 1099TIP3    H124712   4.859   6.615   4.056 -1.4049 -0.1983 -0.5836
 1099TIP3    H224713   4.977   6.615   3.962  0.4048 -0.0322  1.6136
 1100TIP3   OH224714   4.293   2.824  17.344  0.0152 -0.3718  0.3221
 1100TIP3    H124715   4.294   2.776  17.261 -1.0334 -0.5716  0.4085
 1100TIP3    H224716   4.307   2.915  17.320 -0.6467 -0.3800 -0.1187
 1101TIP3   OH224717   1.173   4.930  12.804 -0.1947  0.3217 -0.1610
 1101TIP3    H124718   1.245   4.871  12.783 -0.1582  0.6896 -1.1251
 1101TIP3    H224719   1.147   4.907  12.893 -0.3728 -1.3322 -0.6160
 1102TIP3   OH224720   0.936   4.058  12.393 -0.3422 -0.0843  0.0499
 1102TIP3    H124721   0.991   4.068  12.316  1.6463 -0.4271  1.3456
 1102TIP3    H224722   0.947   3.966  12.419  0.2964  0.3897  1.6002
 1103TIP3   OH224723   4.254   3.226   3.334  0.3238 -0.3200  0.1461
 1103TIP3    H124724   4.218   3.138   3.328  2.3302 -1.0937 -1.4502
 1103TIP3    H224725   4.338   3.215   3.379  0.2800  0.9029  0.5669
 1104TIP3   OH224726   4.863   3.236  12.713 -0.0465  0.6424 -0.8258
 1104TIP3    H124727   4.850   3.183  12.635 -1.5037  1.3659 -1.1173
 1104TIP3    H224728   4.865   3.173  12.785 -0.0283  0.0722 -1.3140
 1105TIP3   OH224729   2.439   3.015  15.343  0.3132 -0.1685  0.1140
 1105TIP3    H124730   2.357   2.965  15.340  1.1934 -1.8165  1.5424
 1105TIP3    H224731   2.499   2.967  15.286  0.4184  0.8357 -0.6548
 1106TIP3   OH224732   5.709   4.819   0.080 -0.6373  0.3735  0.0977
 1106TIP3    H124733   5.744   4.904   0.109 -1.2151  0.6852 -0.1140
 1106TIP3    H224734   5.709   4.824  -0.015  0.6720 -0.4201  0.0269
 1107TIP3   OH224735   2.779   5.561   3.126  0.1477 -0.4013 -0.1774
 1107TIP3    H124736   2.803   5.620   3.197  0.4903 -0.9045  0.1342
 1107TIP3    H224737   2.799   5.611   3.046  1.2196 -0.3892  0.0763
 1108TIP3   OH224738   3.462   1.631  12.753  0.0424 -0.3889  0.1257
 1108TIP3    H124739   3.519   1.561  12.720  1.2718  0.9431 -0.7042
 1108TIP3    H224740   3.486   1.640  12.845 -1.2736 -2.0990  0.6935
 1109TIP3   OH224741   6.169   0.391   0.636  0.6711 -0.2621 -0.0866
 1109TIP3    H124742   6.150   0.410   0.727  1.8136  0.1814  0.0888
 1109TIP3    H224743   6.084   0.393   0.592  0.1041 -0.5697  0.9739
 1110TIP3   OH224744   0.538   6.522  14.266  0.0245 -0.0699  0.1293
 1110TIP3    H124745   0.622   6.522  14.221 -0.0955 -0.8643 -0.1101
 1110TIP3    H224746   0.480   6.573  14.208 -0.0968 -0.9802 -0.5803
 1111TIP3   OH224747   3.973   4.020   4.757 -0.7708 -0.0892 -0.1143
 1111TIP3    H124748   4.028   3.997   4.683 -0.4191  0.0458  0.1022
 1111TIP3    H224749   4.009   4.103   4.789 -3.9058  2.5948 -2.8350
 1112TIP3   OH224750   1.136   6.652  11.624  0.8581 -0.3227  0.5004
 1112TIP3    H124751   1.173   6.578  11.577  1.7571  0.5626 -0.2402
 1112TIP3    H224752   1.186   6.657  11.705  1.4866  0.0680  0.0966
 1113TIP3   OH224753   2.550   2.796   6.097 -0.1613  0.4705 -0.8519
 1113TIP3    H124754   2.609   2.845   6.154 -2.0350  1.2209  0.5107
 1113TIP3    H224755   2.596   2.713   6.080  1.1957  0.9584  0.3025
 1114TIP3   OH224756   3.936   2.768  11.249  0.2245 -0.0349 -0.2614
 1114TIP3    H124757   3.920   2.860  11.225  2.5648 -0.1132 -2.5894
 1114TIP3    H224758   3.860   2.721  11.214 -0.7456  0.9077  0.4876
 1115TIP3   OH224759   0.455   5.868   0.339 -0.0408 -0.2850  0.0243
 1115TIP3    H124760   0.460   5.926   0.263 -0.4030 -1.3124 -0.8104
 1115TIP3    H224761   0.450   5.927   0.414 -1.3406  0.7645 -0.8496
 1116TIP3   OH224762   4.375   0.635   4.969 -0.5671 -0.4474 -0.2767
 1116TIP3    H124763   4.463   0.611   4.997 -1.3540 -1.8196  1.1571
 1116TIP3    H224764   4.387   0.672   4.881  1.4822 -0.0680  0.1102
 1117TIP3   OH224765   2.860   5.799   4.087  0.6723  0.4082 -0.1349
 1117TIP3    H124766   2.772   5.810   4.124  0.4438 -0.2549 -0.4690
 1117TIP3    H224767   2.902   5.884   4.099 -0.4771  1.1540 -1.1828
 1118TIP3   OH224768   3.228   5.240   5.353  0.2526  0.1197  0.1448
 1118TIP3    H124769   3.295   5.290   5.305 -1.9676  2.1895 -1.0209
 1118TIP3    H224770   3.159   5.224   5.288 -1.3299 -0.0488  1.7780
 1119TIP3   OH224771   4.269   1.379   4.375 -0.8213  0.4333 -0.2513
 1119TIP3    H124772   4.301   1.376   4.285  0.0923 -1.6487  0.0834
 1119TIP3    H224773   4.175   1.395   4.367 -0.7313  0.4033 -1.5585
 1120TIP3   OH224774   4.846   1.459   5.058 -0.3843 -0.2962 -0.1748
 1120TIP3    H124775   4.880   1.381   5.014  1.7786 -0.0127  0.8760
 1120TIP3    H224776   4.830   1.521   4.987  4.3103  0.6529 -0.7259
 1121TIP3   OH224777   1.252   0.177  12.383  0.1743 -0.1941 -0.3019
 1121TIP3    H124778   1.309   0.142  12.451 -0.8908  1.8628  1.7794
 1121TIP3    H224779   1.274   0.270  12.377 -2.1066  0.4196 -0.2265
 1122TIP3   OH224780   1.344   1.175   6.459  0.0145 -0.1544 -0.0114
 1122TIP3    H124781   1.273   1.202   6.516  0.3788 -0.9813  0.8710
 1122TIP3    H224782   1.301   1.144   6.380 -0.4739  1.5006 -0.4264
 1123TIP3   OH224783   4.098   5.412   4.079  0.3691 -0.5199  0.1739
 1123TIP3    H124784   4.153   5.337   4.054 -1.0143 -1.2905 -0.6910
 1123TIP3    H224785   4.056   5.439   3.997  0.8167  1.2218  0.4672
 1124TIP3   OH224786   0.595   4.260   2.293  0.1292  0.4545 -0.5651
 1124TIP3    H124787   0.595   4.211   2.375  0.5498 -1.2767 -1.5590
 1124TIP3    H224788   0.687   4.263   2.267 -0.1640 -0.3797 -1.7436
 1125TIP3   OH224789   1.691   5.176   3.765 -0.0822  0.0484  0.0757
 1125TIP3    H124790   1.704   5.156   3.857  2.5198 -1.1572 -0.4615
 1125TIP3    H224791   1.619   5.120   3.738 -2.6766  2.2431  1.8227
 1126TIP3   OH224792   4.984   2.620  16.425 -0.0901  0.1093 -0.4246
 1126TIP3    H124793   4.955   2.572  16.502 -0.0425 -0.1568 -0.5720
 1126TIP3    H224794   5.077   2.600  16.417 -0.2349 -0.3959 -0.9276
 1127TIP3   OH224795   4.995   1.877  14.997  0.2534  0.3893 -0.1516
 1127TIP3    H124796   4.930   1.808  14.988  0.5431  0.3017 -2.0685
 1127TIP3    H224797   5.078   1.834  14.978  0.9250  0.5199  2.1819
 1128TIP3   OH224798   0.125   2.146  12.475  1.0548 -0.4236  0.6136
 1128TIP3    H124799   0.081   2.140  12.390 -0.4892  0.2586  1.3340
 1128TIP3    H224800   0.202   2.201  12.457 -0.1234  1.0902 -0.0465
 1129TIP3   OH224801   6.124   1.398   5.316 -0.1918  0.0881 -0.2091
 1129TIP3    H124802   6.080   1.470   5.360  0.3756  0.0187  0.4852
 1129TIP3    H224803   6.099   1.320   5.367 -1.0705 -0.2770 -1.1427
 1130TIP3   OH224804   3.070   1.922  13.905 -0.2945 -0.1744  0.0713
 1130TIP3    H124805   3.045   1.851  13.845  1.2667  0.5903 -1.5788
 1130TIP3    H224806   3.054   2.002  13.855 -1.3434  0.6264  1.6439
 1131TIP3   OH224807   1.331   2.521   4.790  0.0966  0.1437  0.3399
 1131TIP3    H124808   1.286   2.541   4.872  1.7550  0.7614  1.1477
 1131TIP3    H224809   1.387   2.597   4.774  1.0070 -0.6739 -0.4938
 1132TIP3   OH224810   2.040   1.709  11.047 -0.3778  0.3653  0.1962
 1132TIP3    H124811   2.036   1.751  10.962  0.4965  1.0752  0.4947
 1132TIP3    H224812   1.967   1.746  11.097 -0.3327  0.6336  0.0608
 1133TIP3   OH224813   3.626   3.993   1.806  0.3116 -0.0778 -0.5714
 1133TIP3    H124814   3.576   3.912   1.798 -0.2010  0.2437 -0.6533
 1133TIP3    H224815   3.617   4.018   1.898  0.8052 -0.3207 -0.4502
 1134TIP3   OH224816   0.210   6.139  13.554 -0.1916 -0.3602  0.2993
 1134TIP3    H124817   0.125   6.169  13.522  0.2963  2.4019  1.2590
 1134TIP3    H224818   0.195   6.116  13.645  0.0770  0.1168  0.4664
 1135TIP3   OH224819   4.193   1.546   5.022 -0.3696  0.3080  0.1703
 1135TIP3    H124820   4.287   1.540   5.006 -0.5192 -1.3480 -0.2305
 1135TIP3    H224821   4.156   1.472   4.974 -2.1065  2.0490 -1.3587
 1136TIP3   OH224822   0.743   0.109   6.222  0.0486  0.2798  0.2431
 1136TIP3    H124823   0.729   0.197   6.256  0.2862  0.2029  0.5518
 1136TIP3    H224824   0.821   0.078   6.269  0.7270  0.3856 -0.7826
 1137TIP3   OH224825   5.918   4.737  11.514 -0.4599  0.3103 -0.2398
 1137TIP3    H124826   5.839   4.691  11.485 -1.3873  0.2474  2.1774
 1137TIP3    H224827   5.889   4.827  11.530  0.1567  0.5029 -0.1718
 1138TIP3   OH224828   1.234   0.717  15.254 -0.2731  0.3977  0.4461
 1138TIP3    H124829   1.203   0.763  15.332 -0.0088 -0.4160  1.0438
 1138TIP3    H224830   1.282   0.783  15.204  0.2248  0.7304  1.3588
 1139TIP3   OH224831   5.720   4.407   0.470 -0.5854  0.2488  0.0690
 1139TIP3    H124832   5.802   4.414   0.519  0.1049  0.9604 -1.1228
 1139TIP3    H224833   5.736   4.457   0.390 -1.3779 -1.5154 -1.2643
 1140TIP3   OH224834   2.746   2.367   1.810 -0.4913  0.1516 -0.6134
 1140TIP3    H124835   2.836   2.374   1.777 -0.4232 -0.6598 -0.6247
 1140TIP3    H224836   2.694   2.421   1.751 -0.0666  0.3168 -0.8393
 1141TIP3   OH224837   4.071   0.194  13.691  0.1234 -0.2144  0.1635
 1141TIP3    H124838   3.994   0.168  13.641  0.1132 -1.0241  0.5819
 1141TIP3    H224839   4.135   0.126  13.673  0.3770 -0.1052  0.6385
 1142TIP3   OH224840   1.492   3.465  16.648 -0.1822 -0.1905  0.1730
 1142TIP3    H124841   1.564   3.433  16.594 -1.1574  0.0730 -1.3561
 1142TIP3    H224842   1.424   3.398  16.640 -0.0017 -0.6272  1.9103
 1143TIP3   OH224843   4.977   1.052   2.528 -0.3998  0.2487 -0.2872
 1143TIP3    H124844   5.032   1.033   2.604 -0.2463  0.8554 -0.2416
 1143TIP3    H224845   4.975   0.970   2.479  0.9167  0.3386 -0.5234
 1144TIP3   OH224846   0.417   2.943   4.715  0.0847 -0.5213  0.5887
 1144TIP3    H124847   0.432   3.005   4.644 -1.1063 -1.0503 -0.1557
 1144TIP3    H224848   0.376   2.995   4.784  0.0434 -0.2637  0.3720
 1145TIP3   OH224849   4.149   3.918  16.415 -0.0191 -0.6196 -0.4946
 1145TIP3    H124850   4.201   3.892  16.339  0.9509 -0.1658 -0.0067
 1145TIP3    H224851   4.198   3.991  16.454 -1.0968 -0.0832 -0.0925
 1146TIP3   OH224852   1.976   3.884   5.318  0.1877 -0.2656  0.2735
 1146TIP3    H124853   1.983   3.808   5.376 -0.5979 -0.1455  0.5356
 1146TIP3    H224854   1.990   3.960   5.375 -1.9999 -0.0689  0.6273
 1147TIP3   OH224855   1.545   5.263   5.259  0.3215 -1.0845  0.4018
 1147TIP3    H124856   1.456   5.228   5.261  0.2179 -1.0426 -1.3913
 1147TIP3    H224857   1.542   5.341   5.314 -0.8677 -0.8516  0.0268
 1148TIP3   OH224858   2.867   0.047  16.688 -0.0263 -0.0205  0.4860
 1148TIP3    H124859   2.829  -0.016  16.750  0.9317 -0.8825  0.2198
 1148TIP3    H224860   2.911  -0.006  16.623 -0.9808  0.8789 -0.9532
 1149TIP3   OH224861   0.180   1.442   2.579 -0.4745  0.2183  0.6227
 1149TIP3    H124862   0.220   1.356   2.594 -0.3935  0.4047  1.5195
 1149TIP3    H224863   0.255   1.501   2.570 -0.4511 -0.0621 -1.9700
 1150TIP3   OH224864   1.042   2.116   2.891 -0.6361 -0.9402 -0.2946
 1150TIP3    H124865   1.051   2.060   2.814 -0.8738 -0.2898 -0.8123
 1150TIP3    H224866   1.132   2.137   2.915 -0.5626  0.2089 -1.4395
 1151TIP3   OH224867   6.546   5.642   4.961  0.2650 -0.4131 -0.5488
 1151TIP3    H124868   6.561   5.550   4.982 -0.0845 -0.3608 -0.0606
 1151TIP3    H224869   6.493   5.675   5.033  0.7717  0.2914 -0.4845
 1152TIP3   OH224870   0.302   2.044   4.199  0.3181 -0.6389 -0.2015
 1152TIP3    H124871   0.225   1.994   4.172  0.2768 -0.9205  0.4301
 1152TIP3    H224872   0.307   2.032   4.294 -0.6739  1.9159  0.2526
 1153TIP3   OH224873   5.207   3.722   2.381  0.1301  0.0598 -0.2450
 1153TIP3    H124874   5.284   3.774   2.402  0.3056  0.0894 -0.9197
 1153TIP3    H224875   5.238   3.659   2.315 -0.2960 -0.2782 -0.1269
 1154TIP3   OH224876   5.157   0.492   5.780 -0.0217  0.4555  0.3083
 1154TIP3    H124877   5.182   0.402   5.760 -0.6113  0.4145 -0.3002
 1154TIP3    H224878   5.233   0.544   5.755  0.3428  0.1219  0.7153
 1155TIP3   OH224879   4.489   6.167  14.216 -0.1344  0.4279 -0.1590
 1155TIP3    H124880   4.529   6.120  14.143 -2.8346  0.4250 -1.7548
 1155TIP3    H224881   4.550   6.153  14.289  1.4251 -1.6846 -1.7195
 1156TIP3   OH224882   3.832   5.156   0.580  0.0891 -0.1868  0.1212
 1156TIP3    H124883   3.854   5.065   0.598  2.3050  0.3986  0.6457
 1156TIP3    H224884   3.912   5.193   0.543 -0.6114  1.6611  0.3593
 1157TIP3   OH224885   5.396   3.899   5.644 -0.1853  0.1489 -0.2719
 1157TIP3    H124886   5.449   3.820   5.651  1.1536  1.1142  1.2956
 1157TIP3    H224887   5.322   3.884   5.702 -1.0631 -0.7208 -1.5486
 1158TIP3   OH224888   2.172   4.785   0.462 -0.1484 -0.2944  0.1163
 1158TIP3    H124889   2.202   4.778   0.552  1.9779 -2.6446 -0.6488
 1158TIP3    H224890   2.153   4.878   0.449  0.5895  0.2656  2.6045
 1159TIP3   OH224891   1.830   5.688   6.443 -0.0597  0.4705  0.4971
 1159TIP3    H124892   1.877   5.630   6.383  0.5920  0.9481  0.5346
 1159TIP3    H224893   1.880   5.684   6.524  0.7999  2.1230  0.0888
 1160TIP3   OH224894   3.242   3.812   5.990  0.2173  0.7408  0.6270
 1160TIP3    H124895   3.278   3.726   5.971 -3.3067 -0.7853  0.0665
 1160TIP3    H224896   3.201   3.839   5.907 -2.1575  1.0536  1.8269
 1161TIP3   OH224897   3.794   1.112  16.005  0.1198 -0.3473  0.1329
 1161TIP3    H124898   3.759   1.126  16.093  0.1811  1.4054 -0.0906
 1161TIP3    H224899   3.869   1.172  15.999 -1.5954  1.7686 -2.0654
 1162TIP3   OH224900   1.037   5.343   5.448 -0.3752 -0.1222  0.2855
 1162TIP3    H124901   0.970   5.381   5.390 -0.5382  1.1338  1.2473
 1162TIP3    H224902   0.989   5.322   5.528 -0.7873 -4.5282 -0.8781
 1163TIP3   OH224903   1.425   6.666   4.918 -0.0825 -0.1661 -0.1975
 1163TIP3    H124904   1.439   6.698   5.007  2.6408  0.3104 -0.7130
 1163TIP3    H224905   1.465   6.579   4.917 -0.2377 -0.2388 -0.9046
 1164TIP3   OH224906   4.012   0.467  12.442 -0.2903 -0.3677  0.1960
 1164TIP3    H124907   3.983   0.389  12.489  0.7451 -1.3158 -0.6635
 1164TIP3    H224908   3.940   0.488  12.383  0.1618 -1.8926 -0.9802
 1165TIP3   OH224909   5.924   2.489  11.920  0.7308  0.1575 -0.6354
 1165TIP3    H124910   5.932   2.572  11.967 -0.1476  0.8810 -1.7116
 1165TIP3    H224911   5.958   2.509  11.832  0.6985 -0.6814 -0.8398
 1166TIP3   OH224912   0.624   1.804  15.159  0.0004 -0.1909  0.3519
 1166TIP3    H124913   0.635   1.709  15.154  3.0242 -0.0304  2.0037
 1166TIP3    H224914   0.661   1.837  15.077 -1.4225 -0.4094 -0.4062
 1167TIP3   OH224915   5.957   2.480   0.412 -0.0201  0.2102 -0.1647
 1167TIP3    H124916   5.983   2.570   0.392  0.7327 -0.1550 -0.8971
 1167TIP3    H224917   5.948   2.438   0.326 -0.1715 -0.4633  0.1734
 1168TIP3   OH224918   2.881   6.360   0.473  0.1212 -0.4279  0.5684
 1168TIP3    H124919   2.813   6.373   0.407  1.0352  0.5448 -0.2351
 1168TIP3    H224920   2.928   6.282   0.444  1.3469  0.7276 -0.7447
 1169TIP3   OH224921   6.424   1.159  10.302 -0.2458 -0.4857 -0.4852
 1169TIP3    H124922   6.397   1.074  10.337 -1.6914  0.1912  0.1050
 1169TIP3    H224923   6.352   1.187  10.246  1.2192 -0.6582 -2.5707
 1170TIP3   OH224924   1.284   0.317  16.756  0.1269  0.3732 -0.4763
 1170TIP3    H124925   1.351   0.252  16.778 -0.2841  0.6451  1.7480
 1170TIP3    H224926   1.220   0.269  16.704  0.2480 -0.8004  0.4315
 1171TIP3   OH224927   4.907   4.802   3.123 -0.3357 -0.0470 -0.5189
 1171TIP3    H124928   4.961   4.868   3.167 -0.4643 -0.0934 -0.2895
 1171TIP3    H224929   4.968   4.731   3.101 -0.2889 -0.0615 -0.3380
 1172TIP3   OH224930   4.407   1.777   0.984  0.3649  0.1816 -0.2870
 1172TIP3    H124931   4.454   1.749   0.905  1.0678 -1.8746  0.7760
 1172TIP3    H224932   4.371   1.863   0.961  0.0288 -0.5707 -3.0495
 1173TIP3   OH224933   2.884   4.615  12.824  0.3573  0.0244  0.4889
 1173TIP3    H124934   2.973   4.584  12.838  0.4222 -0.5880 -1.1597
 1173TIP3    H224935   2.868   4.675  12.898  3.0525  2.2285 -0.5517
 1174TIP3   OH224936   2.649   4.624   0.231  0.1554  0.0462 -0.1187
 1174TIP3    H124937   2.610   4.542   0.261 -0.4290  0.5784  0.6220
 1174TIP3    H224938   2.628   4.687   0.299  1.3294  0.6319 -0.2668
 1175TIP3   OH224939   3.969   1.245   3.153 -0.0497  0.5923  0.2883
 1175TIP3    H124940   3.977   1.305   3.079  1.6711  0.5080  0.3624
 1175TIP3    H224941   3.946   1.161   3.113 -0.9547  0.9358  0.0472
 1176TIP3   OH224942   2.154   6.255  12.566 -0.2059 -0.2036 -0.1548
 1176TIP3    H124943   2.213   6.277  12.494 -1.5917  0.7046 -1.0514
 1176TIP3    H224944   2.106   6.336  12.584 -1.3348 -0.9705  0.3918
 1177TIP3   OH224945   6.120   4.169   2.077 -0.1288 -0.0016 -0.1924
 1177TIP3    H124946   6.153   4.134   1.995 -0.6967  0.5688 -0.6765
 1177TIP3    H224947   6.151   4.108   2.144  0.0866 -0.6319 -0.8608
 1178TIP3   OH224948   1.033   4.956  11.813 -0.0466  0.2369  0.2019
 1178TIP3    H124949   1.019   4.928  11.904  0.4151  0.6573  0.4077
 1178TIP3    H224950   1.061   5.047  11.820  3.2278 -0.6127 -0.0880
 1179TIP3   OH224951   6.572   4.462   4.178  0.4096  0.7446  0.1651
 1179TIP3    H124952   6.643   4.526   4.173 -0.0843  1.2350 -0.7403
 1179TIP3    H224953   6.493   4.511   4.156 -0.2093  0.1703  0.9994
 1180TIP3   OH224954   0.936   3.014   5.027 -0.5724 -0.0826  0.3929
 1180TIP3    H124955   0.856   2.966   5.007  0.7085 -1.1682 -2.6789
 1180TIP3    H224956   0.977   3.029   4.942  2.5941  0.2224  1.8374
 1181TIP3   OH224957   4.790   2.461   5.418  0.1777 -0.1676  0.2616
 1181TIP3    H124958   4.816   2.369   5.415  0.4187 -0.0805 -0.7134
 1181TIP3    H224959   4.862   2.505   5.465 -0.9329 -0.7590  2.6770
 1182TIP3   OH224960   0.705   4.246  17.228  0.0785 -0.2916 -0.4273
 1182TIP3    H124961   0.632   4.307  17.224  0.3088 -0.0949 -2.2642
 1182TIP3    H224962   0.750   4.255  17.144  1.5242 -1.2667  0.1893
 1183TIP3   OH224963   5.558   1.647  16.976  0.2199 -0.3642 -0.0124
 1183TIP3    H124964   5.494   1.636  17.048 -0.5134 -0.4601 -0.6629
 1183TIP3    H224965   5.641   1.621  17.015  0.1034  0.9587  1.2291
 1184TIP3   OH224966   2.500   1.315   2.125  0.7270 -0.4011  0.1767
 1184TIP3    H124967   2.564   1.376   2.088 -1.0473  1.8438  0.5510
 1184TIP3    H224968   2.474   1.260   2.051  3.0996 -1.4684  0.0478
 1185TIP3   OH224969   3.050   2.589  11.773  0.3224  0.2340  0.5864
 1185TIP3    H124970   2.962   2.617  11.798  0.1512 -0.8872  1.2925
 1185TIP3    H224971   3.085   2.548  11.852  1.4099  0.4944  0.2556
 1186TIP3   OH224972   6.697   4.351  11.972  0.6735  0.2476 -0.2658
 1186TIP3    H124973   6.792   4.348  11.983  0.5768  1.6944  1.4099
 1186TIP3    H224974   6.665   4.276  12.021  0.9094  0.2660 -0.0797
 1187TIP3   OH224975   5.059   4.563  16.146 -0.5301  0.5491 -0.2508
 1187TIP3    H124976   5.148   4.538  16.122 -0.7885  2.1133 -3.1968
 1187TIP3    H224977   5.008   4.483  16.134  0.0857  0.2441 -0.9075
 1188TIP3   OH224978   1.269   1.946  15.396  0.6527 -0.2103 -0.8217
 1188TIP3    H124979   1.317   1.879  15.348 -0.1433  0.4481 -2.6107
 1188TIP3    H224980   1.325   2.024  15.391  1.2325 -0.4827  0.6249
 1189TIP3   OH224981   2.972   4.562   4.083 -0.6965 -0.3042  0.3187
 1189TIP3    H124982   3.012   4.648   4.094 -0.0557 -0.7484  1.8723
 1189TIP3    H224983   2.885   4.571   4.120  0.4025 -1.0080  3.4120
 1190TIP3   OH224984   2.348   2.605   2.882  0.2923 -0.1043  0.5386
 1190TIP3    H124985   2.270   2.658   2.865  1.3310  1.1550 -0.4091
 1190TIP3    H224986   2.323   2.517   2.853 -0.9359  0.1781  0.6863
 1191TIP3   OH224987   6.088   0.272   6.383 -0.3178  0.2262 -0.5740
 1191TIP3    H124988   6.030   0.296   6.310  0.4468 -2.2796 -2.1555
 1191TIP3    H224989   6.172   0.252   6.341  0.3336 -0.6701  1.0757
 1192TIP3   OH224990   3.757   0.274   3.463  0.3345 -0.3064  0.0832
 1192TIP3    H124991   3.680   0.332   3.466 -0.3564 -1.1700 -0.6146
 1192TIP3    H224992   3.804   0.301   3.385  0.8510  0.3351  0.6012
 1193TIP3   OH224993   0.836   5.021   1.192 -0.2539 -0.8232 -0.0953
 1193TIP3    H124994   0.900   5.024   1.121 -0.8323 -1.1249 -0.6410
 1193TIP3    H224995   0.753   5.045   1.150 -0.3785  0.3167  0.7534
 1194TIP3   OH224996   2.441   0.870  16.872 -0.1014 -0.1180 -0.1092
 1194TIP3    H124997   2.372   0.898  16.932 -0.2648 -2.4297  0.9108
 1194TIP3    H224998   2.520   0.915  16.901 -0.4888 -0.0831  0.9087
 1195TIP3   OH224999   3.463   3.840  13.533 -0.4897  0.0897  0.3467
 1195TIP3    H125000   3.495   3.926  13.563 -0.4293  1.0652 -2.2905
 1195TIP3    H225001   3.400   3.814  13.600 -0.7998  2.3795  1.0341
 1196TIP3   OH225002   4.474   1.937  11.375 -0.3290  0.9489 -0.6486
 1196TIP3    H125003   4.458   1.848  11.409  1.1032  1.4320  1.5069
 1196TIP3    H225004   4.566   1.953  11.394 -0.5580  2.8825 -1.0458
 1197TIP3   OH225005   2.719   6.033   4.760 -0.2569 -0.0267 -0.1628
 1197TIP3    H125006   2.752   5.952   4.799 -0.2891  0.0738  0.0780
 1197TIP3    H225007   2.750   6.102   4.819  0.5319  0.2196 -0.8632
 1198TIP3   OH225008   0.305   4.730   3.586  0.1701 -0.3616  0.6436
 1198TIP3    H125009   0.293   4.825   3.575 -1.2721 -0.6584 -0.8065
 1198TIP3    H225010   0.328   4.719   3.679  0.9866  1.4419  0.6903
 1199TIP3   OH225011   4.025   4.722   5.519 -0.0717 -0.4677 -0.0896
 1199TIP3    H125012   3.942   4.688   5.552 -0.1437 -1.8909 -1.6449
 1199TIP3    H225013   4.002   4.772   5.441  0.1559  2.5096  1.5614
 1200TIP3   OH225014   4.899   0.671  12.311  0.1422  0.3743 -0.9339
 1200TIP3    H125015   4.805   0.677  12.294 -0.1633 -1.5088 -0.2685
 1200TIP3    H225016   4.918   0.746  12.368 -0.9921  0.6986 -0.9529
 1201TIP3   OH225017   0.473   5.652   0.962  0.5131 -0.6567 -0.1093
 1201TIP3    H125018   0.377   5.647   0.959  0.4673 -0.7994  1.0267
 1201TIP3    H225019   0.491   5.740   0.994  0.7109 -1.0621  0.9373
 1202TIP3   OH225020   0.499   1.346   2.826  0.2898 -0.1588  0.9474
 1202TIP3    H125021   0.484   1.396   2.746 -0.8172 -2.3191 -0.3079
 1202TIP3    H225022   0.444   1.390   2.892  1.7473  2.0618  0.7821
 1203TIP3   OH225023   5.766   2.028  15.505  0.5026 -0.6811  0.0831
 1203TIP3    H125024   5.704   2.005  15.574  0.0331  0.4121  0.0431
 1203TIP3    H225025   5.721   2.008  15.424 -0.1466  0.8524  0.0289
 1204TIP3   OH225026   1.509   4.528   4.172  0.4702  0.5955  0.2741
 1204TIP3    H125027   1.496   4.461   4.105  2.4555  0.4027  0.0297
 1204TIP3    H225028   1.601   4.551   4.166  0.3581  1.6771  1.9376
 1205TIP3   OH225029   1.423   3.750   3.801 -0.7881  0.1333 -0.1055
 1205TIP3    H125030   1.446   3.701   3.723 -0.2880 -0.6425  0.5189
 1205TIP3    H225031   1.462   3.702   3.873 -0.1350  1.5368  0.5234
 1206TIP3   OH225032   3.889   6.280  13.523 -0.5545 -0.2876  0.2481
 1206TIP3    H125033   3.941   6.207  13.489 -1.4943 -0.3376 -1.1496
 1206TIP3    H225034   3.947   6.323  13.586  1.1932 -0.3321 -1.2530
 1207TIP3   OH225035   5.270   5.424   4.962 -0.0624 -0.2532  0.4337
 1207TIP3    H125036   5.210   5.397   4.893 -0.0781  0.9231 -0.0381
 1207TIP3    H225037   5.282   5.346   5.015 -2.9864 -0.2431  1.2837
 1208TIP3   OH225038   4.722   0.892  15.147  0.1446 -0.6593  0.2941
 1208TIP3    H125039   4.751   0.948  15.220 -2.0706 -1.7528  2.1554
 1208TIP3    H225040   4.803   0.852  15.115  1.4189  1.2337  0.9115
 1209TIP3   OH225041   0.473   0.826   5.335 -0.2403  0.2583 -0.0102
 1209TIP3    H125042   0.393   0.785   5.301  0.0795  0.2473 -0.7504
 1209TIP3    H225043   0.536   0.818   5.264  0.3616  0.4544  0.5002
 1210TIP3   OH225044   1.682   2.902  15.006 -0.1244 -0.3381 -0.2168
 1210TIP3    H125045   1.656   2.966  14.939  2.0119 -0.4417 -1.2085
 1210TIP3    H225046   1.739   2.950  15.065 -0.0436 -0.8494  0.1311
 1211TIP3   OH225047   1.224   4.903   4.334  0.1592  0.4857  0.2914
 1211TIP3    H125048   1.269   4.958   4.398 -1.9099  0.0273  2.2593
 1211TIP3    H225049   1.257   4.815   4.350  1.4035  0.6815 -0.9718
 1212TIP3   OH225050   3.508   6.497  14.434 -0.7111 -0.0322  0.0642
 1212TIP3    H125051   3.577   6.545  14.388  0.9621 -1.3988  1.0270
 1212TIP3    H225052   3.502   6.540  14.520 -1.3305  0.3096 -0.1461
 1213TIP3   OH225053   5.317   4.136   1.026  0.2495 -0.1333 -0.4910
 1213TIP3    H125054   5.302   4.181   1.109 -2.2759  1.0755 -1.5174
 1213TIP3    H225055   5.249   4.069   1.022  1.5587 -1.5093 -0.7594
 1214TIP3   OH225056   1.801   2.696  10.739 -0.2581 -0.4567  0.3100
 1214TIP3    H125057   1.834   2.698  10.649 -1.0999  0.6785  0.0128
 1214TIP3    H225058   1.781   2.787  10.759 -1.8630 -0.9363  0.9739
 1215TIP3   OH225059   1.210   3.242  14.652 -0.2205 -0.0218  0.1696
 1215TIP3    H125060   1.172   3.267  14.568  1.0089  0.4656 -0.2582
 1215TIP3    H225061   1.142   3.189  14.694 -0.8391 -0.3149 -1.1474
 1216TIP3   OH225062   4.687   5.464   2.526  0.4061 -0.9118  0.1252
 1216TIP3    H125063   4.760   5.493   2.471  0.9030 -3.6770 -0.8364
 1216TIP3    H225064   4.723   5.391   2.577 -1.2764 -1.3338  0.7667
 1217TIP3   OH225065   6.185   0.627   2.225 -0.0214  0.5842  0.2472
 1217TIP3    H125066   6.255   0.662   2.280  1.3023 -0.8008 -0.5068
 1217TIP3    H225067   6.125   0.585   2.287  1.1975 -0.5191  0.7227
 1218TIP3   OH225068   2.529   1.371   2.382  0.2966 -0.3066 -0.4645
 1218TIP3    H125069   2.605   1.429   2.385 -0.7555  1.2461 -1.8287
 1218TIP3    H225070   2.516   1.354   2.288 -2.0418  0.8927 -0.4119
 1219TIP3   OH225071   6.512   6.574  15.021 -0.6231  0.2784 -0.1951
 1219TIP3    H125072   6.600   6.547  15.048 -1.0075 -0.3046  0.5254
 1219TIP3    H225073   6.509   6.668  15.037 -1.0194 -0.1038  2.4547
 1220TIP3   OH225074   3.333   5.365   4.011 -0.5631  0.0866  0.1063
 1220TIP3    H125075   3.331   5.393   4.102 -1.1013 -0.1677  0.1763
 1220TIP3    H225076   3.402   5.418   3.971 -0.0619 -0.0763  0.7454
 1221TIP3   OH225077   6.648   6.612  17.159  0.3948  0.3941  0.2676
 1221TIP3    H125078   6.619   6.535  17.207 -1.9650  1.3431  0.5294
 1221TIP3    H225079   6.670   6.579  17.072 -1.6050 -0.4905  0.0291
 1222TIP3   OH225080   1.970   2.670   2.779 -0.5159 -0.1647  0.1959
 1222TIP3    H125081   2.043   2.727   2.802  0.6043 -2.0090  1.5178
 1222TIP3    H225082   1.939   2.636   2.863 -1.4551 -1.1023 -0.4981
 1223TIP3   OH225083   3.755   5.364  15.424  0.1186  0.0446 -0.3312
 1223TIP3    H125084   3.799   5.427  15.481  1.2616 -0.7197 -0.3292
 1223TIP3    H225085   3.719   5.299  15.484  1.5296 -0.8908 -0.4436
 1224TIP3   OH225086   5.731   1.788   4.895 -0.1278 -0.0931  0.2890
 1224TIP3    H125087   5.797   1.857   4.905  0.5979 -0.6832 -0.2716
 1224TIP3    H225088   5.648   1.831   4.916  0.4357  0.6535  1.0568
 1225TIP3   OH225089   1.174   5.074  10.671  0.3400 -0.3395 -0.4201
 1225TIP3    H125090   1.227   5.102  10.596  0.5163  0.2017 -0.0959
 1225TIP3    H225091   1.177   5.148  10.731  0.1059 -0.7302  0.0747
 1226TIP3   OH225092   2.413   4.648   0.012  0.1322 -0.0773  0.7843
 1226TIP3    H125093   2.366   4.577   0.055  0.9949 -0.3367  1.3296
 1226TIP3    H225094   2.435   4.708   0.083  0.1568  0.3079  0.4548
 1227TIP3   OH225095   3.973   5.071  10.867  0.6389  0.2048 -0.0717
 1227TIP3    H125096   4.031   5.090  10.794  1.5438  2.2266  1.0791
 1227TIP3    H225097   3.931   4.988  10.844  2.7412 -0.4917 -1.7192
 1228TIP3   OH225098   3.007   0.474  12.654 -0.2726  0.4569  0.3859
 1228TIP3    H125099   3.041   0.405  12.711 -0.1586  1.7678  1.9947
 1228TIP3    H225100   2.980   0.429  12.574 -0.4358 -1.4787  1.4776
 1229TIP3   OH225101   5.867   4.085  14.974  0.2799 -0.1758 -0.0038
 1229TIP3    H125102   5.853   4.030  14.897 -0.4488 -0.4156  0.2943
 1229TIP3    H225103   5.898   4.024  15.041 -1.0028 -0.3327  0.4745
 1230TIP3   OH225104   2.968   5.495  12.234  0.4648 -0.7289  0.2360
 1230TIP3    H125105   2.994   5.464  12.320  0.6030  2.2359  1.3697
 1230TIP3    H225106   2.977   5.590  12.239  1.0409 -0.4650 -3.2489
 1231TIP3   OH225107   5.604   1.355  12.113 -0.3433  0.5210 -0.0115
 1231TIP3    H125108   5.600   1.439  12.068 -0.3887 -0.8461 -2.7343
 1231TIP3    H225109   5.698   1.336  12.121 -0.3372  0.1880 -0.7586
 1232TIP3   OH225110   4.942   0.871  14.710  0.4027  0.8287  0.2879
 1232TIP3    H125111   5.033   0.899  14.706  0.5925  0.1053 -0.8775
 1232TIP3    H225112   4.933   0.809  14.638 -1.4477  2.1649 -0.7129
 1233TIP3   OH225113   3.938   1.963  15.488 -0.3645  0.1230  0.5879
 1233TIP3    H125114   4.020   2.005  15.463 -0.5014 -0.1111 -0.3266
 1233TIP3    H225115   3.962   1.873  15.510 -0.3411  0.1174  0.5403
 1234TIP3   OH225116   3.446   1.341   3.280  0.2287  0.0380 -0.3946
 1234TIP3    H125117   3.436   1.304   3.192 -0.5024  1.0570 -0.7588
 1234TIP3    H225118   3.362   1.326   3.322  0.4096  0.0083 -0.0414
 1235TIP3   OH225119   1.644   2.497   2.144 -0.6352 -0.0698 -0.0133
 1235TIP3    H125120   1.648   2.459   2.232  1.3909 -1.8296 -0.7765
 1235TIP3    H225121   1.565   2.459   2.106  0.1425 -1.8089  0.0229
 1236TIP3   OH225122   3.584   5.216  17.315  0.4208 -0.2279 -0.0442
 1236TIP3    H125123   3.538   5.198  17.397 -0.0998  0.2862 -0.2156
 1236TIP3    H225124   3.604   5.310  17.319 -2.0466  0.4582 -1.6921
 1237TIP3   OH225125   1.348   0.829   2.105 -0.1462 -0.5230  0.1050
 1237TIP3    H125126   1.339   0.739   2.137  1.3310 -1.1673 -1.1305
 1237TIP3    H225127   1.365   0.881   2.184  3.0764 -1.9953  0.5490
 1238TIP3   OH225128   1.316   4.333   0.896  0.0939 -0.7255  0.5020
 1238TIP3    H125129   1.289   4.394   0.964  1.1541  0.0082  0.2946
 1238TIP3    H225130   1.347   4.256   0.944  0.5654 -0.3245  0.8544
 1239TIP3   OH225131   1.736   3.881   0.484 -0.8358 -0.4662  0.0289
 1239TIP3    H125132   1.684   3.801   0.472 -0.7745 -0.3293 -1.3018
 1239TIP3    H225133   1.776   3.896   0.399  0.0123  0.3997  0.5637
 1240TIP3   OH225134   1.105   0.267   1.234 -0.1067 -0.1367 -0.1379
 1240TIP3    H125135   1.049   0.344   1.245 -0.7144 -0.3679 -1.4311
 1240TIP3    H225136   1.063   0.199   1.286 -1.4234 -0.4870 -1.6019
 1241TIP3   OH225137   4.304   0.782  15.354 -0.1554 -0.4710  0.0842
 1241TIP3    H125138   4.380   0.727  15.332 -0.7015 -1.0008 -0.5194
 1241TIP3    H225139   4.314   0.799  15.448  0.8046 -0.3828 -0.0150
 1242TIP3   OH225140   6.058   1.914  11.569 -0.0999  0.3352 -0.1884
 1242TIP3    H125141   6.134   1.927  11.625  0.0926 -0.4361 -0.2565
 1242TIP3    H225142   5.988   1.963  11.612  0.3651  0.8283  0.0214
 1243TIP3   OH225143   0.849   5.344   3.370  0.5848 -0.0336  0.4407
 1243TIP3    H125144   0.913   5.411   3.343  0.3243  0.1750  0.3386
 1243TIP3    H225145   0.886   5.262   3.338  1.8646 -0.2036  2.1960
 1244TIP3   OH225146   6.361   4.906  11.058 -0.9941  0.2983 -0.5210
 1244TIP3    H125147   6.382   4.925  10.967 -0.8241  1.6202 -0.2354
 1244TIP3    H225148   6.427   4.954  11.108 -0.4335 -1.2604  0.3042
 1245TIP3   OH225149   3.125   1.472  12.560  0.2256 -0.2430  0.3301
 1245TIP3    H125150   3.052   1.509  12.510  0.6551  2.1604  1.3480
 1245TIP3    H225151   3.112   1.377  12.554 -1.6085  0.0433 -1.4824
 1246TIP3   OH225152   5.351   6.685   4.096  0.0892  0.2457 -0.0799
 1246TIP3    H125153   5.361   6.606   4.150  0.9571 -0.7918 -1.6837
 1246TIP3    H225154   5.441   6.712   4.078 -0.1466 -0.0377 -1.8226
 1247TIP3   OH225155   4.699   4.087   3.013  0.6098 -0.3418 -0.3599
 1247TIP3    H125156   4.686   4.169   3.061  0.0512  0.5740 -1.9957
 1247TIP3    H225157   4.628   4.031   3.041 -0.2922  0.5433 -0.8224
 1248TIP3   OH225158   2.609   0.392  14.849  0.0289 -0.0839 -0.8996
 1248TIP3    H125159   2.669   0.390  14.923 -0.2559  1.4042 -0.5970
 1248TIP3    H225160   2.531   0.436  14.882  0.3469  1.6947 -2.3819
 1249TIP3   OH225161   4.276   1.947   3.949 -0.1651 -0.3545  0.0449
 1249TIP3    H125162   4.249   1.960   3.858  0.3893 -0.2997 -0.1121
 1249TIP3    H225163   4.266   2.033   3.989 -2.1065 -0.7474  0.4981
 1250TIP3   OH225164   3.657   5.361  16.427 -0.2687 -0.1080  1.0998
 1250TIP3    H125165   3.619   5.432  16.479  1.1557  0.3866  1.5078
 1250TIP3    H225166   3.722   5.404  16.371  0.0477 -0.9880  0.7713
 1251TIP3   OH225167   0.991   0.363  16.805 -0.0716 -0.1915 -0.3196
 1251TIP3    H125168   0.975   0.324  16.891  2.3407 -0.2759  0.1632
 1251TIP3    H225169   0.986   0.458  16.821  0.8275 -0.1952  0.0399
 1252TIP3   OH225170   2.871   1.080   2.586 -0.4049 -0.2201 -0.3394
 1252TIP3    H125171   2.941   1.145   2.574  2.1020 -2.5091  0.7628
 1252TIP3    H225172   2.872   1.060   2.679 -1.0446 -1.8806 -0.6486
 1253TIP3   OH225173   3.272   2.215   0.807  0.0870  0.2498 -0.0068
 1253TIP3    H125174   3.275   2.225   0.712 -1.2332  0.6548 -0.0266
 1253TIP3    H225175   3.200   2.272   0.835 -0.3774 -0.8271  1.0885
 1254TIP3   OH225176   1.153   1.227  15.351  0.3523  0.0603 -0.0755
 1254TIP3    H125177   1.183   1.316  15.366 -1.8803  0.7831  0.4891
 1254TIP3    H225178   1.072   1.236  15.302 -0.2426 -1.6113  0.5052
 1255TIP3   OH225179   6.650   3.541  12.923  0.0204 -0.3585  0.0074
 1255TIP3    H125180   6.608   3.498  12.849  1.0860 -0.2560 -0.6687
 1255TIP3    H225181   6.696   3.616  12.885  0.3542 -0.1424  0.8071
 1256TIP3   OH225182   2.167   1.098  14.983 -0.0877 -0.0936  0.3345
 1256TIP3    H125183   2.151   1.191  14.994  0.1792  0.0373 -0.3472
 1256TIP3    H225184   2.094   1.068  14.928  1.2063  0.2415 -1.6568
 1257TIP3   OH225185   0.583   0.982   2.090 -0.1265  0.0970 -0.3940
 1257TIP3    H125186   0.561   0.898   2.049 -0.6769 -0.7626  1.5144
 1257TIP3    H225187   0.501   1.010   2.132  0.4112  0.8739  0.1660
 1258TIP3   OH225188   1.763   3.843   5.491  0.4182 -0.7507  0.1374
 1258TIP3    H125189   1.808   3.852   5.407  1.1834 -2.1832  0.3600
 1258TIP3    H225190   1.777   3.927   5.535  0.4068 -0.1559 -0.9735
 1259TIP3   OH225191   5.856   5.161   0.663  0.2289 -0.7575 -0.0475
 1259TIP3    H125192   5.911   5.149   0.740  0.4016  0.5128  0.0575
 1259TIP3    H225193   5.819   5.075   0.645  1.6626 -1.4676  0.3276
 1260TIP3   OH225194   2.187   2.945  12.975  0.3259  0.0309 -0.3659
 1260TIP3    H125195   2.221   3.004  13.042 -0.6684 -0.5704  0.7039
 1260TIP3    H225196   2.239   2.865  12.985 -0.8347 -0.6208  0.7739
 1261TIP3   OH225197   0.045   2.258  11.066 -0.3309  0.3666 -0.2737
 1261TIP3    H125198   0.136   2.285  11.077 -0.1675 -1.0310  2.3837
 1261TIP3    H225199   0.049   2.179  11.013 -0.0086  0.3755 -0.2631
 1262TIP3   OH225200   5.943   2.157  12.617  0.0509 -0.0126 -0.2734
 1262TIP3    H125201   6.007   2.190  12.555  0.3664  0.0067  0.0583
 1262TIP3    H225202   5.989   2.087  12.665  1.5906  3.1339  3.4000
 1263TIP3   OH225203   0.124   0.395  16.764 -0.2746  0.1906  0.6620
 1263TIP3    H125204   0.176   0.471  16.741  0.8083  0.3929  3.3562
 1263TIP3    H225205   0.099   0.410  16.856 -0.5772 -2.3738  1.0821
 1264TIP3   OH225206   5.078   0.680   2.597 -0.0583 -0.3816  0.1595
 1264TIP3    H125207   5.024   0.731   2.536 -0.3629  0.2256  0.9188
 1264TIP3    H225208   5.045   0.591   2.589 -0.2899 -0.2553 -0.3520
 1265TIP3   OH225209   5.042   1.710  12.877  0.6450 -0.0959 -0.5284
 1265TIP3    H125210   5.061   1.804  12.880  0.6575 -0.0720 -1.3262
 1265TIP3    H225211   4.951   1.703  12.904  1.3790 -0.1225  2.3250
 1266TIP3   OH225212   2.638   2.654   3.227 -0.2217 -0.0898  0.8283
 1266TIP3    H125213   2.555   2.630   3.269  0.3508  0.1296  2.1199
 1266TIP3    H225214   2.701   2.590   3.259  0.2198  0.0439  0.2398
 1267TIP3   OH225215   5.847   1.611   1.209  0.0403  0.1151  0.3099
 1267TIP3    H125216   5.909   1.667   1.162  1.0259 -0.7817  0.5016
 1267TIP3    H225217   5.788   1.577   1.141  1.1779 -0.8258 -0.2359
 1268TIP3   OH225218   0.033   4.683  15.036  0.6466 -0.6974  0.2286
 1268TIP3    H125219   0.007   4.653  15.123 -0.3091  0.7501  0.4780
 1268TIP3    H225220  -0.049   4.685  14.986  0.6472  1.4565  0.2502
 1269TIP3   OH225221   1.982   0.407   5.209 -0.4241  0.3127  0.6218
 1269TIP3    H125222   1.980   0.319   5.247 -1.9581  0.8441  1.8572
 1269TIP3    H225223   1.937   0.398   5.125 -0.1160 -0.1764  0.5052
 1270TIP3   OH225224   0.809   2.334  16.863 -0.1374  0.1202  0.0712
 1270TIP3    H125225   0.815   2.272  16.936  0.5850  0.5290  0.3762
 1270TIP3    H225226   0.895   2.377  16.862 -0.6854  1.2435 -0.0139
 1271TIP3   OH225227   3.959   1.698   4.328  0.6586 -0.2627  0.4002
 1271TIP3    H125228   3.968   1.633   4.258 -0.7124  1.1319 -1.1451
 1271TIP3    H225229   3.993   1.779   4.290 -0.3409  0.5861  1.2464
 1272TIP3   OH225230   4.919   6.100  12.409  0.4723  0.4659 -0.3751
 1272TIP3    H125231   4.989   6.163  12.423  0.9226 -0.1927  0.4515
 1272TIP3    H225232   4.855   6.146  12.355  1.9221  0.8009 -1.8679
 1273TIP3   OH225233   2.913   0.102  15.192 -0.0467  0.0614 -0.2250
 1273TIP3    H125234   2.892   0.017  15.152  0.5900 -1.0402  1.6647
 1273TIP3    H225235   2.975   0.142  15.131  0.0715 -1.0658 -0.8847
 1274TIP3   OH225236   2.868   4.803   1.703  0.5228  0.1477 -0.5891
 1274TIP3    H125237   2.808   4.789   1.776 -0.7059 -0.7223 -1.7074
 1274TIP3    H225238   2.949   4.832   1.743 -0.6884  1.5921  0.9876
 1275TIP3   OH225239   0.411   2.386  13.404 -0.1865 -0.0027 -0.0871
 1275TIP3    H125240   0.387   2.376  13.311  0.3111 -1.3474 -0.1009
 1275TIP3    H225241   0.404   2.480  13.421  2.6035  0.7387 -2.2926
 1276TIP3   OH225242   3.925   5.640   0.828 -0.2756  0.0193  0.2253
 1276TIP3    H125243   3.957   5.626   0.917 -0.4477  2.1032  0.6811
 1276TIP3    H225244   3.829   5.641   0.837 -0.2963  2.1915  0.4544
 1277TIP3   OH225245   0.560   6.262  14.381 -0.4052 -0.5755  0.1310
 1277TIP3    H125246   0.561   6.354  14.357  0.4991  0.0234  2.2581
 1277TIP3    H225247   0.561   6.215  14.298 -0.1751  1.3232 -0.9811
 1278TIP3   OH225248   2.708   4.120  15.661  0.3794  0.4849  0.0207
 1278TIP3    H125249   2.619   4.121  15.696  1.5222 -0.1492  3.2084
 1278TIP3    H225250   2.704   4.058  15.587 -1.1115 -2.6102  2.4643
 1279TIP3   OH225251   3.741   6.631  14.927 -0.5541  0.4001 -0.1152
 1279TIP3    H125252   3.784   6.709  14.961 -1.4136  1.3858 -1.2178
 1279TIP3    H225253   3.656   6.630  14.971  0.3687 -1.3738  1.8275
 1280TIP3   OH225254   2.498   6.384   3.800  0.3091  0.3105  0.6988
 1280TIP3    H125255   2.408   6.398   3.831 -0.6257 -2.9412 -0.0850
 1280TIP3    H225256   2.536   6.472   3.795 -2.9419  1.8635  0.6787
 1281TIP3   OH225257   4.202   4.487  11.694  0.1845  0.1659 -0.2818
 1281TIP3    H125258   4.219   4.561  11.636 -0.1358  0.5473  0.1002
 1281TIP3    H225259   4.286   4.470  11.737  0.2832  0.2420 -0.4447
 1282TIP3   OH225260   1.703   2.564  14.256  0.3558 -0.5350  0.0044
 1282TIP3    H125261   1.747   2.603  14.332  3.3479 -1.4100 -1.1806
 1282TIP3    H225262   1.773   2.538  14.198 -1.6337 -4.1612 -1.0497
 1283TIP3   OH225263   4.678   2.404   4.865  0.1217 -0.3838  0.1627
 1283TIP3    H125264   4.683   2.499   4.858 -2.5005 -0.2054 -0.0909
 1283TIP3    H225265   4.679   2.387   4.959 -0.8832  0.0264  0.2566
 1284TIP3   OH225266   3.354   3.419  12.965  0.0256  0.4471  0.4000
 1284TIP3    H125267   3.427   3.361  12.986 -0.0340 -0.9007 -2.6762
 1284TIP3    H225268   3.276   3.364  12.972 -0.3320  0.9273  0.2653
 1285TIP3   OH225269   1.071   1.361  17.337 -0.2881 -0.6158  0.5386
 1285TIP3    H125270   1.078   1.444  17.289 -1.3416 -0.9254 -0.1636
 1285TIP3    H225271   1.148   1.311  17.309 -0.3620 -0.4013 -0.0606
 1286TIP3   OH225272   6.648   2.954   2.392  0.2972 -0.4453  0.2841
 1286TIP3    H125273   6.578   2.892   2.373 -0.4074 -0.1503  1.7792
 1286TIP3    H225274   6.603   3.031   2.426  1.2912  0.1374  0.3204
 1287TIP3   OH225275   4.773   0.851   3.648 -0.1597  0.1531  0.6742
 1287TIP3    H125276   4.748   0.759   3.661  0.6123 -0.5766 -2.3177
 1287TIP3    H225277   4.847   0.847   3.588 -1.8762  2.7902 -1.8820
 1288TIP3   OH225278   1.505   3.083   4.218  0.0284  0.0742  0.2732
 1288TIP3    H125279   1.422   3.130   4.228  1.2107  2.1985  0.6821
 1288TIP3    H225280   1.515   3.073   4.123  0.1130  1.3904  0.1259
 1289TIP3   OH225281   3.058   2.996  15.198  0.5507  0.2566 -0.1455
 1289TIP3    H125282   2.977   2.986  15.248  0.4671  0.3160 -0.2682
 1289TIP3    H225283   3.119   2.935  15.239 -0.0948 -1.1420 -1.2054
 1290TIP3   OH225284   5.098   4.868  10.423 -0.7724 -0.2377  0.3543
 1290TIP3    H125285   5.107   4.939  10.486 -2.0518 -0.5129  0.8845
 1290TIP3    H225286   5.127   4.790  10.471 -1.4258 -0.3953  0.5036
 1291TIP3   OH225287   3.715   4.551   2.693  0.1372  0.1604 -0.2530
 1291TIP3    H125288   3.764   4.621   2.737  0.4836 -0.3592  0.1931
 1291TIP3    H225289   3.684   4.495   2.764  1.0696 -0.9251 -0.6891
 1292TIP3   OH225290   4.366   4.287   6.238  0.3722 -0.1296  0.0450
 1292TIP3    H125291   4.422   4.355   6.201  1.1532  0.6728  2.5095
 1292TIP3    H225292   4.277   4.315   6.219  0.7212  0.1833 -1.2343
 1293TIP3   OH225293   0.192   6.282  12.628 -0.0413  0.2695  0.0346
 1293TIP3    H125294   0.139   6.275  12.708 -0.3747 -0.7633 -0.2657
 1293TIP3    H225295   0.250   6.206  12.631  1.1147  1.1345  0.1201
 1294TIP3   OH225296   1.471   1.329   3.923  0.0431 -0.3237  0.1067
 1294TIP3    H125297   1.495   1.416   3.891  1.1103 -0.1256  1.3386
 1294TIP3    H225298   1.524   1.317   4.002 -1.0152 -1.5789  0.6781
 1295TIP3   OH225299   2.889   6.002   2.940  0.7693  0.0490  0.5925
 1295TIP3    H125300   2.948   5.932   2.967  0.5517 -0.4676 -0.2414
 1295TIP3    H225301   2.851   6.034   3.022  0.6044 -1.0492  0.9615
 1296TIP3   OH225302   3.647   1.077   3.196 -0.3065 -0.4480 -0.4412
 1296TIP3    H125303   3.672   1.163   3.231  1.1005  0.0300 -2.4611
 1296TIP3    H225304   3.595   1.037   3.266  1.9441  0.6187  2.0131
 1297TIP3   OH225305   1.794   3.243  10.690 -0.2838  0.2363 -0.6029
 1297TIP3    H125306   1.792   3.330  10.652  4.3883  1.3530  1.0248
 1297TIP3    H225307   1.807   3.184  10.615  1.8089  1.5935 -1.3741
 1298TIP3   OH225308   0.493   3.247   3.556  0.5897 -0.0525 -0.8402
 1298TIP3    H125309   0.455   3.213   3.475 -1.1883 -1.5146  0.5243
 1298TIP3    H225310   0.566   3.187   3.574 -0.5826 -1.2870 -0.0821
 1299TIP3   OH225311   5.878   3.451   0.675 -0.0454  0.4116 -0.6858
 1299TIP3    H125312   5.886   3.405   0.759  1.2003 -0.8925 -1.4741
 1299TIP3    H225313   5.932   3.530   0.687 -2.5333  2.0266  0.8178
 1300TIP3   OH225314   5.474   0.335   1.733 -0.2815  0.2100  0.0730
 1300TIP3    H125315   5.444   0.353   1.822  0.3012  0.1394  0.2883
 1300TIP3    H225316   5.396   0.303   1.687 -0.2437 -1.3539  1.0072
 1301TIP3   OH225317   1.649   6.497   1.992 -0.4851  0.6293  0.6504
 1301TIP3    H125318   1.702   6.574   2.015  0.3332  0.1278  0.5074
 1301TIP3    H225319   1.710   6.440   1.945 -0.5767 -0.9065  2.2939
 1302TIP3   OH225320   3.043   2.119  10.976  0.2938 -0.1506 -0.3605
 1302TIP3    H125321   3.044   2.024  10.984 -0.8814 -0.2220 -0.8489
 1302TIP3    H225322   3.028   2.151  11.065  0.0031 -0.4583 -0.2965
 1303TIP3   OH225323   4.622   4.109  10.761 -0.2957  0.2440  0.3046
 1303TIP3    H125324   4.716   4.122  10.773 -0.3067  0.6213 -0.0325
 1303TIP3    H225325   4.585   4.197  10.759 -0.8708  0.0903  2.1084
 1304TIP3   OH225326   5.001   0.754   1.517 -0.1684 -0.2427 -0.0626
 1304TIP3    H125327   4.946   0.676   1.520  1.1511 -1.4538 -2.8970
 1304TIP3    H225328   4.950   0.822   1.560 -1.4597 -2.5911  2.3744
 1305TIP3   OH225329   4.082   3.740   4.984 -0.8022  0.2530  0.0143
 1305TIP3    H125330   4.084   3.729   5.079 -1.5837  0.8156  0.1070
 1305TIP3    H225331   4.008   3.798   4.968 -0.7925  0.0228 -0.9569
 1306TIP3   OH225332   6.733   6.567   2.601 -0.1441  0.2505 -0.1350
 1306TIP3    H125333   6.801   6.511   2.638 -0.3633  0.9407  1.4035
 1306TIP3    H225334   6.674   6.506   2.555  2.0808 -0.2440 -2.5862
 1307TIP3   OH225335   5.962   0.834  11.584  0.0223  0.7940 -0.2326
 1307TIP3    H125336   5.969   0.899  11.654 -1.8427  1.7629 -0.8645
 1307TIP3    H225337   5.919   0.881  11.512  0.1931 -0.6886 -1.3608
 1308TIP3   OH225338   4.694   0.938   2.514 -0.5911  0.5454 -0.2537
 1308TIP3    H125339   4.780   0.976   2.492 -0.7893  0.1834 -1.7743
 1308TIP3    H225340   4.715   0.863   2.569  0.0135  0.9361  0.0673
 1309TIP3   OH225341   0.044   2.858  17.099  0.0580  0.2090 -0.1477
 1309TIP3    H125342   0.063   2.925  17.165 -2.6707 -0.7375  1.8112
 1309TIP3    H225343   0.112   2.792  17.112 -1.5459 -1.0536  3.5683
 1310TIP3   OH225344   1.648   3.062   2.571 -0.0963  0.0943  0.0467
 1310TIP3    H125345   1.741   3.053   2.593 -0.1042 -0.5439 -0.1320
 1310TIP3    H225346   1.641   3.149   2.532  0.4488  0.1111 -0.0350
 1311TIP3   OH225347   0.672   3.867   3.123 -0.1889  0.3916  0.0331
 1311TIP3    H125348   0.681   3.962   3.133  0.2768  0.3082  0.4351
 1311TIP3    H225349   0.676   3.833   3.212 -0.9694  0.0394 -0.0585
 1312TIP3   OH225350   6.361   6.717   4.264 -0.0947 -0.1389 -0.3325
 1312TIP3    H125351   6.396   6.635   4.230  0.9399  0.2397 -0.1971
 1312TIP3    H225352   6.438   6.770   4.284 -0.6918  0.0681  1.5920
 1313TIP3   OH225353   0.901   1.165   0.045  0.0822  0.0338 -0.0237
 1313TIP3    H125354   0.929   1.255   0.027 -0.0895 -0.2679 -2.0481
 1313TIP3    H225355   0.876   1.130  -0.041 -0.9480 -1.5830  0.8792
 1314TIP3   OH225356   3.057   4.251   0.427 -0.2147  0.4006  0.1748
 1314TIP3    H125357   2.967   4.284   0.431 -0.9583 -1.5184  3.0179
 1314TIP3    H225358   3.058   4.180   0.492  3.2573  0.0637 -0.1010
 1315TIP3   OH225359   4.964   0.647  13.878  0.4927 -0.2675  0.7080
 1315TIP3    H125360   4.972   0.601  13.794 -0.4407  0.3912  0.2263
 1315TIP3    H225361   4.876   0.624  13.909  0.8743 -0.5934  1.5700
 1316TIP3   OH225362   1.232   5.120  17.306  0.1259  0.8016  0.3829
 1316TIP3    H125363   1.222   5.212  17.281 -0.9263  0.6664  0.2674
 1316TIP3    H225364   1.152   5.078  17.276  0.6869 -0.2093  0.2406
 1317TIP3   OH225365   5.180   6.496   5.466 -0.5624 -0.1300  0.0343
 1317TIP3    H125366   5.099   6.545   5.454  0.2422  1.4360  0.7663
 1317TIP3    H225367   5.191   6.491   5.561  1.4013  1.8275 -0.0139
 1318TIP3   OH225368   4.359   5.541   2.043  0.0969 -0.8661 -0.1518
 1318TIP3    H125369   4.443   5.511   2.078  0.1706 -0.9712 -0.4185
 1318TIP3    H225370   4.360   5.515   1.951 -0.3830 -1.1983 -0.0686
 1319TIP3   OH225371   6.509   0.687   3.375 -0.1322 -0.2042 -0.7725
 1319TIP3    H125372   6.414   0.673   3.369 -0.1636  0.3073 -1.5601
 1319TIP3    H225373   6.542   0.605   3.412 -1.2290  0.8567  2.9926
 1320TIP3   OH225374   2.918   6.192   1.113 -0.1326  0.2186 -0.4514
 1320TIP3    H125375   2.982   6.261   1.134 -1.9081  1.1148  2.8528
 1320TIP3    H225376   2.835   6.239   1.106 -1.0604 -1.3402 -0.2870
 1321TIP3   OH225377   0.253   1.709   5.110 -0.0691  0.0857  0.4832
 1321TIP3    H125378   0.269   1.789   5.161 -0.2503  0.5912 -0.2333
 1321TIP3    H225379   0.298   1.640   5.159  0.4750  0.7015  0.8736
 1322TIP3   OH225380   1.191   0.926   1.127 -0.5408  0.6767  0.0070
 1322TIP3    H125381   1.238   0.863   1.182 -1.2509  0.5123  0.4290
 1322TIP3    H225382   1.217   0.904   1.038 -0.6316 -0.0883  0.1646
 1323TIP3   OH225383   4.909   0.316   0.790  0.6870 -0.0765  0.7090
 1323TIP3    H125384   4.884   0.405   0.818  1.7300 -0.3822  2.8377
 1323TIP3    H225385   5.001   0.325   0.764  0.5864 -0.3944  0.2537
 1324TIP3   OH225386   0.712   3.900  16.211 -0.2509 -0.2824 -0.1362
 1324TIP3    H125387   0.793   3.903  16.262 -1.7771 -0.1599  2.5082
 1324TIP3    H225388   0.706   3.986  16.170  0.9020 -0.2641 -0.2968
 1325TIP3   OH225389   3.754   1.228   2.648 -0.1611  0.3953 -0.2808
 1325TIP3    H125390   3.800   1.213   2.565 -0.4218  0.2986 -0.4078
 1325TIP3    H225391   3.676   1.173   2.643  0.3797 -0.4768  0.4954
 1326TIP3   OH225392   2.907   3.451   2.039  0.0330 -0.3331 -0.1542
 1326TIP3    H125393   2.940   3.512   1.973 -0.6487 -0.6550 -0.7948
 1326TIP3    H225394   2.986   3.424   2.087  0.8387 -1.4822 -1.9949
 1327TIP3   OH225395   4.472   2.957  14.728 -0.0005 -0.2712 -0.4785
 1327TIP3    H125396   4.425   2.930  14.650 -0.0864 -0.4371 -0.3709
 1327TIP3    H225397   4.474   2.878  14.783  1.5637 -0.6713 -1.0438
 1328TIP3   OH225398   6.497   3.297  11.417 -0.5995 -0.0507  0.2567
 1328TIP3    H125399   6.484   3.259  11.503  1.3530  0.1654  0.6789
 1328TIP3    H225400   6.526   3.224  11.362 -2.6889 -0.3898 -0.5090
 1329TIP3   OH225401   4.397   3.338  17.252  0.1517  0.7647  0.6402
 1329TIP3    H125402   4.432   3.414  17.206  0.4993  0.9460  1.1879
 1329TIP3    H225403   4.302   3.350  17.250  0.1068  0.3607 -0.7010
 1330TIP3   OH225404   4.338   3.562   2.349  0.0997  0.9677 -0.3735
 1330TIP3    H125405   4.311   3.652   2.331  1.3353  1.5517  0.5272
 1330TIP3    H225406   4.397   3.569   2.424 -0.4282 -0.6941  0.2491
 1331TIP3   OH225407   5.773   1.398  16.708 -0.0544  0.6266 -0.2532
 1331TIP3    H125408   5.777   1.494  16.717  1.3564  0.6998 -1.3251
 1331TIP3    H225409   5.772   1.383  16.613 -3.0420 -0.3814 -0.1537
 1332TIP3   OH225410   4.430   0.751  16.539  0.0512 -0.1139  0.5161
 1332TIP3    H125411   4.494   0.681  16.525  0.1932  0.3637 -1.4796
 1332TIP3    H225412   4.475   0.814  16.595  0.9032 -0.3182  0.0671
 1333TIP3   OH225413   5.802   2.384  14.193 -0.3077 -0.0600  0.3745
 1333TIP3    H125414   5.842   2.355  14.111  0.3455 -0.6760  0.8911
 1333TIP3    H225415   5.819   2.478  14.195  0.2391 -0.1468  0.1014
 1334TIP3   OH225416   4.873   2.229   2.720 -0.4388  0.2401  0.0230
 1334TIP3    H125417   4.967   2.242   2.713 -0.4307 -0.5724 -2.3581
 1334TIP3    H225418   4.835   2.301   2.668 -1.0352 -0.3204 -0.3422
 1335TIP3   OH225419   5.919   6.577   1.251  0.6083  0.1162 -0.1727
 1335TIP3    H125420   5.908   6.567   1.156 -0.2473 -2.0422  0.0900
 1335TIP3    H225421   6.002   6.535   1.270  0.7276  0.4507  0.0520
 1336TIP3   OH225422   1.789   4.109  17.138 -0.8042 -0.2832 -0.5009
 1336TIP3    H125423   1.746   4.194  17.151 -1.7436 -0.7626 -0.4137
 1336TIP3    H225424   1.818   4.083  17.225 -0.9087 -0.2582 -0.4590
 1337TIP3   OH225425   1.030   1.121   4.267 -0.7245  0.4567 -0.3078
 1337TIP3    H125426   0.987   1.123   4.352 -0.5845 -0.1969 -0.2146
 1337TIP3    H225427   1.005   1.203   4.225  0.7707  1.6959  1.1254
 1338TIP3   OH225428   5.175   2.985   2.333 -0.4306  0.4559  0.6126
 1338TIP3    H125429   5.103   2.922   2.346  0.6125 -0.2880  3.5595
 1338TIP3    H225430   5.191   3.021   2.420  2.1437  1.3185 -0.1372
 1339TIP3   OH225431   2.531   1.812   5.636 -0.1397 -0.1933  0.5174
 1339TIP3    H125432   2.602   1.781   5.579  0.3138 -2.4846  2.1626
 1339TIP3    H225433   2.468   1.740   5.637 -1.0118  0.5637  1.4343
 1340TIP3   OH225434   3.132   2.629  11.208  0.7517  0.0904 -0.4418
 1340TIP3    H125435   3.126   2.535  11.219  1.8998 -0.1823 -1.8811
 1340TIP3    H225436   3.225   2.646  11.191  0.6052  1.5050  0.0381
 1341TIP3   OH225437   2.594   6.410  13.287  0.0961 -0.0704 -0.1244
 1341TIP3    H125438   2.559   6.413  13.376 -2.9311  1.4924 -1.1920
 1341TIP3    H225439   2.581   6.320  13.259  1.2540 -0.6231  1.0357
 1342TIP3   OH225440   2.017   5.705   5.161 -0.0081  0.0855  0.1870
 1342TIP3    H125441   2.021   5.791   5.203  0.7184 -0.2535  0.8392
 1342TIP3    H225442   1.937   5.665   5.195  1.0162 -0.5398  2.0036
 1343TIP3   OH225443   1.404   3.029  12.610 -0.4935 -0.0337  0.2163
 1343TIP3    H125444   1.387   2.952  12.556  1.0064  0.3268 -0.8191
 1343TIP3    H225445   1.497   3.025  12.630 -0.1619  1.9617 -0.6286
 1344TIP3   OH225446   2.636   6.632   0.791 -0.3973  0.0657 -0.5268
 1344TIP3    H125447   2.696   6.567   0.827 -1.1423  0.6120  1.9373
 1344TIP3    H225448   2.686   6.675   0.721  0.5464 -2.2282 -1.3537
 1345TIP3   OH225449   2.035   3.639  12.735  0.0018  0.0642 -0.1972
 1345TIP3    H125450   2.036   3.658  12.641 -0.0873 -1.2559 -0.4775
 1345TIP3    H225451   2.030   3.544  12.741  0.5273  0.0923  1.1529
 1346TIP3   OH225452   0.402   0.358   5.218  0.3719 -0.6068  0.1102
 1346TIP3    H125453   0.423   0.282   5.272 -0.0134 -0.4073  0.5556
 1346TIP3    H225454   0.391   0.429   5.281 -1.0918 -0.5892 -0.1238
 1347TIP3   OH225455   1.368   0.937  13.267  0.4144  0.3739 -0.1950
 1347TIP3    H125456   1.331   1.025  13.279 -0.0641  0.1643 -0.1194
 1347TIP3    H225457   1.350   0.892  13.349 -0.8470 -0.3356 -0.8383
 1348TIP3   OH225458   3.606   4.057   2.987 -0.0803  0.0110  0.1818
 1348TIP3    H125459   3.568   4.047   3.075 -2.0065 -1.3827 -0.7415
 1348TIP3    H225460   3.608   3.968   2.952  0.5021  0.5754 -1.2664
 1349TIP3   OH225461   2.673   2.567  10.649  0.2672 -0.6658 -0.1977
 1349TIP3    H125462   2.751   2.582  10.596  0.1176  2.4070  0.2837
 1349TIP3    H225463   2.705   2.568  10.739 -0.0718 -1.5707 -0.0546
 1350TIP3   OH225464   4.115   0.861   5.199  0.2985  0.5838 -0.1206
 1350TIP3    H125465   4.207   0.882   5.183  0.4213 -0.0588 -0.2996
 1350TIP3    H225466   4.098   0.785   5.144  0.0555 -0.1885  0.9938
 1351TIP3   OH225467   2.056   0.619  11.289 -0.7321 -0.1324  0.1462
 1351TIP3    H125468   2.128   0.572  11.246 -0.2745 -1.6358  2.3833
 1351TIP3    H225469   2.071   0.606  11.383 -3.3449  0.3881  0.7292
 1352TIP3   OH225470   3.097   2.185  11.906 -0.4963 -0.4741  0.6267
 1352TIP3    H125471   3.086   2.218  11.995  0.6459 -0.5492  0.8130
 1352TIP3    H225472   3.017   2.211  11.861 -0.1771  1.5125  1.0884
 1353TIP3   OH225473   4.080   5.583  14.202  0.0104 -0.5408  0.2691
 1353TIP3    H125474   4.154   5.631  14.238  1.2912 -2.0427 -0.2481
 1353TIP3    H225475   4.023   5.650  14.164  2.3254  0.5243 -1.5502
 1354TIP3   OH225476   0.749   0.777  14.584  0.0855  0.3802 -0.6402
 1354TIP3    H125477   0.823   0.725  14.616 -1.1039 -0.9807 -0.0378
 1354TIP3    H225478   0.747   0.853  14.642  0.5511  0.0468 -0.1758
 1355TIP3   OH225479   1.057   1.867   1.034  0.5451  0.0848 -0.0926
 1355TIP3    H125480   0.975   1.824   1.059 -0.0278 -1.0965 -3.4044
 1355TIP3    H225481   1.031   1.957   1.011  0.1842 -0.2070 -0.8693
 1356TIP3   OH225482   2.302   0.939  11.053  0.5363  0.0311 -0.3541
 1356TIP3    H125483   2.230   0.986  11.011 -0.0956 -1.0670 -0.5254
 1356TIP3    H225484   2.296   0.850  11.019  1.5345 -0.2550  0.1863
 1357TIP3   OH225485   6.255   1.135   1.748 -0.1525  0.0285  0.1379
 1357TIP3    H125486   6.258   1.213   1.804 -1.0012 -0.0350  0.2889
 1357TIP3    H225487   6.210   1.069   1.800 -0.9344 -0.0413 -0.5961
 1358TIP3   OH225488   4.237   2.902   0.668 -0.2071 -0.3775  0.1054
 1358TIP3    H125489   4.271   2.978   0.620  3.1629 -0.8473  1.5013
 1358TIP3    H225490   4.171   2.939   0.727  0.2445  1.2450 -0.3455
 1359TIP3   OH225491   1.365   0.980   0.497 -0.3864  0.3886 -0.0216
 1359TIP3    H125492   1.294   1.037   0.470 -1.8738 -0.6808  1.4557
 1359TIP3    H225493   1.444   1.033   0.484 -1.3545  1.4231 -2.1810
 1360TIP3   OH225494   0.772   1.352  13.204 -0.5062 -0.3095  0.4680
 1360TIP3    H125495   0.684   1.352  13.167 -0.2473  0.0219 -0.1481
 1360TIP3    H225496   0.824   1.406  13.144  0.0618 -0.3013  0.9583
 1361TIP3   OH225497   2.368   3.961   3.994 -0.2448  0.0985  0.0028
 1361TIP3    H125498   2.298   3.963   3.928 -1.7187  1.9789  1.4907
 1361TIP3    H225499   2.341   3.893   4.056  0.1090 -0.3045 -0.2828
 1362TIP3   OH225500   3.629   3.070   4.319  0.4081 -0.2786  0.1347
 1362TIP3    H125501   3.709   3.081   4.371  1.2893 -0.0444 -1.2159
 1362TIP3    H225502   3.586   3.155   4.323 -0.3909 -0.7099  1.7762
 1363TIP3   OH225503   4.722   2.416   1.751  0.0362 -0.2322 -0.4985
 1363TIP3    H125504   4.628   2.434   1.744 -0.3767 -1.9449  0.2437
 1363TIP3    H225505   4.743   2.432   1.843  0.4502  0.0116 -0.6324
 1364TIP3   OH225506   1.112   4.849  16.437  0.2087  0.4691 -0.2352
 1364TIP3    H125507   1.179   4.875  16.500 -1.1736 -1.4269  2.2073
 1364TIP3    H225508   1.138   4.761  16.408 -0.4372  0.3282 -0.4115
 1365TIP3   OH225509   1.683   2.718   3.255  0.0751 -0.1169 -0.2306
 1365TIP3    H125510   1.744   2.670   3.310  0.5057  0.6256 -0.0477
 1365TIP3    H225511   1.637   2.777   3.314  0.0824  0.2264 -0.5599
 1366TIP3   OH225512   1.507   3.658  12.312  0.0857  0.1707  0.1693
 1366TIP3    H125513   1.602   3.648  12.309  0.2936  1.1615  1.8855
 1366TIP3    H225514   1.484   3.635  12.402 -1.1693  0.9380  0.0604
 1367TIP3   OH225515   0.741   1.903   1.063 -0.9495  0.0275  0.0747
 1367TIP3    H125516   0.730   1.960   0.987  1.7285  1.6959  0.8163
 1367TIP3    H225517   0.717   1.958   1.138  0.9909  0.0114  0.7544
 1368TIP3   OH225518   0.694   5.053  11.362 -0.6734 -0.1452 -0.5903
 1368TIP3    H125519   0.652   4.970  11.340 -3.3900  0.7964  0.6662
 1368TIP3    H225520   0.743   5.034  11.442 -1.5780 -0.4799 -0.1046
 1369TIP3   OH225521   3.209   2.896  13.954 -0.0393  0.3730 -0.6635
 1369TIP3    H125522   3.203   2.878  14.048 -1.4954  0.4837 -0.7052
 1369TIP3    H225523   3.226   2.990  13.948  1.6008  0.1114 -0.5150
 1370TIP3   OH225524   5.392   3.191  10.590  0.5692  0.3596 -0.3785
 1370TIP3    H125525   5.303   3.157  10.582  1.2570 -1.5899 -0.3607
 1370TIP3    H225526   5.381   3.285  10.605 -1.3996  0.7805 -3.5190
 1371TIP3   OH225527   2.204   3.557  14.729 -0.1392 -0.2606  0.4046
 1371TIP3    H125528   2.154   3.519  14.656 -0.4464  1.5606 -0.3942
 1371TIP3    H225529   2.137   3.595  14.785  0.2502  1.0044  0.0331
 1372TIP3   OH225530   6.261   2.854   4.842  0.0842 -0.1217 -0.1010
 1372TIP3    H125531   6.296   2.926   4.790 -0.9663  1.0657  0.7803
 1372TIP3    H225532   6.288   2.873   4.932  0.2839 -1.1367  0.0603
 1373TIP3   OH225533   4.669   5.052  14.167  0.6131 -0.1979 -0.2766
 1373TIP3    H125534   4.577   5.069  14.188  1.2193  0.1587  2.4545
 1373TIP3    H225535   4.694   4.979  14.225  2.2292  0.1986 -0.4278
 1374TIP3   OH225536   4.386   3.620  16.117 -0.3375  0.0954 -0.0461
 1374TIP3    H125537   4.410   3.618  16.210 -1.0491  0.3227  0.1436
 1374TIP3    H225538   4.345   3.705  16.104 -0.8402 -0.2031 -0.4188
 1375TIP3   OH225539   0.458   6.114  12.245  0.1490 -0.5487 -0.1401
 1375TIP3    H125540   0.466   6.174  12.170 -1.4578 -0.2852 -0.1351
 1375TIP3    H225541   0.530   6.139  12.303 -0.3081  1.1956 -0.2688
 1376TIP3   OH225542   5.315   5.484  14.941  0.6875  0.6208  0.0222
 1376TIP3    H125543   5.367   5.405  14.957 -0.9251 -0.1075  2.1438
 1376TIP3    H225544   5.367   5.555  14.980  0.8409  0.1491  0.7008
 1377TIP3   OH225545   5.417   3.864   1.235  0.3031  0.4188  0.3330
 1377TIP3    H125546   5.459   3.825   1.312  1.4205  0.6747 -0.1242
 1377TIP3    H225547   5.452   3.815   1.161 -2.3287 -1.2200  0.0570
 1378TIP3   OH225548   0.560   5.706   4.067  0.3164 -0.1353  0.0978
 1378TIP3    H125549   0.630   5.772   4.073 -0.3087  0.5368  0.1818
 1378TIP3    H225550   0.480   5.755   4.086 -0.0891 -1.0814  0.8991
 1379TIP3   OH225551   4.126   3.622   3.656  0.1871  0.0726 -0.2733
 1379TIP3    H125552   4.168   3.551   3.608 -0.4145 -0.9896  0.7003
 1379TIP3    H225553   4.066   3.577   3.716  0.3153  1.3754  0.8769
 1380TIP3   OH225554   6.192   1.970  11.328  0.6157 -0.0754 -0.2350
 1380TIP3    H125555   6.149   1.946  11.411  0.4355  1.8071  0.2581
 1380TIP3    H225556   6.278   1.927  11.333  1.3356  1.4168  1.7880
 1381TIP3   OH225557   2.897   5.615  16.301  0.5435 -0.1084  0.3582
 1381TIP3    H125558   2.966   5.676  16.276  0.6181 -0.1132  0.5547
 1381TIP3    H225559   2.944   5.538  16.334  0.4380  0.0850  0.9606
 1382TIP3   OH225560   2.834   2.463  12.074  0.2095 -0.2300 -0.0323
 1382TIP3    H125561   2.747   2.470  12.034  0.0401  1.0765  0.5173
 1382TIP3    H225562   2.857   2.552  12.099  1.5521 -0.6081  0.1963
 1383TIP3   OH225563   3.719   1.289   2.259 -0.0735  0.2399 -0.2388
 1383TIP3    H125564   3.711   1.261   2.168  2.5443 -0.0472 -0.4603
 1383TIP3    H225565   3.685   1.379   2.260  3.6754  1.9026 -2.5441
 1384TIP3   OH225566   2.790   4.716  14.481  0.3516  0.8206  0.3298
 1384TIP3    H125567   2.883   4.721  14.462  0.0245 -0.1364 -1.7563
 1384TIP3    H225568   2.760   4.636  14.439 -1.1514  0.2333  2.3336
 1385TIP3   OH225569   3.932   1.418  12.227  0.0166 -0.4085 -0.0234
 1385TIP3    H125570   3.847   1.409  12.183  1.1442  1.4654 -2.8181
 1385TIP3    H225571   3.916   1.382  12.315 -3.6551 -0.1335 -0.3929
 1386TIP3   OH225572   6.652   1.179   4.393 -0.4063  0.2778  0.5645
 1386TIP3    H125573   6.713   1.235   4.344 -1.9678  0.4586 -1.2809
 1386TIP3    H225574   6.619   1.235   4.463 -1.0324  1.3136 -0.5273
 1387TIP3   OH225575   2.048   4.225   0.416  0.8200  0.0508  0.4102
 1387TIP3    H125576   1.955   4.239   0.403  1.0164  0.2462 -0.8870
 1387TIP3    H225577   2.087   4.311   0.399  1.5356 -0.7281 -2.4184
 1388TIP3   OH225578   1.222   1.251  11.289 -0.5422  0.0519  0.6277
 1388TIP3    H125579   1.294   1.188  11.286  1.3941  2.1482 -1.1849
 1388TIP3    H225580   1.238   1.303  11.367  0.2678  0.8331 -0.0366
 1389TIP3   OH225581   3.188   5.192  10.611  0.2465 -0.4804 -0.7837
 1389TIP3    H125582   3.122   5.242  10.563  1.0235  0.2957 -1.0782
 1389TIP3    H225583   3.250   5.258  10.642  1.5742 -1.2813 -1.6011
 1390TIP3   OH225584   2.943   3.786  10.406 -0.3203 -0.2233  0.0422
 1390TIP3    H125585   3.038   3.798  10.412 -0.1646 -0.3377 -1.6705
 1390TIP3    H225586   2.915   3.765  10.495  0.7734  3.0626  1.3119
 1391TIP3   OH225587   4.751   0.136  13.340  0.0418  0.3048 -0.7164
 1391TIP3    H125588   4.838   0.152  13.378 -0.6273  1.9226  0.2542
 1391TIP3    H225589   4.741   0.041  13.344  0.3168  0.2842  2.6556
 1392TIP3   OH225590   2.700   5.152  14.577 -0.0281  0.1463 -0.3894
 1392TIP3    H125591   2.605   5.155  14.573 -0.0237  3.8036 -2.4401
 1392TIP3    H225592   2.722   5.188  14.662 -0.5744  2.1105 -1.0260
 1393TIP3   OH225593   5.017   0.454   2.473 -0.0494  0.0996 -0.4260
 1393TIP3    H125594   5.018   0.498   2.388 -0.8434  1.9700  0.4719
 1393TIP3    H225595   4.928   0.419   2.481 -0.5105  1.3407  0.2611
 1394TIP3   OH225596   4.355   3.499   3.541  0.3811 -0.2724  0.5984
 1394TIP3    H125597   4.412   3.520   3.615  0.7384 -0.8173  0.4842
 1394TIP3    H225598   4.397   3.538   3.465 -0.1435  0.5483  0.7211
 1395TIP3   OH225599   6.653   4.056   2.719 -0.3131  0.4570  0.6088
 1395TIP3    H125600   6.585   4.061   2.786  0.7389  0.2128  1.7499
 1395TIP3    H225601   6.606   4.049   2.636 -1.6590  0.4860  1.3474
 1396TIP3   OH225602   3.334   6.404   4.162  0.2182 -0.5472  0.4860
 1396TIP3    H125603   3.242   6.385   4.142 -0.5860  3.2830 -0.2323
 1396TIP3    H225604   3.331   6.465   4.236  2.2109 -0.3750  0.4920
 1397TIP3   OH225605   2.455   2.628  11.707  0.1741  0.3604 -0.0578
 1397TIP3    H125606   2.458   2.543  11.751  0.9192  0.0879 -0.6129
 1397TIP3    H225607   2.422   2.609  11.620  0.3117  0.6445 -0.1740
 1398TIP3   OH225608   2.834   0.523  13.732  0.2501 -0.5584 -0.1998
 1398TIP3    H125609   2.845   0.429  13.713  2.1956 -0.2156 -0.9769
 1398TIP3    H225610   2.883   0.537  13.812  0.8185 -0.0272 -0.6331
 1399TIP3   OH225611   0.077   5.209   0.326  0.3482 -0.0504  0.2979
 1399TIP3    H125612   0.009   5.142   0.332 -0.2232  0.3829 -1.0233
 1399TIP3    H225613   0.081   5.247   0.414 -0.0277 -1.1140  0.7908
 1400TIP3   OH225614   3.505   3.949  16.243 -0.6275  0.0211  0.1584
 1400TIP3    H125615   3.426   3.923  16.196 -0.6300 -0.5480  0.4714
 1400TIP3    H225616   3.476   4.018  16.303 -1.5754 -2.2969  2.5269
 1401TIP3   OH225617   6.521   2.291   1.518 -0.0146  0.1744 -0.2047
 1401TIP3    H125618   6.499   2.278   1.611 -0.0239 -1.1521 -0.3779
 1401TIP3    H225619   6.571   2.373   1.517 -0.2668  0.3680  0.9246
 1402TIP3   OH225620   4.823   5.133  14.771 -0.1094 -0.0427  0.0352
 1402TIP3    H125621   4.908   5.170  14.792  0.1696 -1.6518  2.0664
 1402TIP3    H225622   4.761   5.203  14.793  0.6456  1.5485 -2.4967
 1403TIP3   OH225623   4.556   2.779   0.183  1.0471 -0.6820  0.4314
 1403TIP3    H125624   4.460   2.774   0.187  0.9013  0.4695 -1.0110
 1403TIP3    H225625   4.580   2.830   0.260  0.2701  1.1886 -0.5109
 1404TIP3   OH225626   5.359   5.333  12.983  0.1387  0.2267 -0.0570
 1404TIP3    H125627   5.335   5.353  13.074 -2.2275 -0.4878 -0.4712
 1404TIP3    H225628   5.430   5.269  12.991 -0.0433  0.1621  1.2905
 1405TIP3   OH225629   5.038   4.933  12.934  0.1997  0.0732  0.6584
 1405TIP3    H125630   5.086   4.996  12.880  0.4579  0.3303  1.1880
 1405TIP3    H225631   5.031   4.974  13.020 -2.8324  1.0050  0.0897
 1406TIP3   OH225632   3.160   5.177   6.006 -0.2171 -0.2220  0.2253
 1406TIP3    H125633   3.234   5.238   6.008  0.3188 -0.8707  1.0121
 1406TIP3    H225634   3.109   5.199   6.084  0.5351 -1.4215  1.0900
 1407TIP3   OH225635   5.265   3.071   0.475 -0.2152  0.0925  0.2903
 1407TIP3    H125636   5.244   3.098   0.386  1.7939  2.7492  0.4945
 1407TIP3    H225637   5.187   3.024   0.505 -0.9764 -0.8141 -2.7887
 1408TIP3   OH225638   3.733   3.392  11.358  0.6275 -0.3146  0.1441
 1408TIP3    H125639   3.793   3.443  11.412  1.5670 -1.4637  0.2168
 1408TIP3    H225640   3.718   3.312  11.407 -0.5753 -0.2742 -0.1157
 1409TIP3   OH225641   1.195   0.120   5.316 -0.0826 -0.5876 -0.4840
 1409TIP3    H125642   1.156   0.180   5.252  0.3815 -0.8616 -1.0389
 1409TIP3    H225643   1.121   0.069   5.349 -0.7394  1.2756  1.1276
 1410TIP3   OH225644   4.302   0.782  15.641  0.1235 -0.5038 -0.3416
 1410TIP3    H125645   4.268   0.713  15.699  0.8265  0.3873  1.2011
 1410TIP3    H225646   4.322   0.855  15.700 -1.3529  1.3607 -2.0118
 1411TIP3   OH225647   4.147   5.587   4.941  0.2648 -0.1583  0.1921
 1411TIP3    H125648   4.193   5.670   4.925 -0.3907  0.0814 -0.5488
 1411TIP3    H225649   4.083   5.608   5.010  1.3543 -0.5350  1.3445
 1412TIP3   OH225650   0.545   2.754   4.348  0.5758  0.0036  0.3205
 1412TIP3    H125651   0.482   2.725   4.413  1.2108  0.1723  1.0195
 1412TIP3    H225652   0.507   2.726   4.264 -1.3603  1.7909  0.5301
 1413TIP3   OH225653   6.688   4.695   4.010  0.4197  0.4994 -0.8512
 1413TIP3    H125654   6.617   4.716   3.949  0.8254  2.5018 -0.6782
 1413TIP3    H225655   6.708   4.777   4.054  0.2713 -0.8255  1.9140
 1414TIP3   OH225656   1.126   2.709   2.047  0.1190  0.6147  0.5399
 1414TIP3    H125657   1.218   2.711   2.073  0.9012 -1.1122 -1.7843
 1414TIP3    H225658   1.093   2.627   2.083 -0.4499  1.1001  1.1373
 1415TIP3   OH225659   3.005   5.335  16.356  0.3681  0.6041  0.2200
 1415TIP3    H125660   3.012   5.312  16.449  1.5237  0.4157  0.1082
 1415TIP3    H225661   2.939   5.274  16.322  0.5823  0.0630  0.7390
 1416TIP3   OH225662   2.646   1.178  13.184 -0.0978 -0.1662 -0.2701
 1416TIP3    H125663   2.714   1.246  13.188 -0.8716  0.5745  1.0143
 1416TIP3    H225664   2.684   1.109  13.130  1.7749  0.1369  0.5759
 1417TIP3   OH225665   6.190   3.915   5.326  0.7634 -0.1612  0.2903
 1417TIP3    H125666   6.246   3.839   5.340  2.2439  1.0690  1.4284
 1417TIP3    H225667   6.106   3.878   5.298  0.9925 -2.3057  2.1261
 1418TIP3   OH225668   4.715   2.361  16.305  0.1231  0.0192  0.0245
 1418TIP3    H125669   4.703   2.271  16.334  1.8796 -1.1874 -2.6115
 1418TIP3    H225670   4.760   2.404  16.378 -2.4300 -0.5792  2.1086
 1419TIP3   OH225671   3.033   3.625  10.847 -0.3490  0.1299  0.2661
 1419TIP3    H125672   2.970   3.588  10.909 -1.4283  0.2034 -0.7573
 1419TIP3    H225673   2.979   3.659  10.775  0.8768 -0.0767 -0.7859
 1420TIP3   OH225674   0.542   0.799  15.278 -0.1558  0.2706  0.2149
 1420TIP3    H125675   0.573   0.773  15.365 -0.2290  0.7386  0.3826
 1420TIP3    H225676   0.496   0.881  15.292 -1.3870 -0.3538 -0.0476
 1421TIP3   OH225677   2.999   4.100   0.647 -0.2351  0.5298 -0.4885
 1421TIP3    H125678   2.990   4.011   0.613 -1.9772  0.2815  0.5297
 1421TIP3    H225679   2.992   4.091   0.742  1.5452  1.5656 -0.2111
 1422TIP3   OH225680   0.838   6.265  14.116  0.4210 -0.8782  0.3163
 1422TIP3    H125681   0.754   6.299  14.085 -0.3830 -1.0632  2.2058
 1422TIP3    H225682   0.903   6.304  14.057 -0.9266 -0.2905 -0.8264
 1423TIP3   OH225683   4.852   0.168   2.975  0.6529  0.1523  0.7330
 1423TIP3    H125684   4.895   0.244   3.013  0.1873  0.6409  0.3101
 1423TIP3    H225685   4.902   0.093   3.007  1.4212  0.6654  0.7597
 1424TIP3   OH225686   5.693   4.810  13.555  0.0393  0.1763  0.1627
 1424TIP3    H125687   5.745   4.752  13.499 -1.0662 -0.4720 -0.2082
 1424TIP3    H225688   5.694   4.768  13.640  0.3420  0.3053  0.2247
 1425TIP3   OH225689   5.284   4.693   4.649 -0.6840  0.6475 -0.0692
 1425TIP3    H125690   5.315   4.705   4.559  0.2969  1.2302  0.3239
 1425TIP3    H225691   5.221   4.622   4.643  0.9364 -0.7961 -0.9009
 1426TIP3   OH225692   3.330   5.038   3.824 -0.2987 -0.0395 -0.0384
 1426TIP3    H125693   3.356   5.059   3.734 -2.2370  0.6200 -0.4811
 1426TIP3    H225694   3.250   5.087   3.838 -0.9314 -1.4304  1.5052
 1427TIP3   OH225695   5.159   3.348   4.976 -0.0207 -0.2575 -0.8099
 1427TIP3    H125696   5.107   3.276   4.942  0.3056 -0.4994 -0.8037
 1427TIP3    H225697   5.225   3.364   4.909  0.4261 -0.5211 -0.4411
 1428TIP3   OH225698   1.737   3.549   1.032  0.1946 -1.1082  0.2323
 1428TIP3    H125699   1.692   3.581   1.110 -2.0689  1.0013 -1.7839
 1428TIP3    H225700   1.775   3.627   0.992 -0.3614 -1.8049 -1.7694
 1429TIP3   OH225701   0.320   5.311  14.305 -0.1675  0.0862  0.3389
 1429TIP3    H125702   0.255   5.381  14.303 -1.4278 -1.0272  0.6298
 1429TIP3    H225703   0.268   5.230  14.309  1.2328 -0.8179  1.3665
 1430TIP3   OH225704   4.098   6.352   1.398 -0.1739 -0.2893  0.1254
 1430TIP3    H125705   4.162   6.290   1.434  0.6366  1.1580  1.3108
 1430TIP3    H225706   4.026   6.351   1.462  0.7744  1.4724  1.2933
 1431TIP3   OH225707   5.791   2.811   3.213  0.0543 -0.0541  0.6695
 1431TIP3    H125708   5.746   2.892   3.237 -0.5870 -0.2956  0.3159
 1431TIP3    H225709   5.791   2.812   3.117 -0.7504 -0.8951  0.6525
 1432TIP3   OH225710   1.927   2.153   0.373  0.1563 -0.0649 -0.0686
 1432TIP3    H125711   1.981   2.180   0.299  0.1227 -1.3531 -0.5871
 1432TIP3    H225712   1.931   2.227   0.434  1.6752  0.2682 -0.5321
 1433TIP3   OH225713   4.342   4.885   3.858  0.1197 -0.1361 -0.2555
 1433TIP3    H125714   4.259   4.862   3.899  1.0919 -0.6219  1.5123
 1433TIP3    H225715   4.347   4.828   3.781 -1.5423  0.4958 -0.8752
 1434TIP3   OH225716   0.284   5.526   4.538 -0.2643  0.4622  0.1741
 1434TIP3    H125717   0.190   5.542   4.528 -0.5748 -0.6974  0.9568
 1434TIP3    H225718   0.317   5.604   4.582 -1.5055 -0.4056  2.8790
 1435TIP3   OH225719   5.950   6.189  13.535 -0.0917  0.1695 -0.3950
 1435TIP3    H125720   5.867   6.202  13.582 -0.3532 -2.5077  0.0507
 1435TIP3    H225721   5.990   6.114  13.579  3.1650  1.9995  0.1163
 1436TIP3   OH225722   6.072   6.622  17.164  0.0080 -0.1624 -0.0721
 1436TIP3    H125723   6.084   6.598  17.072  0.0932  0.5943 -0.2706
 1436TIP3    H225724   5.986   6.586  17.188 -1.0472  1.4865 -1.1160
 1437TIP3   OH225725   5.096   0.643   3.348 -0.1558  0.0189  0.0088
 1437TIP3    H125726   5.045   0.710   3.302 -1.6943 -0.7922  0.4776
 1437TIP3    H225727   5.179   0.640   3.300 -0.9112  0.6812 -1.4200
 1438TIP3   OH225728   2.104   3.411  16.919 -0.0447 -0.4484 -0.3013
 1438TIP3    H125729   2.120   3.498  16.956 -1.1883  0.4150 -1.7080
 1438TIP3    H225730   2.029   3.378  16.968  0.3425 -0.6138  0.1840
 1439TIP3   OH225731   2.044   6.156   2.146 -0.2946 -0.5505 -0.0852
 1439TIP3    H125732   2.101   6.080   2.158  1.0113  0.3668 -0.3868
 1439TIP3    H225733   1.993   6.161   2.228  0.9483 -0.6387  0.7124
 1440TIP3   OH225734   2.621   6.466   5.927 -0.5171 -0.1135  0.0584
 1440TIP3    H125735   2.613   6.371   5.938 -0.8913 -0.0556  0.3332
 1440TIP3    H225736   2.591   6.502   6.011  0.8287  0.2146  0.4218
 1441TIP3   OH225737   5.300   6.286   3.931 -0.3406  0.9121 -0.2658
 1441TIP3    H125738   5.377   6.233   3.915 -1.2424 -1.1040  1.5827
 1441TIP3    H225739   5.323   6.340   4.006 -1.1954 -0.9552  1.4361
 1442TIP3   OH225740   5.269   4.691  12.274 -0.7458  0.1409  0.4116
 1442TIP3    H125741   5.314   4.775  12.273 -1.0394  0.3688  2.2583
 1442TIP3    H225742   5.181   4.711  12.243 -0.7764  0.4917  0.7172
 1443TIP3   OH225743   1.760   5.732  16.624 -0.1658 -0.4566  0.1287
 1443TIP3    H125744   1.696   5.699  16.687  0.7972 -1.4403  0.6133
 1443TIP3    H225745   1.792   5.814  16.662  0.3297 -0.9897  0.8933
 1444TIP3   OH225746   6.296   4.833  14.355 -0.3219 -0.2816 -0.2906
 1444TIP3    H125747   6.329   4.903  14.411  1.5187 -1.8478  0.7033
 1444TIP3    H225748   6.353   4.758  14.374 -0.5532 -1.3141 -3.1821
 1445TIP3   OH225749   0.057   5.300  11.483  0.4109  0.5406  0.1630
 1445TIP3    H125750   0.053   5.232  11.551 -0.1458  0.3242 -0.0796
 1445TIP3    H225751   0.025   5.256  11.404 -0.4620  1.2257  0.1231
 1446TIP3   OH225752   6.623   0.439  14.111 -0.1103  0.4761  0.2673
 1446TIP3    H125753   6.665   0.525  14.106 -1.8298  1.3580  0.1586
 1446TIP3    H225754   6.568   0.444  14.189 -1.0802 -0.1040 -0.3599
 1447TIP3   OH225755   4.211   5.062   0.878  0.1631  0.0489 -0.1848
 1447TIP3    H125756   4.302   5.088   0.863  0.2591  0.5056  1.0921
 1447TIP3    H225757   4.198   4.987   0.820  1.4071 -0.1275 -0.2570
 1448TIP3   OH225758   2.614   5.864   0.904  0.0174 -0.0416 -0.1103
 1448TIP3    H125759   2.531   5.877   0.858 -0.7970  2.2742  1.7857
 1448TIP3    H225760   2.591   5.817   0.983  0.1295  2.0049  1.2221
 1449TIP3   OH225761   6.717   1.765   2.568 -0.0639 -0.0868  0.4978
 1449TIP3    H125762   6.706   1.690   2.627 -0.0123  0.6412  1.4627
 1449TIP3    H225763   6.685   1.733   2.483  0.4579 -1.3607  0.7525
 1450TIP3   OH225764   0.998   1.441   1.671  0.3328 -0.3648 -0.1718
 1450TIP3    H125765   0.928   1.488   1.716  0.6245 -1.4482  1.4813
 1450TIP3    H225766   1.054   1.511   1.635  1.3239  0.6922  3.0710
 1451TIP3   OH225767   0.093   2.395   0.922  0.4934 -0.2623  0.2668
 1451TIP3    H125768   0.106   2.428   0.833  0.2311  0.0413  0.3356
 1451TIP3    H225769   0.180   2.369   0.952  0.2308 -3.1310 -1.1246
 1452TIP3   OH225770   5.509   3.176   6.428 -0.6550  0.3623 -0.4587
 1452TIP3    H125771   5.506   3.106   6.494 -0.7958 -0.2237 -1.0747
 1452TIP3    H225772   5.451   3.145   6.358 -0.4140  0.9200 -0.9093
 1453TIP3   OH225773   2.972   1.158  14.212 -0.4695  0.0423  0.5067
 1453TIP3    H125774   2.974   1.248  14.179 -1.3977 -0.3151 -0.5684
 1453TIP3    H225775   3.014   1.164  14.298  0.5135  1.3021 -0.0152
 1454TIP3   OH225776   0.466   6.504  16.204  0.0217 -0.2987 -0.2887
 1454TIP3    H125777   0.495   6.521  16.294 -2.6429  0.7116  0.4699
 1454TIP3    H225778   0.511   6.424  16.179  2.7226  0.6878  1.0086
 1455TIP3   OH225779   2.316   2.943  11.655 -0.4794 -0.0792 -0.3760
 1455TIP3    H125780   2.288   2.888  11.583 -1.2718 -0.0413 -0.1028
 1455TIP3    H225781   2.355   3.020  11.613 -0.6317 -0.2100 -0.7585
 1456TIP3   OH225782   2.173   4.665   1.382 -0.3360  0.5244  0.5796
 1456TIP3    H125783   2.100   4.715   1.346  0.0841  0.5438 -0.2609
 1456TIP3    H225784   2.251   4.710   1.349  0.0526 -0.6334 -0.1398
 1457TIP3   OH225785   0.709   1.547   4.437 -0.0659 -0.0358  0.1230
 1457TIP3    H125786   0.659   1.613   4.390 -0.8050 -0.3641  0.4394
 1457TIP3    H225787   0.790   1.591   4.462 -0.8477  0.9782  0.9457
 1458TIP3   OH225788   3.995   1.315   4.360 -0.5508  0.5221  0.0815
 1458TIP3    H125789   3.943   1.253   4.411  1.2384 -1.2862 -0.1439
 1458TIP3    H225790   3.932   1.357   4.301 -2.4970  1.8947  2.9032
 1459TIP3   OH225791   2.013   5.027   0.421  0.1073 -0.1873  0.0835
 1459TIP3    H125792   2.063   5.105   0.447 -1.6712  0.8934  0.4137
 1459TIP3    H225793   1.986   5.045   0.331 -2.4373  0.8069  0.9635
 1460TIP3   OH225794   6.471   5.145  16.010  0.3885  0.3283  0.3210
 1460TIP3    H125795   6.431   5.059  16.016 -0.1532  0.6354  1.2513
 1460TIP3    H225796   6.398   5.204  15.989  0.6583  0.6402  0.2427
 1461TIP3   OH225797   6.318   3.121  12.880 -0.6550  0.7660  0.0562
 1461TIP3    H125798   6.258   3.132  12.806 -0.4803 -0.0487 -0.2191
 1461TIP3    H225799   6.326   3.208  12.918 -0.7265  1.2017 -0.9111
 1462TIP3   OH225800   0.101   6.636  12.906  0.1879 -0.0828 -0.0006
 1462TIP3    H125801   0.142   6.602  12.986  2.1783  0.9538 -0.4999
 1462TIP3    H225802   0.025   6.686  12.937 -0.1614 -1.2270  1.0698
 1463TIP3   OH225803   4.952   4.224   2.954  0.2785  0.4269 -0.1562
 1463TIP3    H125804   5.022   4.171   2.993  0.5875  1.9018  1.4314
 1463TIP3    H225805   4.883   4.162   2.934  0.5650 -0.5945  1.7688
 1464TIP3   OH225806   2.535   6.589   5.692  0.8534 -0.1346  0.1442
 1464TIP3    H125807   2.510   6.526   5.624 -1.0044  0.4694  0.2061
 1464TIP3    H225808   2.557   6.535   5.768 -0.8359 -0.7634  0.2351
 1465TIP3   OH225809   5.232   5.022  15.059  0.2865 -0.1972 -0.1202
 1465TIP3    H125810   5.210   4.982  14.974  2.9927 -1.8529 -0.1448
 1465TIP3    H225811   5.232   5.116  15.041  1.4498 -0.5181 -2.1853
 1466TIP3   OH225812   0.074   3.210   2.827 -0.2565 -0.4093  0.2390
 1466TIP3    H125813   0.071   3.119   2.799  0.1872 -0.3672  0.0353
 1466TIP3    H225814   0.150   3.246   2.781 -0.1740 -0.0497  0.6498
 1467TIP3   OH225815   0.255   4.954   4.606  0.3847  0.1930  0.5608
 1467TIP3    H125816   0.343   4.928   4.579 -0.5215 -0.2419 -2.3135
 1467TIP3    H225817   0.247   4.924   4.697  2.0090 -2.8601 -0.1945
 1468TIP3   OH225818   1.287   4.511  17.082 -0.5279 -0.3850 -0.4098
 1468TIP3    H125819   1.216   4.532  17.021  3.1832  1.2424 -4.7420
 1468TIP3    H225820   1.305   4.593  17.127 -0.5452 -0.4480 -0.2881
 1469TIP3   OH225821   5.870   6.162  14.023  0.5506 -0.5715 -0.3925
 1469TIP3    H125822   5.945   6.111  14.054 -0.9442 -0.6325  3.7818
 1469TIP3    H225823   5.794   6.117  14.060 -1.1614  2.2380 -0.2561
 1470TIP3   OH225824   5.777   5.678   1.328 -0.1962 -0.1377  0.2966
 1470TIP3    H125825   5.841   5.747   1.312  0.9993 -1.1292  0.6526
 1470TIP3    H225826   5.776   5.626   1.248 -1.0256  0.2186  0.0623
 1471TIP3   OH225827   0.011   0.251  14.783 -0.6469  0.3279 -0.0489
 1471TIP3    H125828  -0.039   0.171  14.797  0.2505 -0.2139  0.2003
 1471TIP3    H225829   0.032   0.282  14.871 -0.1895  0.3010 -0.1435
 1472TIP3   OH225830   2.781   0.311   3.578 -0.3405 -0.3547 -0.1509
 1472TIP3    H125831   2.845   0.273   3.519  0.5990  0.6390  0.2012
 1472TIP3    H225832   2.709   0.248   3.580 -0.2549 -0.5595 -2.0786
 1473TIP3   OH225833   1.386   1.650  12.210  0.6714  0.1168  0.3181
 1473TIP3    H125834   1.310   1.688  12.166 -0.0958 -1.1291  0.5212
 1473TIP3    H225835   1.351   1.577  12.261  2.1694 -1.4827 -0.7701
 1474TIP3   OH225836   6.450   3.295   6.207 -0.0540  0.2039  0.2370
 1474TIP3    H125837   6.356   3.279   6.195 -0.3006  1.0843  0.8975
 1474TIP3    H225838   6.492   3.250   6.133 -0.9357 -0.7883  0.3088
 1475TIP3   OH225839   2.696   4.384  16.278 -0.1827 -0.1379  0.4631
 1475TIP3    H125840   2.697   4.346  16.190 -0.2710 -0.6810  0.6930
 1475TIP3    H225841   2.626   4.449  16.275 -0.3965 -0.3780  0.2221
 1476TIP3   OH225842   0.998   4.268   1.481  0.3058 -0.0104  0.6438
 1476TIP3    H125843   1.013   4.287   1.388 -0.4835 -0.7505  0.3544
 1476TIP3    H225844   0.951   4.345   1.513 -1.0872 -0.5429 -0.0408
 1477TIP3   OH225845   3.316   1.539   5.626 -0.5796  0.3696  0.0384
 1477TIP3    H125846   3.317   1.630   5.656  0.9386  0.0191  1.1629
 1477TIP3    H225847   3.235   1.503   5.661 -1.9074  1.6012 -1.5649
 1478TIP3   OH225848   4.798   1.034  15.376 -0.6426  0.1358  0.3558
 1478TIP3    H125849   4.768   1.021  15.466  1.1798  0.0888  0.9926
 1478TIP3    H225850   4.888   1.001  15.375 -0.7529 -0.2609 -1.6037
 1479TIP3   OH225851   0.548   1.637   5.266 -0.2983  0.5889 -0.6500
 1479TIP3    H125852   0.596   1.562   5.301 -1.3321  0.5089  0.6472
 1479TIP3    H225853   0.559   1.630   5.171  1.8432  0.3094 -0.4330
 1480TIP3   OH225854   0.269   0.883  15.504 -0.0086 -0.1911  0.0222
 1480TIP3    H125855   0.252   0.825  15.578  0.8751 -1.6634 -0.8736
 1480TIP3    H225856   0.187   0.882  15.454  0.0214 -0.7306 -0.0195
 1481TIP3   OH225857   0.414   2.735   2.119 -0.1342  0.1856 -0.4366
 1481TIP3    H125858   0.471   2.760   2.046  0.8437 -1.6162 -0.3723
 1481TIP3    H225859   0.327   2.767   2.094 -0.1713 -1.6655 -3.1900
 1482TIP3   OH225860   5.642   1.627  12.765  0.4199  0.6944 -0.0930
 1482TIP3    H125861   5.568   1.612  12.707 -0.1603  2.7878  0.0399
 1482TIP3    H225862   5.719   1.617  12.709 -0.0298  0.1907 -0.6269
 1483TIP3   OH225863   5.035   2.211  16.882  0.9570  0.1292  0.0816
 1483TIP3    H125864   5.063   2.224  16.791  0.4166 -2.1440 -0.4681
 1483TIP3    H225865   5.102   2.155  16.920 -0.6497 -2.0512 -0.0803
 1484TIP3   OH225866   2.125   6.066   4.448 -0.2110 -0.0017  0.1456
 1484TIP3    H125867   2.188   6.061   4.376 -0.6714 -1.2519 -0.2057
 1484TIP3    H225868   2.096   6.157   4.449  0.3356  0.1955 -0.7856
 1485TIP3   OH225869   1.965   1.822   2.354  0.2550 -0.1713 -0.6192
 1485TIP3    H125870   2.047   1.858   2.319  0.5725  0.1563  0.4337
 1485TIP3    H225871   1.986   1.731   2.375  1.1902  0.5820  2.1436
 1486TIP3   OH225872   3.646   1.971  11.098 -0.3056 -0.6032 -0.4700
 1486TIP3    H125873   3.591   2.049  11.103  0.3619 -0.1901  1.3579
 1486TIP3    H225874   3.668   1.952  11.189  1.9580 -1.1981 -1.0861
 1487TIP3   OH225875   1.687   4.482  14.141 -0.2360 -0.1020  0.0274
 1487TIP3    H125876   1.730   4.519  14.218  2.0755 -1.2463 -0.6175
 1487TIP3    H225877   1.722   4.533  14.067 -0.9356 -0.2642 -0.4229
 1488TIP3   OH225878   2.637   5.564   5.771  0.5541  0.9026 -0.0141
 1488TIP3    H125879   2.670   5.474   5.779  0.0601  0.2406 -3.8208
 1488TIP3    H225880   2.545   5.558   5.797 -0.2151 -0.3861 -2.7206
 1489TIP3   OH225881   0.050   4.089   5.535 -0.2372 -0.2075  0.3990
 1489TIP3    H125882   0.075   4.055   5.621  0.4615  0.5364  0.5111
 1489TIP3    H225883  -0.023   4.148   5.553 -0.9891 -1.0934  0.2955
 1490TIP3   OH225884   6.375   1.376  15.379  0.0358 -0.0972 -0.4490
 1490TIP3    H125885   6.382   1.442  15.310 -0.4657  1.3251  0.7833
 1490TIP3    H225886   6.296   1.327  15.357 -1.1166  1.4679 -0.0369
 1491TIP3   OH225887   5.709   1.786  11.504 -0.7899 -0.1055 -0.5759
 1491TIP3    H125888   5.683   1.716  11.563 -0.3731  0.2113 -0.0030
 1491TIP3    H225889   5.642   1.788  11.436 -0.9653 -0.8498 -0.4225
 1492TIP3   OH225890   5.484   0.591  15.359 -0.3106 -0.1451  0.2072
 1492TIP3    H125891   5.519   0.573  15.446  0.6308  1.0188  0.0998
 1492TIP3    H225892   5.526   0.525  15.303  0.1990 -0.0023  0.4113
 1493TIP3   OH225893   5.409   1.224  13.688  0.4666  0.2146  0.5225
 1493TIP3    H125894   5.337   1.288  13.693  0.2361  0.1190 -0.9712
 1493TIP3    H225895   5.401   1.172  13.768 -2.2117 -0.9017 -0.3446
 1494TIP3   OH225896   6.249   1.180   6.054  0.4138 -0.7465  0.1993
 1494TIP3    H125897   6.303   1.133   5.992  2.2388  1.1292  0.2808
 1494TIP3    H225898   6.171   1.205   6.004  1.2532 -0.3925 -0.9713
 1495TIP3   OH225899   1.208   3.955  17.143 -0.0076 -0.1037  0.0330
 1495TIP3    H125900   1.226   3.865  17.114 -0.0729  0.1037 -0.6724
 1495TIP3    H225901   1.116   3.969  17.120  0.0845  0.2436 -0.1247
 1496TIP3   OH225902   6.300   2.006  14.306  0.0335  0.3151  0.1778
 1496TIP3    H125903   6.231   1.950  14.339  0.8236 -0.5852  0.3368
 1496TIP3    H225904   6.355   1.949  14.252  2.5163  0.1598  2.6414
 1497TIP3   OH225905   5.694   2.193  16.640 -0.0990  0.3375  0.5782
 1497TIP3    H125906   5.648   2.127  16.588 -0.5442  1.0361  0.0762
 1497TIP3    H225907   5.713   2.148  16.723  1.5444 -1.1308 -0.5094
 1498TIP3   OH225908   5.835   0.604  11.543 -0.1482  0.0647 -0.3774
 1498TIP3    H125909   5.909   0.664  11.538  0.5623 -0.6710  0.6710
 1498TIP3    H225910   5.761   0.653  11.507  0.9974  0.5229 -2.2483
 1499TIP3   OH225911   6.060   5.939   0.705 -0.6866 -0.7477  0.4178
 1499TIP3    H125912   6.135   5.906   0.754 -1.7213 -2.3765  0.9676
 1499TIP3    H225913   5.987   5.882   0.730 -1.9267  0.2439 -0.7545
 1500TIP3   OH225914   1.614   4.563   5.756 -0.0563 -0.0461 -0.1523
 1500TIP3    H125915   1.537   4.552   5.811  0.2032 -1.9690 -0.1160
 1500TIP3    H225916   1.602   4.649   5.715 -1.7049  0.1289  0.6218
 1501TIP3   OH225917   5.701   2.191   2.029  0.3372  0.6961  0.4068
 1501TIP3    H125918   5.698   2.276   2.072 -0.0130  0.7824  0.2203
 1501TIP3    H225919   5.671   2.209   1.940  0.6288  0.4438  0.2570
 1502TIP3   OH225920   6.660   1.433  10.953 -0.5210  0.3717  0.0862
 1502TIP3    H125921   6.597   1.385  10.899 -0.4027  1.3197 -0.9324
 1502TIP3    H225922   6.746   1.400  10.924 -0.4647  0.7553 -0.1949
 1503TIP3   OH225923   4.955   6.044   4.814  1.3973  0.2871  0.1052
 1503TIP3    H125924   4.991   6.020   4.729 -1.2102 -2.6138 -0.3404
 1503TIP3    H225925   4.878   5.988   4.825  0.5927  1.7914  3.6193
 1504TIP3   OH225926   5.005   2.551   2.634 -0.0410 -0.1880 -0.2068
 1504TIP3    H125927   4.921   2.519   2.601 -0.9183  1.1060  0.6660
 1504TIP3    H225928   5.041   2.477   2.684 -0.9858 -0.5314 -0.0129
 1505TIP3   OH225929   0.274   5.818   4.700  0.1819 -0.3967  0.1271
 1505TIP3    H125930   0.223   5.827   4.781 -1.8375  0.9069 -1.1992
 1505TIP3    H225931   0.222   5.864   4.634  2.6811  0.1927 -1.5472
 1506TIP3   OH225932   1.370   1.737   1.974  0.3759  0.4495 -0.3968
 1506TIP3    H125933   1.461   1.762   1.991  0.2657  2.4256 -2.2369
 1506TIP3    H225934   1.361   1.745   1.879 -1.1403 -1.9678 -0.5501
 1507TIP3   OH225935   5.348   3.864  14.891 -0.4627  0.5662 -0.1020
 1507TIP3    H125936   5.257   3.894  14.893 -0.2334  1.2713  0.4989
 1507TIP3    H225937   5.348   3.789  14.832 -1.2686  1.1198 -0.8378
 1508TIP3   OH225938   4.474   5.740  16.153 -0.4358 -0.0618  0.2847
 1508TIP3    H125939   4.566   5.729  16.127 -0.4755 -1.2241  0.5765
 1508TIP3    H225940   4.479   5.784  16.238 -0.1337 -0.2805  0.3845
 1509TIP3   OH225941   1.964   4.312  14.153 -0.5911 -0.3362 -0.8254
 1509TIP3    H125942   1.890   4.265  14.115 -2.4621 -0.4779  2.6132
 1509TIP3    H225943   1.955   4.402  14.121 -4.4806  0.5330  2.0535
 1510TIP3   OH225944   4.135   5.740   6.795 -0.5518  0.3877 -0.5640
 1510TIP3    H125945   4.164   5.831   6.796  0.2184  0.1532 -0.4836
 1510TIP3    H225946   4.040   5.744   6.800 -0.4587  1.1513  1.9339
 1511TIP3   OH225947   4.041   4.260   0.547  0.7939  0.1148  0.3011
 1511TIP3    H125948   4.132   4.269   0.521  1.2345  0.0329  1.7342
 1511TIP3    H225949   4.044   4.221   0.634 -0.5769  0.9909  0.7778
 1512TIP3   OH225950   1.829   1.558  14.995  0.0673 -0.1241  0.2855
 1512TIP3    H125951   1.805   1.624  14.931  0.2114 -1.3131 -1.0342
 1512TIP3    H225952   1.817   1.601  15.080  0.9448  1.8574 -0.5328
 1513TIP3   OH225953   5.201   0.196  12.352  0.7502  0.0797  0.0616
 1513TIP3    H125954   5.175   0.280  12.312 -0.8560 -0.9190 -1.0972
 1513TIP3    H225955   5.128   0.137  12.333  0.7812 -0.9979  2.8758
 1514TIP3   OH225956   0.576   3.510   4.353 -0.2913 -0.0158  0.2135
 1514TIP3    H125957   0.605   3.472   4.270  0.5802 -0.7170  0.8251
 1514TIP3    H225958   0.657   3.536   4.397 -0.8451  3.0141 -0.3601
 1515TIP3   OH225959   0.221   1.444  11.289 -0.0772  0.5305  0.0164
 1515TIP3    H125960   0.287   1.416  11.351 -1.8525 -2.6104  0.6947
 1515TIP3    H225961   0.261   1.432  11.203 -0.1331 -2.7714  0.3482
 1516TIP3   OH225962   1.223   2.210   2.621  0.2257  0.0365 -0.3759
 1516TIP3    H125963   1.148   2.247   2.668  1.0161 -0.2924  1.2078
 1516TIP3    H225964   1.299   2.233   2.675  1.1181 -0.8215 -1.2202
 1517TIP3   OH225965   3.391   6.516   6.023 -0.2021  0.3695 -0.3413
 1517TIP3    H125966   3.297   6.500   6.011 -0.1085 -0.1353 -0.4629
 1517TIP3    H225967   3.424   6.531   5.934 -0.2017  0.7403 -0.2780
 1518TIP3   OH225968   6.129   4.440   6.021  0.1450  0.2747  0.2779
 1518TIP3    H125969   6.200   4.452   6.084  1.5193 -0.4640 -1.0549
 1518TIP3    H225970   6.058   4.400   6.072  0.8325  0.6277  1.5592
 1519TIP3   OH225971   1.736   4.352  16.615  0.1552 -0.1317  0.2350
 1519TIP3    H125972   1.677   4.395  16.677  0.1610 -2.4439  1.9847
 1519TIP3    H225973   1.794   4.422  16.585 -1.9803  1.7373  0.2117
 1520TIP3   OH225974   5.134   5.027  16.961 -0.4196 -0.3808  0.3908
 1520TIP3    H125975   5.071   5.091  16.992 -0.9361  0.5543 -2.3496
 1520TIP3    H225976   5.086   4.944  16.961 -1.3358  0.1216 -0.5814
 1521TIP3   OH225977   1.306   4.292   4.832  0.4612 -0.1251  0.0564
 1521TIP3    H125978   1.316   4.319   4.924  3.5337 -1.1495  0.1527
 1521TIP3    H225979   1.250   4.215   4.836  0.9978 -0.4845  1.1904
 1522TIP3   OH225980   1.363   0.870  13.559 -0.2433  0.5638  0.1491
 1522TIP3    H125981   1.311   0.946  13.536 -0.0489  0.6393 -0.0416
 1522TIP3    H225982   1.360   0.866  13.655 -1.7072 -0.2075  0.0915
 1523TIP3   OH225983   1.858   2.349   2.010 -0.4740 -0.0537  0.5333
 1523TIP3    H125984   1.796   2.416   2.037  0.5101  0.7184  0.9025
 1523TIP3    H225985   1.944   2.386   2.027  0.1341 -2.2481  2.9637
 1524TIP3   OH225986   4.028   2.910   1.614 -0.4536 -0.3804  0.2201
 1524TIP3    H125987   4.097   2.921   1.549 -2.0911 -0.8281 -1.7137
 1524TIP3    H225988   4.049   2.973   1.683  2.1081 -0.8419 -0.0285
 1525TIP3   OH225989   5.578   5.543  16.063 -0.5783  0.0501 -0.5520
 1525TIP3    H125990   5.566   5.518  15.971  0.2499  1.1416 -0.9759
 1525TIP3    H225991   5.582   5.638  16.062  1.5014  0.0156  0.3441
 1526TIP3   OH225992   6.248   2.115   4.527 -0.6072 -0.2628  0.1313
 1526TIP3    H125993   6.232   2.103   4.433  0.8888  0.7126 -0.2908
 1526TIP3    H225994   6.192   2.050   4.570  1.1835 -3.1579 -1.5789
 1527TIP3   OH225995   0.349   5.129   6.240  0.0508 -0.2602  0.3328
 1527TIP3    H125996   0.278   5.065   6.240  0.0658 -0.2818 -0.3095
 1527TIP3    H225997   0.423   5.084   6.200 -0.7722  1.0195 -2.9354
 1528TIP3   OH225998   3.354   6.497   5.736 -0.8377 -0.3597  0.8219
 1528TIP3    H125999   3.350   6.580   5.690  0.2333 -0.6812  0.1241
 1528TIP3    H226000   3.262   6.474   5.753 -1.2758 -0.3034 -1.2778
 1529TIP3   OH226001   4.198   4.067  11.075 -0.4266  0.3881 -0.5196
 1529TIP3    H126002   4.203   4.000  11.142  2.3323  0.5069 -0.4552
 1529TIP3    H226003   4.122   4.120  11.099 -0.7754 -0.8303  1.2691
 1530TIP3   OH226004   0.952   6.472   3.656 -0.0102  0.3603  0.2631
 1530TIP3    H126005   0.948   6.510   3.744  0.0147 -1.7878  1.2574
 1530TIP3    H226006   1.025   6.517   3.614  1.8766 -0.4834  2.3915
 1531TIP3   OH226007   3.939   5.167   0.937  0.0026 -0.3832 -0.0450
 1531TIP3    H126008   4.020   5.119   0.918  1.4646  1.2248  1.6943
 1531TIP3    H226009   3.884   5.104   0.984  1.1467 -0.9078  0.6332
 1532TIP3   OH226010   0.253   5.649  16.025  0.1572 -0.1938  0.0818
 1532TIP3    H126011   0.326   5.644  16.087  0.2551 -2.3838 -0.1264
 1532TIP3    H226012   0.201   5.571  16.043  0.7176 -1.4699 -3.1361
 1533TIP3   OH226013   3.806   2.976  11.589 -0.2694  0.9762  0.1864
 1533TIP3    H126014   3.733   2.914  11.592 -0.1164  0.7800 -0.0320
 1533TIP3    H226015   3.875   2.933  11.641  0.8157 -0.3489 -2.1527
 1534TIP3   OH226016   2.140   1.592  17.085 -0.4461 -0.1778 -0.2764
 1534TIP3    H126017   2.093   1.605  17.003  0.9951 -1.2442 -1.3401
 1534TIP3    H226018   2.232   1.584  17.059  0.1471  0.2322  1.5363
 1535TIP3   OH226019   6.471   1.173  12.082 -0.2500  0.4585  0.5338
 1535TIP3    H126020   6.531   1.150  12.154 -0.6369  0.0599  0.7302
 1535TIP3    H226021   6.522   1.157  12.003 -0.3499 -0.6344  0.6789
 1536TIP3   OH226022   3.165   3.323  11.791 -0.8045 -0.2939  0.3622
 1536TIP3    H126023   3.231   3.289  11.851  1.7165 -1.3191 -2.7062
 1536TIP3    H226024   3.125   3.245  11.753 -2.6555  0.3304  0.9451
 1537TIP3   OH226025   0.665   2.233   0.089  0.4609  0.4680 -0.2151
 1537TIP3    H126026   0.583   2.234   0.041  0.1920  0.8352  0.2432
 1537TIP3    H226027   0.719   2.168   0.043  0.0015  0.3858 -0.6503
 1538TIP3   OH226028   1.394   0.798   1.219  0.2598  0.0235 -0.2557
 1538TIP3    H126029   1.455   0.833   1.283 -0.9813 -3.4463  3.2569
 1538TIP3    H226030   1.446   0.733   1.170  0.5161  0.5758 -0.7222
 1539TIP3   OH226031   3.250   3.565   2.062 -0.3908 -0.1597  0.1305
 1539TIP3    H126032   3.233   3.610   1.979  1.4288  0.7803  0.2113
 1539TIP3    H226033   3.263   3.473   2.038 -0.6969 -0.0350 -0.5182
 1540TIP3   OH226034   0.544   0.478  14.024  0.1791 -0.1139 -0.0658
 1540TIP3    H126035   0.568   0.522  14.106  1.3330  0.6789 -0.8011
 1540TIP3    H226036   0.473   0.531  13.988  0.2659  0.0395 -0.0107
 1541TIP3   OH226037   2.151   2.168   0.151  0.0832  0.0920 -0.3342
 1541TIP3    H126038   2.228   2.112   0.162  0.9728  1.1985 -0.7450
 1541TIP3    H226039   2.176   2.252   0.191 -1.1616  0.2652  0.1317
 1542TIP3   OH226040   0.991   4.737   0.496 -0.1637  0.3589 -0.1948
 1542TIP3    H126041   0.977   4.816   0.443 -0.6243  0.3210 -0.1364
 1542TIP3    H226042   0.927   4.745   0.567  0.9242  0.7537  0.7559
 1543TIP3   OH226043   5.145   0.490  17.025 -0.3392 -0.0400  0.5079
 1543TIP3    H126044   5.120   0.572  17.068 -0.5610 -0.0297  0.3569
 1543TIP3    H226045   5.062   0.445  17.008 -0.3199  0.3082 -0.6189
 1544TIP3   OH226046   4.973   1.257   1.415  0.0803 -0.5077  0.3719
 1544TIP3    H126047   4.937   1.339   1.382  1.4275 -0.2263 -0.4650
 1544TIP3    H226048   4.899   1.196   1.414 -0.3557 -0.0044 -1.4639
 1545TIP3   OH226049   0.841   4.781  12.409  0.4783 -0.2558 -0.2609
 1545TIP3    H126050   0.797   4.704  12.444 -0.5426 -0.4242 -1.8106
 1545TIP3    H226051   0.929   4.751  12.388  0.2050 -0.9059 -0.5033
 1546TIP3   OH226052   5.512   1.861  12.314  0.2715 -0.0232 -0.1935
 1546TIP3    H126053   5.603   1.858  12.285  0.7672 -0.7190  1.3723
 1546TIP3    H226054   5.473   1.933  12.263  1.0569 -1.1716 -2.5714
 1547TIP3   OH226055   0.124   6.438   6.676 -0.7056 -0.0980 -1.2345
 1547TIP3    H126056   0.150   6.346   6.669  0.2573 -0.0777  0.9811
 1547TIP3    H226057   0.179   6.483   6.612  1.8276 -0.6307  0.4108
 1548TIP3   OH226058   5.118   3.629  10.832 -0.2061 -0.0881 -0.1855
 1548TIP3    H126059   5.033   3.665  10.806 -0.3563 -0.3172 -0.0080
 1548TIP3    H226060   5.180   3.701  10.815 -0.2791 -0.2724 -1.2932
 1549TIP3   OH226061   6.374   2.975   2.275 -0.5478 -0.2583 -0.3797
 1549TIP3    H126062   6.287   2.998   2.243 -0.8552 -0.4717  0.2781
 1549TIP3    H226063   6.401   3.050   2.329  0.1434  0.2860 -1.4380
 1550TIP3   OH226064   6.739   4.658  16.321  0.8990  0.1294 -0.3970
 1550TIP3    H126065   6.731   4.584  16.381 -0.7078 -0.7283 -1.5809
 1550TIP3    H226066   6.693   4.729  16.366 -2.6927 -1.2164 -1.5457
 1551TIP3   OH226067   1.163   3.110   1.607 -0.1456 -0.1177  0.3968
 1551TIP3    H126068   1.142   3.117   1.700  1.0822 -0.2268  0.6940
 1551TIP3    H226069   1.106   3.174   1.565 -0.7986 -0.1547  1.2079
 1552TIP3   OH226070   5.640   4.165  12.033 -0.4297 -0.0949  0.2598
 1552TIP3    H126071   5.645   4.248  11.986  1.1691  0.1964  0.8878
 1552TIP3    H226072   5.546   4.146  12.038 -0.6999  0.1118 -2.5430
 1553TIP3   OH226073   1.075   1.560   4.711  0.6037 -0.8632 -0.7010
 1553TIP3    H126074   1.084   1.601   4.797  0.7875 -1.1604 -0.5760
 1553TIP3    H226075   1.102   1.627   4.649  0.2173 -0.5575 -0.5461
 1554TIP3   OH226076   1.615   4.666   2.614 -0.2651  0.3711 -0.7840
 1554TIP3    H126077   1.646   4.699   2.529  1.5964 -1.7518 -1.0439
 1554TIP3    H226078   1.648   4.730   2.677  1.9682 -0.0903 -1.3727
 1555TIP3   OH226079   2.223   3.495  11.707 -0.0829 -0.6069  0.3777
 1555TIP3    H126080   2.149   3.554  11.721  0.6722  0.5877 -0.4432
 1555TIP3    H226081   2.276   3.504  11.787  1.7870  2.5616 -1.0170
 1556TIP3   OH226082   4.170   2.610  13.674 -0.0625 -0.2788 -0.6324
 1556TIP3    H126083   4.192   2.539  13.614  1.2151 -1.2468  0.8864
 1556TIP3    H226084   4.195   2.577  13.760 -0.2742  1.6813  0.2404
 1557TIP3   OH226085   0.814   3.113  17.200 -0.4147 -0.6491  0.2286
 1557TIP3    H126086   0.723   3.129  17.175 -0.6448  1.2679  2.0019
 1557TIP3    H226087   0.840   3.036  17.149 -2.7999 -0.8500 -0.8165
 1558TIP3   OH226088   1.718   5.704  13.772  0.2659  0.0363  0.9707
 1558TIP3    H126089   1.773   5.737  13.701 -2.5159 -0.9082 -1.8877
 1558TIP3    H226090   1.651   5.771  13.784 -1.0155 -1.1332  0.5382
 1559TIP3   OH226091   4.343   6.174  12.740  0.1501  0.1312 -0.4561
 1559TIP3    H126092   4.377   6.105  12.683  0.4272  0.7134 -1.0170
 1559TIP3    H226093   4.318   6.129  12.820 -0.6153 -0.7798 -1.1746
 1560TIP3   OH226094   3.426   6.223  17.209 -0.2138  0.1052  0.5595
 1560TIP3    H126095   3.426   6.286  17.136 -2.6148  1.3401  1.5245
 1560TIP3    H226096   3.489   6.259  17.271  1.3179 -0.5787 -0.5241
 1561TIP3   OH226097   5.020   0.262  15.620 -0.0189  0.0227 -0.5265
 1561TIP3    H126098   4.946   0.203  15.628 -1.8714  2.4715  1.9261
 1561TIP3    H226099   5.004   0.310  15.538 -1.4635  0.8740  0.2297
 1562TIP3   OH226100   2.763   3.504  12.702  0.2583 -0.0756  0.1964
 1562TIP3    H126101   2.722   3.587  12.724  1.3631  0.9589 -1.4167
 1562TIP3    H226102   2.853   3.527  12.679  0.8699 -1.8640  0.6404
 1563TIP3   OH226103   2.768   4.987  11.262  0.2612 -0.2128 -0.5190
 1563TIP3    H126104   2.683   5.025  11.239 -0.3068 -1.0730  0.0694
 1563TIP3    H226105   2.807   4.962  11.179 -0.0038  0.3149 -0.8059
 1564TIP3   OH226106   6.573   4.163  12.810  0.2355 -0.5605  0.1140
 1564TIP3    H126107   6.651   4.109  12.824  1.7310  1.2102 -0.9380
 1564TIP3    H226108   6.534   4.171  12.897  0.6585 -2.2556  0.5003
 1565TIP3   OH226109   2.984   0.229  16.136 -0.0805 -0.1120 -0.2816
 1565TIP3    H126110   2.916   0.274  16.187  1.1644 -0.3748  1.6808
 1565TIP3    H226111   2.936   0.191  16.063 -2.0284 -0.0883  0.8986
 1566TIP3   OH226112   4.932   1.924   3.554 -0.3729 -0.2344  0.0972
 1566TIP3    H126113   4.902   1.925   3.463 -1.7985  0.5980  0.5401
 1566TIP3    H226114   4.977   2.008   3.565  0.1343 -0.4973  0.0696
 1567TIP3   OH226115   2.133   3.160  12.114 -0.3144  0.2791 -0.3240
 1567TIP3    H126116   2.206   3.218  12.136  0.7912 -1.3822  0.6358
 1567TIP3    H226117   2.172   3.093  12.058 -0.8807 -1.0506  0.8072
 1568TIP3   OH226118   5.488   3.323  17.315  0.7448  0.5932 -0.3296
 1568TIP3    H126119   5.414   3.262  17.316 -0.0579  1.5171 -1.1066
 1568TIP3    H226120   5.550   3.287  17.379 -0.7031  0.2122  0.9105
 1569TIP3   OH226121   1.839   2.016   4.567  0.4711  0.5812  0.0004
 1569TIP3    H126122   1.929   2.021   4.598 -0.2611 -0.0485  2.4088
 1569TIP3    H226123   1.786   2.053   4.637 -1.3364 -1.2500 -0.2839
 1570TIP3   OH226124   0.490   1.029  14.675 -0.2868  0.1233 -0.5929
 1570TIP3    H126125   0.516   1.118  14.651  1.8830 -0.2980 -0.0952
 1570TIP3    H226126   0.549   1.006  14.747 -0.7097 -1.7475 -0.7841
 1571TIP3   OH226127   2.242   4.118  16.629 -0.0267  0.2437  0.0755
 1571TIP3    H126128   2.313   4.165  16.586 -0.3001 -0.8660 -1.6838
 1571TIP3    H226129   2.266   4.118  16.722  0.5225  2.8440  0.0080
 1572TIP3   OH226130   0.885   2.091  13.838  0.1638  0.0617 -0.3016
 1572TIP3    H126131   0.914   2.166  13.890  1.0462 -0.4304 -0.0609
 1572TIP3    H226132   0.805   2.120  13.796  1.4406  1.7987 -1.6741
 1573TIP3   OH226133   2.926   6.219  16.869 -0.1453  0.1032  0.5091
 1573TIP3    H126134   3.007   6.176  16.844 -0.3157  0.8106 -1.4455
 1573TIP3    H226135   2.944   6.313  16.858 -1.0378  0.2998  0.6238
 1574TIP3   OH226136   0.855   0.361  14.011  0.8487 -0.3945 -0.2145
 1574TIP3    H126137   0.903   0.282  13.984 -1.0943 -1.5297 -0.5687
 1574TIP3    H226138   0.766   0.347  13.977 -0.3626  0.4979  2.3806
 1575TIP3   OH226139   4.445   6.325   0.682  0.3928 -0.2204 -0.1373
 1575TIP3    H126140   4.477   6.414   0.667  0.9458 -0.5143 -0.7390
 1575TIP3    H226141   4.353   6.328   0.654  0.4384  0.1328 -0.2601
 1576TIP3   OH226142   3.563   2.101  16.606  0.3050 -0.0400 -0.4831
 1576TIP3    H126143   3.512   2.160  16.661  0.0307 -0.6545 -0.0661
 1576TIP3    H226144   3.621   2.159  16.556 -0.9819  0.7014 -1.1734
 1577TIP3   OH226145   6.266   5.149  16.984 -0.1088  0.7231  0.0031
 1577TIP3    H126146   6.252   5.097  16.905 -0.5551  0.2988  0.3538
 1577TIP3    H226147   6.308   5.089  17.045 -0.7752  0.7123  0.4652
 1578TIP3   OH226148   1.318   2.892  12.941  0.3416  0.4687 -0.2134
 1578TIP3    H126149   1.338   2.986  12.941 -0.8555  0.7642  0.9317
 1578TIP3    H226150   1.355   2.859  12.860 -1.5603  2.4655 -2.0134
 1579TIP3   OH226151   5.581   2.759  12.014 -0.2093  0.1043  0.1073
 1579TIP3    H126152   5.635   2.833  11.987  0.2930 -0.6429 -1.0075
 1579TIP3    H226153   5.550   2.783  12.101  1.7059  0.6720  0.6885
 1580TIP3   OH226154   2.319   1.461   1.593  0.2469  0.5432 -0.3408
 1580TIP3    H126155   2.381   1.431   1.660  1.6387  1.2342 -1.2801
 1580TIP3    H226156   2.315   1.556   1.605 -1.6204  0.3986  0.4974
 1581TIP3   OH226157   6.738   4.693   2.145  0.4950  0.7878  0.0592
 1581TIP3    H126158   6.833   4.687   2.154  0.4189 -0.0338  0.4129
 1581TIP3    H226159   6.708   4.732   2.228  0.5022  0.8206  0.0464
 1582TIP3   OH226160   0.802   2.064   2.590  0.0431 -0.0928 -0.1588
 1582TIP3    H126161   0.792   2.039   2.682  0.9531  0.3878  0.0805
 1582TIP3    H226162   0.766   2.152   2.586  0.6779  0.1756 -0.0951
 1583TIP3   OH226163   5.296   0.210   0.053  0.1530 -0.0579  0.1460
 1583TIP3    H126164   5.290   0.228   0.146  0.9326 -0.1761  0.2293
 1583TIP3    H226165   5.385   0.236   0.029 -0.5124  1.4689 -0.8990
 1584TIP3   OH226166   4.923   4.489  14.105 -0.2962 -0.2614 -0.0630
 1584TIP3    H126167   4.840   4.536  14.104 -0.1561 -0.0135 -0.1507
 1584TIP3    H226168   4.900   4.401  14.135 -0.2715  0.3915  2.0289
 1585TIP3   OH226169   1.396   5.039  12.174 -0.1216  0.0669 -0.5391
 1585TIP3    H126170   1.345   4.966  12.137  0.8194 -0.4304 -0.9009
 1585TIP3    H226171   1.444   5.000  12.247 -0.6476  0.6495  0.1273
 1586TIP3   OH226172   4.565   0.151   1.679 -0.9202  0.1767  0.3780
 1586TIP3    H126173   4.547   0.194   1.763 -1.3281 -0.1756  0.4733
 1586TIP3    H226174   4.654   0.178   1.657 -0.2311 -0.9089  1.6708
 1587TIP3   OH226175   3.080   0.226   0.658 -0.1475 -0.5775 -0.2395
 1587TIP3    H126176   3.047   0.281   0.729  0.3083  1.0663 -1.2446
 1587TIP3    H226177   3.161   0.189   0.693 -0.2608 -0.3131  0.3281
 1588TIP3   OH226178   6.504   3.675   0.389  0.0727 -0.3250 -0.3675
 1588TIP3    H126179   6.475   3.586   0.408  0.3128 -0.1683  0.8020
 1588TIP3    H226180   6.591   3.680   0.429  0.8240 -0.1103 -1.9400
 1589TIP3   OH226181   5.016   6.669   0.397  0.6103 -0.1606  0.1386
 1589TIP3    H126182   5.083   6.602   0.415 -0.4340 -0.8648  1.5300
 1589TIP3    H226183   5.031   6.693   0.305  1.8382 -1.3592 -0.0087
 1590TIP3   OH226184   3.626   5.875   3.146  0.3613 -0.0560  0.1867
 1590TIP3    H126185   3.642   5.934   3.072  1.9240 -0.1186  0.4459
 1590TIP3    H226186   3.582   5.929   3.212  1.4781  0.7360  0.2950
 1591TIP3   OH226187   3.258   0.549  16.390  0.3040  0.1404  0.2422
 1591TIP3    H126188   3.308   0.566  16.310 -0.0586 -0.0638 -0.0289
 1591TIP3    H226189   3.226   0.635  16.417 -0.5041  0.0654 -0.4503
 1592TIP3   OH226190   1.900   1.117   0.409  0.2455 -0.7943 -0.0558
 1592TIP3    H126191   1.890   1.024   0.426 -1.3457 -0.7858 -0.7883
 1592TIP3    H226192   1.973   1.122   0.347  0.0847 -1.5904 -0.3249
 1593TIP3   OH226193   1.259   3.594   2.343 -0.2746  0.0099 -0.1592
 1593TIP3    H126194   1.336   3.642   2.315  0.5831 -0.1165  1.8210
 1593TIP3    H226195   1.238   3.536   2.269  0.8719  0.7914 -1.1324
 1594TIP3   OH226196   0.876   3.402  12.971 -0.3531 -0.1941  0.6529
 1594TIP3    H126197   0.921   3.387  13.054 -1.0921  0.9736  1.3055
 1594TIP3    H226198   0.879   3.497  12.960  0.0894 -0.3691 -0.8806
 1595TIP3   OH226199   4.980   2.248   3.906 -0.0006 -0.1330  0.6310
 1595TIP3    H126200   4.914   2.300   3.952 -1.3031 -2.7922  2.0058
 1595TIP3    H226201   4.934   2.215   3.828  0.8641  0.8285 -0.3201
 1596TIP3   OH226202   4.806   0.551   6.168 -0.4599  1.1578 -0.2877
 1596TIP3    H126203   4.810   0.461   6.200 -4.3420  1.1675  0.7529
 1596TIP3    H226204   4.851   0.550   6.084  0.4333 -1.4816  0.1458
 1597TIP3   OH226205   1.137   0.876   6.113  0.0609  0.2643  0.4882
 1597TIP3    H126206   1.062   0.853   6.167 -0.1966 -1.0286 -0.3692
 1597TIP3    H226207   1.198   0.920   6.172 -0.7793  0.0955  1.4956
 1598TIP3   OH226208   3.632   0.599  14.691 -0.7626  0.0828  0.1294
 1598TIP3    H126209   3.672   0.512  14.696 -0.7021  0.1559  0.9742
 1598TIP3    H226210   3.639   0.634  14.779 -1.7979  0.5032  0.0564
 1599TIP3   OH226211   0.318   5.039   1.500  0.6159 -1.6310  0.0844
 1599TIP3    H126212   0.393   5.034   1.440  1.0971 -1.3519  0.6523
 1599TIP3    H226213   0.351   5.087   1.576 -0.4967 -0.3862 -0.1755
 1600TIP3   OH226214   0.810   1.469  11.383  0.2316 -0.1071  0.5331
 1600TIP3    H126215   0.876   1.429  11.326  0.0403  0.3206  0.0020
 1600TIP3    H226216   0.855   1.542  11.425 -0.1246  0.7451 -0.5101
 1601TIP3   OH226217   3.404   5.069   2.860 -0.2288 -0.4939 -0.0450
 1601TIP3    H126218   3.485   5.062   2.910 -0.7572 -0.6003  0.8123
 1601TIP3    H226219   3.358   5.145   2.897  0.3173  0.7586 -1.7840
 1602TIP3   OH226220   6.243   5.182  13.349  0.0277  0.3174  0.1828
 1602TIP3    H126221   6.160   5.217  13.380  0.2392 -0.8564  2.3222
 1602TIP3    H226222   6.220   5.097  13.310  0.1329  0.3397  0.0721
 1603TIP3   OH226223   1.308   5.752   2.096 -0.0026 -0.2641  0.2554
 1603TIP3    H126224   1.389   5.787   2.060  0.9083 -1.0417  1.5060
 1603TIP3    H226225   1.278   5.819   2.158  0.0607 -0.2951  0.3195
 1604TIP3   OH226226   5.585   5.669   5.460 -0.0494  0.5628  0.5699
 1604TIP3    H126227   5.518   5.721   5.505 -1.6090 -1.4890  0.7777
 1604TIP3    H226228   5.646   5.643   5.530  1.6001  3.1712  0.2422
 1605TIP3   OH226229   2.669   0.308   4.060 -0.8638  0.2302  0.0749
 1605TIP3    H126230   2.668   0.395   4.100  0.5262  0.2202  0.1882
 1605TIP3    H226231   2.643   0.323   3.969 -0.8453  0.7356  0.1509
 1606TIP3   OH226232   1.407   5.220  14.620  0.6548 -0.1174 -0.6071
 1606TIP3    H126233   1.402   5.315  14.625 -1.1140 -0.2367  0.8927
 1606TIP3    H226234   1.377   5.189  14.705  1.8078 -2.0316 -0.8163
 1607TIP3   OH226235   3.923   3.975   3.454 -0.0136 -0.4508 -0.1112
 1607TIP3    H126236   3.970   4.010   3.529  3.0076  0.0129 -2.0271
 1607TIP3    H226237   3.909   3.883   3.475  0.8752 -0.3559  0.9919
 1608TIP3   OH226238   4.103   0.552  16.133 -0.0689 -0.5495  0.1271
 1608TIP3    H126239   4.154   0.562  16.213 -0.9721  0.7350  0.5729
 1608TIP3    H226240   4.156   0.495  16.077  0.2031 -2.1588  1.9347
 1609TIP3   OH226241   3.594   4.733   5.803 -1.0153  0.2554  0.3499
 1609TIP3    H126242   3.550   4.719   5.720 -0.5394  0.6129  0.0296
 1609TIP3    H226243   3.686   4.710   5.786 -0.4675  2.3447  0.1619
 1610TIP3   OH226244   3.291   6.583   4.375 -0.2359 -0.4582  0.2872
 1610TIP3    H126245   3.285   6.537   4.459  0.1970 -1.0284  0.0144
 1610TIP3    H226246   3.343   6.661   4.395  0.3972 -0.9066  0.4242
 1611TIP3   OH226247   5.713   6.042   6.188  0.1878 -0.2072 -0.6209
 1611TIP3    H126248   5.621   6.031   6.163 -1.6542  1.9909  3.9960
 1611TIP3    H226249   5.743   6.115   6.135 -2.0270  1.5009  0.3148
 1612TIP3   OH226250   2.897   5.991  13.137 -0.2324  0.0452 -0.0315
 1612TIP3    H126251   2.822   5.966  13.191 -0.2909  0.0015 -0.1331
 1612TIP3    H226252   2.875   6.079  13.105 -0.8438 -0.4848 -1.1337
 1613TIP3   OH226253   3.338   4.436  16.357 -0.3605  0.5739 -0.1934
 1613TIP3    H126254   3.343   4.444  16.261 -0.6370  0.6900 -0.1985
 1613TIP3    H226255   3.427   4.451  16.387 -0.7711  3.4953 -0.1944
 1614TIP3   OH226256   1.633   3.834   4.519  0.3653  0.1658 -0.1889
 1614TIP3    H126257   1.625   3.752   4.471  1.8708  0.5333 -1.1360
 1614TIP3    H226258   1.567   3.828   4.588 -2.0242 -0.3216 -2.3631
 1615TIP3   OH226259   1.485   0.252  11.326  0.2680 -0.9192  0.0247
 1615TIP3    H126260   1.505   0.252  11.420 -0.8930  1.1906  0.3187
 1615TIP3    H226261   1.570   0.239  11.284  1.3806  1.5003  1.3370
 1616TIP3   OH226262   5.155   0.942   0.811 -0.1990 -0.3178  0.2030
 1616TIP3    H126263   5.100   1.000   0.864  1.5145  0.2435  1.4674
 1616TIP3    H226264   5.238   0.989   0.802 -0.5104 -0.2080 -3.4121
 1617TIP3   OH226265   5.084   6.372  15.958 -0.3021 -0.1724 -0.2795
 1617TIP3    H126266   5.078   6.464  15.935  2.5671  0.2436  0.3592
 1617TIP3    H226267   5.157   6.366  16.019 -0.7592 -2.8092  0.1579
 1618TIP3   OH226268   3.819   1.493  16.298  0.8208 -0.3239  1.0869
 1618TIP3    H126269   3.760   1.454  16.234  1.6292  2.1600 -1.3591
 1618TIP3    H226270   3.905   1.487  16.258  1.0950  3.0316  0.9298
 1619TIP3   OH226271   5.676   5.690  13.105  0.5261 -0.2923  0.1628
 1619TIP3    H126272   5.663   5.603  13.143  1.5933 -0.7843 -0.5666
 1619TIP3    H226273   5.763   5.686  13.065  0.1176  0.7391 -0.8684
 1620TIP3   OH226274   0.301   1.772   3.800  0.3020 -0.5137 -0.6570
 1620TIP3    H126275   0.299   1.860   3.837  2.8928 -0.7029  0.1344
 1620TIP3    H226276   0.236   1.774   3.729 -1.3986  1.2771  0.8278
 1621TIP3   OH226277   2.443   0.433   5.064  0.4833 -0.9509 -0.5659
 1621TIP3    H126278   2.453   0.472   4.978 -1.0164 -2.6849 -1.5898
 1621TIP3    H226279   2.529   0.397   5.085  1.2570  0.7660 -0.6159
 1622TIP3   OH226280   5.317   5.808   3.381  0.4765  0.4944 -0.2090
 1622TIP3    H126281   5.356   5.755   3.451  0.5715 -0.1729 -0.7599
 1622TIP3    H226282   5.323   5.754   3.303  1.2473  1.6130 -0.9521
 1623TIP3   OH226283   3.674   5.305   4.128 -0.5009  0.0883  0.1856
 1623TIP3    H126284   3.680   5.400   4.124 -1.9549  0.2684  1.3260
 1623TIP3    H226285   3.652   5.286   4.219 -3.9508 -1.0224 -0.6957
 1624TIP3   OH226286   4.827   3.359  13.570  0.1209 -0.0496  0.3676
 1624TIP3    H126287   4.794   3.409  13.495 -0.1390  0.7991  1.0392
 1624TIP3    H226288   4.921   3.351  13.554 -0.1267 -1.0796 -0.7390
 1625TIP3   OH226289   3.928   5.208   5.595 -0.0642  0.3232  0.3866
 1625TIP3    H126290   4.012   5.253   5.585 -1.0865  2.2974  0.2956
 1625TIP3    H226291   3.897   5.234   5.681 -1.0694  0.4631 -0.0118
 1626TIP3   OH226292   2.731   4.463  14.335 -0.5125  0.8253 -0.0982
 1626TIP3    H126293   2.732   4.367  14.337  0.5252  0.8241  0.6765
 1626TIP3    H226294   2.822   4.487  14.314 -0.2336  1.6300  1.7896
 1627TIP3   OH226295   2.441   2.759  11.292  0.8758  0.0905 -0.1834
 1627TIP3    H126296   2.397   2.843  11.275  0.3386  0.0150  0.7585
 1627TIP3    H226297   2.380   2.693  11.259  0.4451  0.0036  0.7498
 1628TIP3   OH226298   1.921   3.556  10.938  0.3367  0.0988  0.0634
 1628TIP3    H126299   1.894   3.560  11.030 -3.9362 -0.1307 -0.9446
 1628TIP3    H226300   1.907   3.645  10.904  1.5757  0.1111 -0.4850
 1629TIP3   OH226301   6.529   2.138  14.068 -0.0396 -0.1116  0.4100
 1629TIP3    H126302   6.508   2.045  14.074  0.1462 -0.1721  0.1717
 1629TIP3    H226303   6.625   2.140  14.058 -0.2356 -0.0133 -1.8605
 1630TIP3   OH226304   4.087   5.082  17.326 -0.4790  0.2339 -0.3674
 1630TIP3    H126305   4.141   5.010  17.359 -1.2183  0.3044  1.0639
 1630TIP3    H226306   4.124   5.160  17.367 -0.6871  0.4772 -0.6417
 1631TIP3   OH226307   1.994   5.072  14.069  0.4348 -0.1068  0.1123
 1631TIP3    H126308   2.014   5.165  14.055  4.1407 -0.5351  1.5782
 1631TIP3    H226309   1.948   5.071  14.154  0.3177  0.3603  0.0602
 1632TIP3   OH226310   5.286   5.843  13.763  0.4269  0.1541  0.7466
 1632TIP3    H126311   5.378   5.818  13.766  0.1108 -1.0765  1.2367
 1632TIP3    H226312   5.239   5.763  13.789 -0.8537  0.2469 -1.0774
 1633TIP3   OH226313   4.740   5.175  13.891 -0.2910 -0.8348  0.1982
 1633TIP3    H126314   4.713   5.120  13.965  0.2606 -0.6347  0.5519
 1633TIP3    H226315   4.707   5.262  13.913  0.4842 -0.6213  0.5592
 1634TIP3   OH226316   6.087   0.969  16.917 -0.4254  0.1811  0.2689
 1634TIP3    H126317   6.146   0.946  16.846 -0.0927  1.3108  0.1524
 1634TIP3    H226318   6.136   0.951  16.997 -0.7783 -1.0357  0.2316
 1635TIP3   OH226319   5.699   3.839   5.601 -0.3122 -0.2478  0.0116
 1635TIP3    H126320   5.623   3.783   5.587 -0.2753 -0.2606 -0.1469
 1635TIP3    H226321   5.771   3.779   5.620 -0.3332 -0.2376  0.1263
 1636TIP3   OH226322   6.008   6.004   3.619 -0.0671  0.6941  0.1270
 1636TIP3    H126323   6.083   5.972   3.669 -0.8407 -1.5404 -0.0221
 1636TIP3    H226324   6.008   6.098   3.635  3.4616  1.0254 -0.8502
 1637TIP3   OH226325   0.630   5.623  10.914 -0.2941  0.5578 -0.2973
 1637TIP3    H126326   0.568   5.686  10.878 -0.4337  1.5616  1.5674
 1637TIP3    H226327   0.615   5.543  10.864 -2.6533  0.9651 -0.3266
 1638TIP3   OH226328   2.030   3.280   3.988  0.2081  0.5989  0.0078
 1638TIP3    H126329   2.035   3.355   4.047 -1.0037 -0.1189  1.0815
 1638TIP3    H226330   1.937   3.272   3.967  0.3803 -0.3364 -0.4360
 1639TIP3   OH226331   2.374   3.897  14.486 -0.6926  0.7244  0.3749
 1639TIP3    H126332   2.327   3.886  14.403 -0.6818 -1.3379  0.6079
 1639TIP3    H226333   2.370   3.991  14.502 -0.4072  1.2548 -2.1286
 1640TIP3   OH226334   0.452   0.901   4.152 -0.8041 -0.0330 -0.0271
 1640TIP3    H126335   0.525   0.856   4.194 -0.4019 -0.6224 -1.3239
 1640TIP3    H226336   0.488   0.985   4.124 -1.5537  1.2036  2.3917
 1641TIP3   OH226337   3.547   3.563   1.506 -0.6436 -0.2035  0.2677
 1641TIP3    H126338   3.492   3.486   1.492  1.2017 -1.5624  0.0464
 1641TIP3    H226339   3.615   3.556   1.439  1.1239  0.0795  1.9448
 1642TIP3   OH226340   6.363   5.663  11.870 -0.1501 -0.6428  0.3352
 1642TIP3    H126341   6.337   5.733  11.929 -3.5613 -0.3216 -1.3266
 1642TIP3    H226342   6.320   5.585  11.904  1.9582 -1.5687  1.0147
 1643TIP3   OH226343   2.597   0.566  14.278  0.2088 -0.3411 -0.3708
 1643TIP3    H126344   2.576   0.658  14.260  0.5249 -0.5985 -2.1758
 1643TIP3    H226345   2.665   0.571  14.346 -0.9643  0.6674  0.8076
 1644TIP3   OH226346   5.496   2.586   1.005 -0.4598 -0.0980 -0.3699
 1644TIP3    H126347   5.543   2.522   0.952  0.4333 -0.4258  0.7816
 1644TIP3    H226348   5.403   2.564   0.994 -0.2562 -0.5055 -1.3208
 1645TIP3   OH226349   0.849   1.662   1.046  0.6961  0.1682 -0.1344
 1645TIP3    H126350   0.858   1.628   1.135  1.3104 -0.0808 -0.2903
 1645TIP3    H226351   0.803   1.745   1.058 -1.5360 -1.0353  0.1702
 1646TIP3   OH226352   5.084   0.266   1.911  0.0115  0.0655 -0.8905
 1646TIP3    H126353   5.177   0.249   1.925 -0.2751  0.0079  1.3301
 1646TIP3    H226354   5.044   0.180   1.909 -0.3504  0.1364  1.4051
 1647TIP3   OH226355   4.787   1.734   0.800 -0.3061  0.5446  0.3770
 1647TIP3    H126356   4.783   1.761   0.892 -1.1836 -0.7363  0.7380
 1647TIP3    H226357   4.833   1.806   0.756 -0.3154  1.4084  1.7241
 1648TIP3   OH226358   1.303   0.063   0.823  0.5241  0.2807 -0.1135
 1648TIP3    H126359   1.380   0.040   0.875 -0.0397  0.6069  0.9053
 1648TIP3    H226360   1.289  -0.013   0.766  0.8555 -0.3277  0.5927
 1649TIP3   OH226361   0.939   6.494  11.748  0.2191 -0.0292 -0.5310
 1649TIP3    H126362   1.012   6.432  11.757  0.4544  0.3512  0.2573
 1649TIP3    H226363   0.980   6.575  11.718  0.4716  0.8350  1.9491
 1650TIP3   OH226364   2.192   2.302  12.785 -0.0152 -0.1491  0.4384
 1650TIP3    H126365   2.110   2.305  12.834  0.5344  0.8725  1.3156
 1650TIP3    H226366   2.257   2.273  12.848  0.4787 -0.0243 -0.0037
 1651TIP3   OH226367   0.083   4.213   0.329 -0.2976 -0.2187 -0.0653
 1651TIP3    H126368   0.117   4.130   0.294 -0.0602  0.4366 -1.4908
 1651TIP3    H226369   0.008   4.188   0.382  1.9404 -1.6767  2.6670
 1652TIP3   OH226370   4.128   5.249   2.025  0.6695  0.2928 -0.1921
 1652TIP3    H126371   4.092   5.313   2.086 -0.2045 -0.0608 -0.3089
 1652TIP3    H226372   4.144   5.298   1.944 -0.4749  0.2873 -0.4460
 1653TIP3   OH226373   2.269   5.371   2.047 -0.0897 -0.3451 -0.4008
 1653TIP3    H126374   2.206   5.419   1.994  0.6592 -1.3006 -2.2464
 1653TIP3    H226375   2.339   5.348   1.986  1.4751 -0.3626  1.3079
 1654TIP3   OH226376   2.049   4.807  12.877 -0.8178 -0.0652 -0.1633
 1654TIP3    H126377   2.139   4.780  12.858 -0.7750  0.5463 -0.8825
 1654TIP3    H226378   2.029   4.871  12.809 -1.2520  0.9858  0.9073
 1655TIP3   OH226379   3.795   5.767  13.033 -0.3632 -0.0596 -0.3737
 1655TIP3    H126380   3.887   5.762  13.006 -0.2115 -1.8012  0.2787
 1655TIP3    H226381   3.750   5.704  12.977 -1.0743  0.3894 -0.3202
 1656TIP3   OH226382   4.158   0.371  14.616  0.7267 -0.2508  0.0102
 1656TIP3    H126383   4.120   0.283  14.617  0.6342 -0.2404 -1.2309
 1656TIP3    H226384   4.158   0.398  14.708  0.5359 -1.4494  0.3832
 1657TIP3   OH226385   0.257   0.093   4.911 -0.8477  0.1284  0.7319
 1657TIP3    H126386   0.188   0.109   4.846 -0.0362  0.9784  0.0448
 1657TIP3    H226387   0.210   0.085   4.994 -2.0250 -2.1843 -0.0679
 1658TIP3   OH226388   4.275   6.178   5.629 -0.3528  0.0484  0.1542
 1658TIP3    H126389   4.279   6.098   5.576 -2.5266  0.1015 -0.1926
 1658TIP3    H226390   4.335   6.239   5.586 -0.5732 -0.5659 -1.0774
 1659TIP3   OH226391   3.596   1.536   1.950  0.5985 -0.0595 -0.3193
 1659TIP3    H126392   3.689   1.558   1.945  0.3509  0.8877 -1.2764
 1659TIP3    H226393   3.558   1.604   2.005  0.4627 -0.4189  0.0327
 1660TIP3   OH226394   2.080   2.430  16.600  0.0716 -0.5575  0.4994
 1660TIP3    H126395   2.010   2.405  16.539 -0.9950  0.0621  1.4337
 1660TIP3    H226396   2.159   2.429  16.546 -0.8677  0.2495 -0.9824
 1661TIP3   OH226397   2.976   0.343   3.224  0.2141  0.1635  0.0992
 1661TIP3    H126398   3.010   0.376   3.141  1.1618  1.2606  0.8935
 1661TIP3    H226399   3.052   0.304   3.268  0.3486  1.8763  1.5212
 1662TIP3   OH226400   2.305   0.637   2.891 -0.4684 -0.3112  0.3084
 1662TIP3    H126401   2.304   0.588   2.809  0.8895  0.3827 -0.1499
 1662TIP3    H226402   2.376   0.701   2.881 -0.6116  0.1415  1.8220
 1663TIP3   OH226403   4.896   0.293   5.251 -0.1474 -0.0493 -0.1127
 1663TIP3    H126404   4.899   0.371   5.197  1.3763 -0.4085 -0.6130
 1663TIP3    H226405   4.928   0.321   5.337 -1.8912  0.3664  0.4369
 1664TIP3   OH226406   4.002   1.416   1.732  0.1595  0.3120  0.0964
 1664TIP3    H126407   3.930   1.367   1.692  0.6240 -0.9871  0.7736
 1664TIP3    H226408   3.976   1.428   1.823  0.2000  1.0687  0.0148
 1665TIP3   OH226409   6.572   0.637   5.639  0.0790  0.2580  0.1193
 1665TIP3    H126410   6.496   0.626   5.581 -0.3341  0.6736  0.5745
 1665TIP3    H226411   6.602   0.727   5.621  0.2720  0.2044  0.1726
 1666TIP3   OH226412   3.341   5.485   4.274  0.3387 -0.0313 -0.0948
 1666TIP3    H126413   3.429   5.504   4.307  0.0997  1.7567 -0.3958
 1666TIP3    H226414   3.303   5.571   4.255 -2.4672 -0.5387  2.4453
 1667TIP3   OH226415   6.131   0.455  16.410 -0.3478  0.7153  0.3841
 1667TIP3    H126416   6.109   0.370  16.374  2.1057  0.8063 -1.5975
 1667TIP3    H226417   6.081   0.518  16.358  1.1822  0.6880 -1.1805
 1668TIP3   OH226418   5.359   5.485  14.640  0.1233 -0.8600  0.3618
 1668TIP3    H126419   5.430   5.463  14.701 -0.6044 -0.4685  1.3761
 1668TIP3    H226420   5.280   5.481  14.693 -0.5404 -0.5521 -0.5833
 1669TIP3   OH226421   1.998   1.434   3.514  0.2440 -0.3651  0.7781
 1669TIP3    H126422   2.088   1.446   3.484 -0.3957 -0.9809 -1.6235
 1669TIP3    H226423   2.001   1.356   3.570  0.9141 -1.5932 -0.9028
 1670TIP3   OH226424   6.254   2.829   2.772  0.1069 -0.2075 -0.0506
 1670TIP3    H126425   6.169   2.807   2.809  0.0659 -0.8262 -0.5028
 1670TIP3    H226426   6.244   2.817   2.678  0.0785  1.7643 -0.3593
 1671TIP3   OH226427   4.336   2.371   2.464  0.2478  0.0569 -0.3876
 1671TIP3    H126428   4.387   2.294   2.440 -0.4254 -0.1854 -1.0975
 1671TIP3    H226429   4.255   2.362   2.414  0.7559  1.9628 -1.6442
 1672TIP3   OH226430   0.196   6.497  13.747  0.4657 -0.5291  0.1135
 1672TIP3    H126431   0.103   6.488  13.768  0.7742 -2.3751  0.8816
 1672TIP3    H226432   0.213   6.591  13.753 -1.5118 -0.0656 -0.8306
 1673TIP3   OH226433   6.669   5.357   1.509 -0.4099  0.3414 -0.6063
 1673TIP3    H126434   6.709   5.431   1.554  0.8268 -1.1268  0.7988
 1673TIP3    H226435   6.698   5.367   1.418  3.2808 -0.6128  0.3100
 1674TIP3   OH226436   4.825   2.861  10.327 -0.4728  0.0181 -0.6628
 1674TIP3    H126437   4.741   2.829  10.361 -0.3343  1.5360  1.2596
 1674TIP3    H226438   4.881   2.866  10.404  1.4710 -1.0860 -1.9385
 1675TIP3   OH226439   0.315   3.807  15.686 -0.4020  0.0524  0.3391
 1675TIP3    H126440   0.309   3.714  15.662 -0.1068 -0.6354  2.6699
 1675TIP3    H226441   0.232   3.826  15.729 -0.7747  1.1255 -0.7860
 1676TIP3   OH226442   3.157   4.805   1.192  0.0032 -0.3765 -0.7943
 1676TIP3    H126443   3.251   4.800   1.177 -0.1079  1.4790 -2.5430
 1676TIP3    H226444   3.121   4.841   1.111 -2.0541  0.2581  0.3099
 1677TIP3   OH226445   1.254   5.148   1.120 -0.1394  0.0540  0.1556
 1677TIP3    H126446   1.342   5.186   1.113 -0.6030  1.0296 -0.4644
 1677TIP3    H226447   1.265   5.077   1.183  1.4148 -0.7932 -0.9753
 1678TIP3   OH226448   3.078   5.438  10.554  0.1877  0.7352  0.0269
 1678TIP3    H126449   2.985   5.457  10.570  0.1864  4.4903 -3.0712
 1678TIP3    H226450   3.125   5.491  10.619  0.1140  1.6004 -0.6052
 1679TIP3   OH226451   6.586   2.416   3.351  0.2206  0.2270  1.0379
 1679TIP3    H126452   6.618   2.358   3.282  1.9641  1.2939  0.8780
 1679TIP3    H226453   6.653   2.484   3.358 -1.1550  1.5536  2.0530
 1680TIP3   OH226454   2.993   5.604   0.856 -1.0281  0.8571 -0.1658
 1680TIP3    H126455   3.087   5.605   0.875 -0.9567  3.0058 -0.4145
 1680TIP3    H226456   2.986   5.564   0.769 -0.5611 -1.0747  0.6407
 1681TIP3   OH226457   2.787   6.084  12.684 -0.0682 -0.3050 -0.2245
 1681TIP3    H126458   2.758   5.996  12.662 -1.8034  0.3957 -0.8849
 1681TIP3    H226459   2.867   6.071  12.735 -0.3369 -2.2524 -0.2462
 1682TIP3   OH226460   6.044   1.878   1.986 -0.4926 -0.3262 -0.4666
 1682TIP3    H126461   6.081   1.820   2.053  2.1148  0.1172 -1.4067
 1682TIP3    H226462   6.005   1.818   1.922 -2.8777 -0.7591  1.2679
 1683TIP3   OH226463   4.679   4.382  16.467 -0.0674  0.5312  0.2570
 1683TIP3    H126464   4.694   4.327  16.543 -0.1897  0.1124 -0.0143
 1683TIP3    H226465   4.753   4.365  16.409 -0.9633 -0.6954 -0.5920
 1684TIP3   OH226466   4.631   4.187   2.769 -0.4541 -0.0268 -0.2321
 1684TIP3    H126467   4.655   4.142   2.850  2.0442  1.5606  0.0069
 1684TIP3    H226468   4.577   4.261   2.797  0.4153  0.5254  0.0302
 1685TIP3   OH226469   6.649   5.611   1.887  0.1560  0.3107  0.3089
 1685TIP3    H126470   6.662   5.648   1.799 -1.0551  0.1730  0.0542
 1685TIP3    H226471   6.732   5.568   1.907  1.8460  3.4821  0.8128
 1686TIP3   OH226472   1.871   6.484  12.365 -0.1312  0.6358 -0.2260
 1686TIP3    H126473   1.824   6.476  12.448  1.1021 -1.6471  0.3273
 1686TIP3    H226474   1.802   6.496  12.300 -1.2453  0.5657  0.9050
 1687TIP3   OH226475   4.869   0.237   4.587 -0.2085  0.1515 -0.4027
 1687TIP3    H126476   4.934   0.295   4.626 -1.1337  0.2623  1.0470
 1687TIP3    H226477   4.788   0.289   4.586 -0.5705 -0.4042 -1.0208
 1688TIP3   OH226478   2.750   5.583  11.562 -0.0496 -0.2195 -0.4682
 1688TIP3    H126479   2.677   5.597  11.622  0.8792 -0.9729  0.8974
 1688TIP3    H226480   2.720   5.513  11.503 -0.6373 -0.1196 -0.2934
 1689TIP3   OH226481   6.075   4.627  15.407  0.3290 -0.0798  0.2741
 1689TIP3    H126482   6.059   4.645  15.500  1.1023 -1.7729  0.7689
 1689TIP3    H226483   6.156   4.576  15.406  1.0770  1.0657 -1.4618
 1690TIP3   OH226484   4.931   6.623   1.587 -0.2221  0.9266 -0.1261
 1690TIP3    H126485   4.877   6.549   1.615  1.5473 -0.3432  0.0546
 1690TIP3    H226486   5.002   6.584   1.537  0.4005  2.5793 -0.5980
 1691TIP3   OH226487   1.033   6.674   0.591 -0.9125 -0.8691  0.2608
 1691TIP3    H126488   1.048   6.581   0.608 -0.5218 -1.0776 -1.0935
 1691TIP3    H226489   0.939   6.682   0.582 -0.9121 -1.2331 -0.1139
 1692TIP3   OH226490   6.375   0.210   4.878  0.3159 -0.4908  0.0290
 1692TIP3    H126491   6.329   0.284   4.917 -1.1912 -1.5104  0.2921
 1692TIP3    H226492   6.358   0.218   4.784  1.2175  0.1787 -0.0833
 1693TIP3   OH226493   3.285   0.336  15.395  0.3689 -0.3804 -0.2897
 1693TIP3    H126494   3.316   0.426  15.388 -0.0789 -0.1870  0.1033
 1693TIP3    H226495   3.352   0.290  15.445  0.3254 -0.1195  0.0107
 1694TIP3   OH226496   4.332   6.027  16.207 -0.2726 -0.4212 -0.7863
 1694TIP3    H126497   4.412   6.021  16.260 -0.0570  0.2447 -1.0307
 1694TIP3    H226498   4.267   6.064  16.265 -0.0569  0.2355 -0.9554
 1695TIP3   OH226499   0.353   4.041   5.742 -0.2606 -0.3423 -0.0094
 1695TIP3    H126500   0.339   4.098   5.818 -0.4871 -1.4300  0.7760
 1695TIP3    H226501   0.417   3.976   5.772 -2.2572 -2.3501  0.1188
 1696TIP3   OH226502   4.929   3.453  12.244 -0.3921  0.2594 -0.0480
 1696TIP3    H126503   4.993   3.384  12.260  0.6696  0.8363 -1.5611
 1696TIP3    H226504   4.853   3.407  12.210 -1.6576 -0.6668  3.5811
 1697TIP3   OH226505   2.097   1.476  16.818  0.5780 -0.3967 -0.4260
 1697TIP3    H126506   2.171   1.532  16.797  1.3248 -1.1661  0.1043
 1697TIP3    H226507   2.088   1.418  16.743 -1.1797  1.3840 -1.6946
 1698TIP3   OH226508   3.544   5.138   2.614  0.1123 -0.2613 -0.3904
 1698TIP3    H126509   3.532   5.078   2.540  0.4257 -0.6426 -0.1368
 1698TIP3    H226510   3.483   5.106   2.681  1.4087 -1.2960  0.3464
 1699TIP3   OH226511   5.043   5.149   1.917 -0.0600  0.1063  0.1373
 1699TIP3    H126512   5.002   5.077   1.964  1.5007 -0.6215  0.4577
 1699TIP3    H226513   4.970   5.199   1.879 -1.2161 -0.8360  1.0755
 1700TIP3   OH226514   1.127   3.868   2.467  0.5973 -0.0847 -0.2569
 1700TIP3    H126515   1.219   3.874   2.490 -0.0996  2.2019  2.4654
 1700TIP3    H226516   1.124   3.887   2.373  2.6716  3.2831  0.2068
 1701TIP3   OH226517   6.421   3.881  11.560 -0.1475 -0.3102 -0.1294
 1701TIP3    H126518   6.406   3.873  11.466  1.3944 -0.8770 -0.3675
 1701TIP3    H226519   6.473   3.962  11.569 -3.0326  1.6154  0.6437
 1702TIP3   OH226520   1.114   1.101   3.564  0.2218  0.3879 -0.3336
 1702TIP3    H126521   1.045   1.035   3.563  0.2245  0.3873 -0.5005
 1702TIP3    H226522   1.174   1.075   3.495  0.8379 -0.0766  0.3701
 1703TIP3   OH226523   2.652   5.428   4.138 -0.4554  0.0381 -0.0075
 1703TIP3    H126524   2.746   5.415   4.149 -0.5007  1.0936  1.9012
 1703TIP3    H226525   2.634   5.513   4.177 -2.0735  0.3357 -1.2603
 1704TIP3   OH226526   6.272   2.582  11.524 -0.0634  0.6067  0.2685
 1704TIP3    H126527   6.225   2.572  11.441 -1.2091  1.6713  0.7795
 1704TIP3    H226528   6.364   2.564  11.501 -0.7185 -2.3012 -0.5948
 1705TIP3   OH226529   3.051   1.036   6.074  0.3190 -0.1310 -0.0427
 1705TIP3    H126530   2.965   1.058   6.039  0.6821 -0.0985 -0.9186
 1705TIP3    H226531   3.055   0.940   6.069  0.0926 -0.1827  0.5950
 1706TIP3   OH226532   4.902   3.948  16.173  0.1349  0.4908 -0.7780
 1706TIP3    H126533   4.911   4.039  16.144 -1.0130  2.2453  3.5949
 1706TIP3    H226534   4.992   3.920  16.189  0.4175  1.7720  0.0604
 1707TIP3   OH226535   4.422   5.936   3.195  0.6561 -0.3681  0.4097
 1707TIP3    H126536   4.400   5.880   3.120 -1.3901 -1.1440  1.4819
 1707TIP3    H226537   4.484   5.885   3.246  0.8919 -0.4865  0.0069
 1708TIP3   OH226538   0.105   0.196  15.690 -0.3693  0.2017 -0.3114
 1708TIP3    H126539   0.126   0.125  15.629 -0.3434  1.0098 -1.2735
 1708TIP3    H226540   0.135   0.275  15.645 -0.4937  0.8348  0.6977
 1709TIP3   OH226541   5.229   0.190   3.288  0.2692  0.3636  0.2788
 1709TIP3    H126542   5.286   0.115   3.269  1.1258  1.3552 -1.1992
 1709TIP3    H226543   5.278   0.241   3.353  0.0905  0.1332  0.6016
 1710TIP3   OH226544   3.856   3.193   3.854  0.3528  0.3726  0.1948
 1710TIP3    H126545   3.918   3.231   3.916  1.7357 -0.3984 -0.6602
 1710TIP3    H226546   3.829   3.266   3.799  2.5246  0.3322 -1.0580
 1711TIP3   OH226547   2.361   2.120  11.572  0.0718 -0.4260 -0.2427
 1711TIP3    H126548   2.398   2.075  11.648 -1.2938 -3.5880 -1.3140
 1711TIP3    H226549   2.436   2.164  11.531  2.1716 -4.0544 -0.6621
 1712TIP3   OH226550   5.266   6.222  12.737 -0.5359  0.1928  0.1336
 1712TIP3    H126551   5.354   6.254  12.758 -0.1146 -1.6975  1.5594
 1712TIP3    H226552   5.208   6.272  12.793 -0.1963  0.3267  0.3673
 1713TIP3   OH226553   1.453   6.622   6.012  0.3015  0.0760 -0.1618
 1713TIP3    H126554   1.545   6.632   6.038 -0.2080  0.4015  1.6204
 1713TIP3    H226555   1.413   6.706   6.034 -0.6926 -0.4915  0.2490
 1714TIP3   OH226556   6.344   6.569  11.044 -0.0204  0.1244  0.2400
 1714TIP3    H126557   6.404   6.535  11.111  0.9627  0.3874 -0.4925
 1714TIP3    H226558   6.392   6.641  11.003 -1.9533  2.3701  1.6096
 1715TIP3   OH226559   4.867   5.648   1.347  0.5345  0.0397 -0.0292
 1715TIP3    H126560   4.842   5.557   1.330 -1.7401  0.6259 -0.1347
 1715TIP3    H226561   4.896   5.681   1.262  3.3855 -1.0739  0.3878
 1716TIP3   OH226562   6.511   0.193  13.410  0.1627  0.3367 -0.3731
 1716TIP3    H126563   6.435   0.148  13.446  0.2130  0.5886  0.0397
 1716TIP3    H226564   6.586   0.142  13.441  0.1201 -0.6556 -1.8011
 1717TIP3   OH226565   5.365   2.122   2.010 -0.2945 -0.4421 -0.1458
 1717TIP3    H126566   5.385   2.138   1.918  1.2367 -0.9235  0.0630
 1717TIP3    H226567   5.394   2.201   2.055  1.2203 -1.1184  0.1547
 1718TIP3   OH226568   1.306   1.495  12.443  0.3589  0.4741  0.0314
 1718TIP3    H126569   1.339   1.461  12.526 -1.5918 -1.7762 -0.0423
 1718TIP3    H226570   1.241   1.560  12.468  0.3485  0.3809  0.2448
 1719TIP3   OH226571   2.895   2.462   3.137 -0.6268  0.0772  0.0631
 1719TIP3    H126572   2.905   2.397   3.206  0.7087 -2.2776 -2.1823
 1719TIP3    H226573   2.830   2.424   3.077  1.1310  0.0846 -1.9630
 1720TIP3   OH226574   1.221   6.317   2.312 -0.1501  0.1296  0.2030
 1720TIP3    H126575   1.241   6.410   2.317 -0.6096  0.1758  1.9652
 1720TIP3    H226576   1.307   6.274   2.320  0.1637  0.3710 -1.5022
 1721TIP3   OH226577   0.785   3.515  15.911 -0.1404  1.0478 -0.0464
 1721TIP3    H126578   0.723   3.548  15.976 -1.3352 -1.2445  0.0901
 1721TIP3    H226579   0.741   3.525  15.827  0.9908  3.0557 -0.4755
 1722TIP3   OH226580   3.931   0.958  11.920 -0.1953  0.0687  0.0185
 1722TIP3    H126581   3.885   0.875  11.915  0.7067 -0.3694 -2.7051
 1722TIP3    H226582   3.865   1.023  11.895 -0.1094 -0.2352 -1.0592
 1723TIP3   OH226583   0.645   5.178   0.494  0.3938  0.0269  0.1813
 1723TIP3    H126584   0.650   5.096   0.543  1.5507  0.3623  0.6607
 1723TIP3    H226585   0.568   5.167   0.437 -0.2126 -0.8802  1.1274
 1724TIP3   OH226586   0.649   1.205   6.784 -0.3872  0.1250 -0.2426
 1724TIP3    H126587   0.621   1.145   6.854  1.4099 -0.6838 -0.1568
 1724TIP3    H226588   0.610   1.169   6.705 -0.8664 -0.0607  0.0708
 1725TIP3   OH226589   1.640   1.078   5.128  0.0589  0.1523 -0.1677
 1725TIP3    H126590   1.694   1.001   5.144  0.8108  0.4415 -1.2505
 1725TIP3    H226591   1.641   1.125   5.211 -1.3069 -1.5126  0.8782
 1726TIP3   OH226592   5.860   2.671  11.343 -0.4168 -0.2961  0.1171
 1726TIP3    H126593   5.905   2.754  11.355 -0.3087 -0.3114 -0.1637
 1726TIP3    H226594   5.789   2.672  11.407 -1.4022  0.6926 -0.9549
 1727TIP3   OH226595   5.386   5.418   4.569  0.3621 -0.1194  0.1621
 1727TIP3    H126596   5.426   5.389   4.487  2.6554  1.7348  0.5074
 1727TIP3    H226597   5.388   5.514   4.564 -1.2236  0.0304  1.5848
 1728TIP3   OH226598   1.054   6.607  13.038  0.6175 -0.3815 -0.2498
 1728TIP3    H126599   1.021   6.517  13.031  0.8663 -0.6078  1.1296
 1728TIP3    H226600   1.059   6.623  13.132 -1.1999  1.7669 -0.4563
 1729TIP3   OH226601   1.788   0.463  11.852  0.1949  0.4476 -0.3060
 1729TIP3    H126602   1.791   0.394  11.919  0.7655  0.6580 -0.1038
 1729TIP3    H226603   1.697   0.493  11.853  0.1845  0.4222  0.3570
 1730TIP3   OH226604   0.622   2.347   0.834 -0.3160  0.1917  0.5645
 1730TIP3    H126605   0.703   2.397   0.834 -1.0701  1.4765 -0.4744
 1730TIP3    H226606   0.579   2.371   0.752 -1.4651 -0.9459  0.7952
 1731TIP3   OH226607   0.533   2.639   2.929 -0.3679  0.7181 -0.1787
 1731TIP3    H126608   0.472   2.569   2.951 -0.8021  1.0133 -0.4295
 1731TIP3    H226609   0.481   2.701   2.878 -0.6266  2.3705  1.9535
 1732TIP3   OH226610   0.551   2.178   4.620 -0.1708 -0.4540  0.2939
 1732TIP3    H126611   0.502   2.166   4.701 -1.6400  2.8441  0.0559
 1732TIP3    H226612   0.484   2.175   4.551  0.4913  0.4434 -0.4176
 1733TIP3   OH226613   1.544   3.046   3.909 -0.2250 -0.3833  0.1733
 1733TIP3    H126614   1.582   2.959   3.893  2.1257  0.7026 -0.5496
 1733TIP3    H226615   1.463   3.047   3.858  0.0794 -1.9035 -0.3890
 1734TIP3   OH226616   3.501   5.366   5.353 -0.1866 -0.0484 -0.9199
 1734TIP3    H126617   3.490   5.453   5.391  0.3554 -0.4987  0.3462
 1734TIP3    H226618   3.582   5.371   5.304  1.0031 -0.3669  0.9025
 1735TIP3   OH226619   4.425   0.504  14.831 -0.0167 -0.0439  0.7092
 1735TIP3    H126620   4.477   0.577  14.798  0.9524 -1.5853 -1.4723
 1735TIP3    H226621   4.368   0.542  14.897  1.6474  2.3358  0.8886
 1736TIP3   OH226622   2.584   5.221  10.573 -0.2705 -0.4537  0.0052
 1736TIP3    H126623   2.505   5.232  10.521  0.3945  2.0611 -0.6111
 1736TIP3    H226624   2.625   5.307  10.573  1.9334 -1.4129  1.2062
 1737TIP3   OH226625   0.183   4.107  16.715  0.2515  0.5978 -0.7090
 1737TIP3    H126626   0.116   4.097  16.783  0.1461 -0.0126 -0.8918
 1737TIP3    H226627   0.266   4.104  16.763  0.2246 -0.9294 -0.6874
 1738TIP3   OH226628   2.391   5.261  12.953 -0.2614 -0.4328 -0.0455
 1738TIP3    H126629   2.332   5.269  12.879  0.1129  1.3150 -0.2095
 1738TIP3    H226630   2.467   5.315  12.929 -1.1487  2.2217  2.5241
 1739TIP3   OH226631   1.606   0.095   1.597 -0.4507  0.3260 -0.4835
 1739TIP3    H126632   1.698   0.085   1.575 -0.0812  1.8776  0.2121
 1739TIP3    H226633   1.573   0.005   1.604  1.0504 -0.2554 -0.5256
 1740TIP3   OH226634   5.700   1.107  10.789 -0.3493  0.3075  0.0260
 1740TIP3    H126635   5.683   1.081  10.699  1.5346  0.3687 -0.3890
 1740TIP3    H226636   5.672   1.032  10.841  0.0139 -0.3716 -0.7396
 1741TIP3   OH226637   1.662   3.530  14.535  0.3730  0.0037  0.4993
 1741TIP3    H126638   1.682   3.554  14.444  0.8449 -0.4990  0.4623
 1741TIP3    H226639   1.697   3.602  14.587  0.8324 -0.0921  0.3269
 1742TIP3   OH226640   3.519   4.949  14.024 -0.0018 -0.2519 -0.2848
 1742TIP3    H126641   3.445   4.916  13.973 -0.3415 -0.3012  0.2419
 1742TIP3    H226642   3.536   4.881  14.089  0.2836 -0.0853 -0.1832
 1743TIP3   OH226643   2.808   1.148  11.876 -0.5214  0.6304 -0.4939
 1743TIP3    H126644   2.837   1.186  11.794 -0.8214  1.5242 -0.1977
 1743TIP3    H226645   2.797   1.223  11.935  0.1048 -0.0355  0.4935
 1744TIP3   OH226646   1.490   6.716   4.449 -0.0970 -0.4352 -0.1776
 1744TIP3    H126647   1.402   6.736   4.482 -0.6677 -2.4170 -0.3664
 1744TIP3    H226648   1.478   6.703   4.355  0.9268  1.8782 -0.7064
 1745TIP3   OH226649   5.230   3.466  16.914 -0.2809 -0.2239 -0.3129
 1745TIP3    H126650   5.318   3.473  16.951  0.0285 -0.2377 -1.0296
 1745TIP3    H226651   5.236   3.393  16.852 -1.0642 -0.8810  0.3580
 1746TIP3   OH226652   4.668   0.422  12.149  0.2704  0.0507 -0.2789
 1746TIP3    H126653   4.687   0.431  12.055 -0.3675  0.5590 -0.3624
 1746TIP3    H226654   4.715   0.342  12.175 -0.1038 -0.4774 -1.1765
 1747TIP3   OH226655   1.599   5.208   0.701 -0.1768 -0.2182  0.6773
 1747TIP3    H126656   1.531   5.192   0.766 -0.9890 -1.5109 -0.4366
 1747TIP3    H226657   1.560   5.270   0.640 -0.5843 -1.3549 -0.2493
 1748TIP3   OH226658   4.460   3.907  10.889 -0.1369  0.1701 -0.4470
 1748TIP3    H126659   4.505   3.850  10.827 -0.8791  0.4179 -1.2187
 1748TIP3    H226660   4.458   3.993  10.847  1.1274  0.8413  0.7773
 1749TIP3   OH226661   1.468   5.018   3.791 -0.2363 -0.4393 -0.3931
 1749TIP3    H126662   1.398   4.963   3.826  2.4677 -2.2763  2.6568
 1749TIP3    H226663   1.472   5.093   3.850  0.9579 -0.8390  0.0549
 1750TIP3   OH226664   4.750   0.798   2.238 -0.6214  0.2174 -0.0041
 1750TIP3    H126665   4.752   0.864   2.169  1.1077 -1.4512 -1.6449
 1750TIP3    H226666   4.778   0.717   2.196  2.4119 -0.5251  2.9886
 1751TIP3   OH226667   5.886   2.886  12.321  0.1328  0.5673  0.1167
 1751TIP3    H126668   5.805   2.859  12.364  0.5344 -0.0666  0.4957
 1751TIP3    H226669   5.860   2.957  12.263 -0.9464 -0.5838 -0.8623
 1752TIP3   OH226670   6.684   5.080  13.622 -0.0243  0.1675  0.2858
 1752TIP3    H126671   6.764   5.039  13.654 -1.1445 -0.9154  1.8455
 1752TIP3    H226672   6.615   5.018  13.644 -1.3188  1.1001 -0.9719
 1753TIP3   OH226673   1.031   1.896   1.742  0.2506 -0.2546  0.0809
 1753TIP3    H126674   0.995   1.865   1.659  0.2133  1.9281 -0.7880
 1753TIP3    H226675   0.970   1.865   1.808 -1.3411  0.4438 -1.0124
 1754TIP3   OH226676   0.515   0.018  15.549  0.0948  0.6417 -0.7744
 1754TIP3    H126677   0.516   0.103  15.592 -0.6283  1.0830 -1.6126
 1754TIP3    H226678   0.594  -0.026  15.581  0.0673  1.3206  0.2517
 1755TIP3   OH226679   5.605   4.777  13.941  0.7443 -0.0841 -0.1099
 1755TIP3    H126680   5.553   4.801  13.864  0.8067  1.7933  0.3708
 1755TIP3    H226681   5.686   4.742  13.906  0.0411 -1.0009 -0.8784
 1756TIP3   OH226682   5.090   1.307   0.300  0.1485 -0.2581 -0.1009
 1756TIP3    H126683   5.137   1.322   0.382 -0.4447 -0.4168  0.2820
 1756TIP3    H226684   5.088   1.211   0.291 -1.3370 -0.3398  0.6593
 1757TIP3   OH226685   4.752   2.973  12.927  0.2469 -0.2977 -0.5640
 1757TIP3    H126686   4.847   2.975  12.939  0.2257 -2.4108  0.5012
 1757TIP3    H226687   4.720   3.054  12.967  1.5930  0.5624 -1.1668
 1758TIP3   OH226688   5.525   6.489   3.389  0.7759 -0.1093  0.2892
 1758TIP3    H126689   5.571   6.415   3.429  0.5373  0.2054  1.1648
 1758TIP3    H226690   5.434   6.460   3.382  1.1314 -0.8803 -1.8025
 1759TIP3   OH226691   5.632   3.561   5.286 -0.1048  0.2249 -0.7007
 1759TIP3    H126692   5.600   3.474   5.262  0.1572  0.0613 -0.4581
 1759TIP3    H226693   5.722   3.547   5.314 -0.4964  0.3630  0.6857
 1760TIP3   OH226694   2.022   5.476  12.287  0.2206 -0.1005  0.1676
 1760TIP3    H126695   1.958   5.423  12.334  1.1818 -0.7378  0.7919
 1760TIP3    H226696   2.081   5.413  12.246 -1.3019  0.3683 -3.0536
 1761TIP3   OH226697   4.299   3.735  17.061 -0.0947  0.5445  0.2789
 1761TIP3    H126698   4.262   3.778  16.984 -1.5983  0.0765  0.6957
 1761TIP3    H226699   4.351   3.663  17.025 -0.5380  0.5099 -0.3077
 1762TIP3   OH226700   3.463   5.840  12.796  0.1419 -0.5238  0.3477
 1762TIP3    H126701   3.476   5.910  12.859 -0.8089  0.1083 -0.1335
 1762TIP3    H226702   3.385   5.866  12.747  0.7183 -1.1076 -0.9295
 1763TIP3   OH226703   4.093   1.608   3.696  0.4750  0.3474 -0.0913
 1763TIP3    H126704   4.140   1.677   3.650 -2.3385  0.6437 -2.8366
 1763TIP3    H226705   4.056   1.553   3.627 -0.4657 -1.7733  1.9581
 1764TIP3   OH226706   1.941   3.198   2.914 -0.1984  0.1884  0.5116
 1764TIP3    H126707   2.032   3.171   2.903 -0.1585 -0.0779  1.3935
 1764TIP3    H226708   1.938   3.235   3.002 -1.1285 -0.6331  0.8426
 1765TIP3   OH226709   3.891   4.837  11.161 -0.2038 -0.2464 -0.0809
 1765TIP3    H126710   3.922   4.814  11.248  0.0343  0.5649  0.0480
 1765TIP3    H226711   3.970   4.844  11.108 -0.2818  0.2309 -0.1340
 1766TIP3   OH226712   6.101   3.627   0.713 -0.0038  0.3774  0.7683
 1766TIP3    H126713   6.139   3.713   0.726  0.2181  0.1458  1.7402
 1766TIP3    H226714   6.128   3.576   0.790 -0.7238 -0.3419  0.5690
 1767TIP3   OH226715   4.090   1.050  16.580 -0.1879  0.1790 -0.3663
 1767TIP3    H126716   4.017   1.042  16.642 -1.3064 -0.5487 -1.7353
 1767TIP3    H226717   4.060   1.006  16.501  1.6659  0.0603 -1.0571
 1768TIP3   OH226718   3.859   6.199  11.308  0.2898 -0.1450  0.2935
 1768TIP3    H126719   3.842   6.130  11.373  0.4336  0.5103  1.0333
 1768TIP3    H226720   3.917   6.157  11.244  0.6779 -0.6138  0.9338
 1769TIP3   OH226721   0.687   2.201  15.416  0.8406  0.1711  0.0676
 1769TIP3    H126722   0.658   2.218  15.326 -2.1965  1.8453  1.2125
 1769TIP3    H226723   0.671   2.108  15.429  2.0374 -0.2584 -1.3156
 1770TIP3   OH226724   6.299   2.272   3.714  0.4351  0.0917  0.0529
 1770TIP3    H126725   6.309   2.310   3.627 -0.8152  0.1667 -0.0781
 1770TIP3    H226726   6.212   2.300   3.743  0.6132 -0.3847  1.0956
 1771TIP3   OH226727   2.248   6.126  14.287  0.0905 -0.5000 -0.1239
 1771TIP3    H126728   2.287   6.043  14.260  0.5465 -0.3235 -0.0152
 1771TIP3    H226729   2.187   6.147  14.217  1.4209  0.0596 -1.1554
 1772TIP3   OH226730   5.089   3.071  14.957 -0.4546  0.1349  0.0773
 1772TIP3    H126731   5.037   3.023  15.021 -0.3931 -1.3159 -0.9200
 1772TIP3    H226732   5.175   3.029  14.959 -0.9572 -1.1758 -2.1910
 1773TIP3   OH226733   6.523   4.100  13.846 -0.3234 -0.3966  0.0760
 1773TIP3    H126734   6.438   4.141  13.860 -0.0859  0.0294  0.2576
 1773TIP3    H226735   6.577   4.129  13.920  0.5890  0.9666 -1.0686
 1774TIP3   OH226736   4.166   5.805   5.775 -0.0517 -0.2939  0.3991
 1774TIP3    H126737   4.207   5.888   5.800 -0.2429  0.1255 -0.6358
 1774TIP3    H226738   4.238   5.742   5.775  0.1090 -0.1228  1.1179
 1775TIP3   OH226739   4.222   4.533  10.854  0.1084  0.2878 -0.1732
 1775TIP3    H126740   4.244   4.626  10.848 -1.4004  1.0059  2.9874
 1775TIP3    H226741   4.253   4.508  10.941 -0.9318 -1.7438 -0.3392
 1776TIP3   OH226742   3.158   3.778   4.027 -0.1289 -0.0691  0.2220
 1776TIP3    H126743   3.070   3.763   3.991  0.2168  0.0152 -0.6759
 1776TIP3    H226744   3.213   3.712   3.984 -0.1369 -1.6846  2.4662
 1777TIP3   OH226745   5.469   4.244   2.048 -0.0166 -0.3116 -0.0973
 1777TIP3    H126746   5.410   4.312   2.016 -0.3666 -0.4636  0.2261
 1777TIP3    H226747   5.555   4.270   2.016  0.0221  0.8348  0.8617
 1778TIP3   OH226748   3.574   5.660   4.440  0.6528  0.0192  0.3093
 1778TIP3    H126749   3.609   5.628   4.522  0.2739 -0.3110  0.3447
 1778TIP3    H226750   3.548   5.750   4.458  0.3653 -0.1237  0.6156
 1779TIP3   OH226751   3.650   5.059  13.809  0.2643 -0.2214 -0.6267
 1779TIP3    H126752   3.592   5.133  13.790  0.4408 -0.1422 -0.8699
 1779TIP3    H226753   3.609   5.014  13.882  1.8715  2.0321  1.8437
 1780TIP3   OH226754   5.900   2.730  15.582  0.3868 -0.0581 -0.3427
 1780TIP3    H126755   5.825   2.671  15.578 -0.1130  0.2185  2.5864
 1780TIP3    H226756   5.863   2.818  15.582  0.8907  0.1703 -0.9869
 1781TIP3   OH226757   0.204   1.483   0.030  0.5393  0.5863 -0.2293
 1781TIP3    H126758   0.172   1.556  -0.023  0.6730 -0.2124 -1.4572
 1781TIP3    H226759   0.278   1.449  -0.020  0.4049 -0.4550  0.2686
 1782TIP3   OH226760   1.436   4.052   5.011  0.2680 -0.3706 -1.0009
 1782TIP3    H126761   1.399   4.028   5.097 -1.7499 -1.5515 -2.1223
 1782TIP3    H226762   1.500   4.120   5.031  3.6951 -3.9722  2.0851
 1783TIP3   OH226763   2.708   4.822   5.012 -0.2419 -0.1703 -0.1323
 1783TIP3    H126764   2.759   4.760   4.960  0.7582  2.9599 -3.2546
 1783TIP3    H226765   2.621   4.822   4.972 -0.8937 -0.9540  1.1960
 1784TIP3   OH226766   0.347   0.706   4.687 -0.6572  0.0037 -0.5062
 1784TIP3    H126767   0.341   0.728   4.780 -1.1144  0.6896 -0.6940
 1784TIP3    H226768   0.256   0.700   4.657 -0.5244 -0.9870 -0.7356
 1785TIP3   OH226769   6.246   3.785  13.031 -0.0026 -0.2694  0.8214
 1785TIP3    H126770   6.170   3.754  12.982 -0.6864  0.6547  1.2645
 1785TIP3    H226771   6.269   3.712  13.089 -0.5734 -0.5393  0.7143
 1786TIP3   OH226772   1.370   1.668  10.447  0.6683 -0.0031 -0.3678
 1786TIP3    H126773   1.393   1.725  10.374  2.0562 -0.1578 -0.0730
 1786TIP3    H226774   1.420   1.702  10.521  1.6120 -1.6468 -0.2071
 1787TIP3   OH226775   3.443   3.001   2.475 -0.7894 -0.2299  0.6340
 1787TIP3    H126776   3.436   3.078   2.531 -0.4596 -0.0831  0.4794
 1787TIP3    H226777   3.383   3.017   2.403 -1.2214 -0.4234  0.9504
 1788TIP3   OH226778   3.110   2.935  11.997 -0.1142  0.1474 -0.0581
 1788TIP3    H126779   3.139   2.900  11.913 -0.4575  1.2954 -0.6839
 1788TIP3    H226780   3.183   2.989  12.027  0.7964 -1.7438  1.3549
 1789TIP3   OH226781   1.799   4.264  15.384  0.4443 -0.1341  0.3749
 1789TIP3    H126782   1.893   4.250  15.373  0.2519 -0.7086 -0.5686
 1789TIP3    H226783   1.759   4.180  15.363 -0.3102  0.2095  0.4101
 1790TIP3   OH226784   2.747   1.841   4.238 -0.1056 -0.5864  0.5763
 1790TIP3    H126785   2.719   1.924   4.199  0.6349 -1.1711 -1.3627
 1790TIP3    H226786   2.828   1.819   4.191  0.0612 -2.0765  1.4972
 1791TIP3   OH226787   6.235   3.978   0.388  0.3676  0.3736 -0.0928
 1791TIP3    H126788   6.207   4.031   0.462 -0.5496  3.2633 -2.2948
 1791TIP3    H226789   6.303   4.031   0.345 -0.0035 -0.5888 -1.9692
 1792TIP3   OH226790   2.247   1.688   4.442  0.6254  0.2209 -0.1419
 1792TIP3    H126791   2.329   1.723   4.406  0.5335  1.5183  0.8491
 1792TIP3    H226792   2.185   1.760   4.437 -1.2173 -1.3922 -3.0000
 1793TIP3   OH226793   0.271   6.668   0.531 -0.2293  0.3242 -0.1340
 1793TIP3    H126794   0.240   6.744   0.481 -0.2574  1.4724  1.5590
 1793TIP3    H226795   0.367   6.676   0.529 -0.2520  0.9504  0.8219
 1794TIP3   OH226796   0.541   4.965  16.892  0.2182 -0.5409  0.3550
 1794TIP3    H126797   0.580   5.000  16.811  1.2985 -0.2251  0.9876
 1794TIP3    H226798   0.496   4.885  16.865 -3.2148  1.7127 -1.3483
 1795TIP3   OH226799   4.789   0.670  12.723 -0.1097  0.1067 -0.2273
 1795TIP3    H126800   4.826   0.754  12.751 -0.6654  1.2673 -2.6593
 1795TIP3    H226801   4.696   0.677  12.743 -0.0153 -0.3371  0.4000
 1796TIP3   OH226802   5.338   2.443   3.730 -0.3396 -0.0804  0.4311
 1796TIP3    H126803   5.351   2.382   3.802  0.0848 -1.9491 -1.1249
 1796TIP3    H226804   5.409   2.423   3.669 -2.6079 -1.0562 -2.1042
 1797TIP3   OH226805   5.838   4.114   3.317 -0.3900 -0.3038  0.0484
 1797TIP3    H126806   5.847   4.048   3.248 -1.5378 -0.4857  0.0574
 1797TIP3    H226807   5.897   4.184   3.290  0.0534 -0.8793 -0.5097
 1798TIP3   OH226808   0.295   3.610  11.689 -0.1422 -0.9337 -0.2971
 1798TIP3    H126809   0.321   3.662  11.765  0.2377  1.0652 -1.6952
 1798TIP3    H226810   0.200   3.621  11.684  0.0107  0.4009 -1.0277
 1799TIP3   OH226811   3.254   1.803  12.651  0.1556 -0.1972 -0.0536
 1799TIP3    H126812   3.320   1.776  12.715  2.0765  0.9668 -1.4345
 1799TIP3    H226813   3.242   1.897  12.667 -1.1472 -0.3783  0.1270
 1800TIP3   OH226814   6.163   1.659  16.274 -0.8896  0.7282 -0.1786
 1800TIP3    H126815   6.230   1.627  16.334 -1.4898 -0.4132 -0.0959
 1800TIP3    H226816   6.192   1.747  16.251  0.7564  0.1721 -0.3440
 1801TIP3   OH226817   5.861   6.733  13.923 -0.1443 -0.1062 -0.1707
 1801TIP3    H126818   5.855   6.638  13.912  0.6698 -0.1502 -0.2978
 1801TIP3    H226819   5.953   6.749  13.946 -0.5094  0.5589  0.8891
 1802TIP3   OH226820   3.984   6.107   2.752 -0.1282  0.0135  0.2041
 1802TIP3    H126821   3.936   6.026   2.732  0.7504  0.0928 -2.8065
 1802TIP3    H226822   3.918   6.176   2.751 -0.4842 -0.3286 -0.0589
 1803TIP3   OH226823   1.024   6.558   1.149  0.3555 -0.2227 -0.8982
 1803TIP3    H126824   1.073   6.564   1.231  4.1358 -2.4939 -2.7277
 1803TIP3    H226825   1.049   6.635   1.100 -0.2959  0.0984 -0.7400
 1804TIP3   OH226826   5.347   0.962   5.737 -0.5201  0.5247  0.1772
 1804TIP3    H126827   5.277   0.917   5.785  0.7094 -2.3103 -0.4336
 1804TIP3    H226828   5.380   0.896   5.675  2.3435  1.8753  0.0797
 1805TIP3   OH226829   0.154   4.110  14.344 -0.1745  0.0885  0.2674
 1805TIP3    H126830   0.110   4.079  14.265 -2.9219  1.8639  0.9655
 1805TIP3    H226831   0.169   4.203  14.329  0.9706  0.0713  1.1414
 1806TIP3   OH226832   2.404   2.218  14.871  0.1963  0.4572 -0.3552
 1806TIP3    H126833   2.383   2.302  14.832 -0.0841  0.6637  0.2285
 1806TIP3    H226834   2.413   2.158  14.797  1.6982  1.2661 -0.8802
 1807TIP3   OH226835   5.392   0.432  16.682  0.2688  0.1665 -0.1943
 1807TIP3    H126836   5.382   0.454  16.590 -0.7892 -0.1393 -0.1636
 1807TIP3    H226837   5.486   0.443  16.700  0.5373 -0.1197 -1.3858
 1808TIP3   OH226838   3.658   1.925   1.289  0.3995  0.2949  0.3015
 1808TIP3    H126839   3.613   2.008   1.306  2.4095  1.3723  0.6514
 1808TIP3    H226840   3.689   1.931   1.199 -1.8821 -1.3584 -0.7104
 1809TIP3   OH226841   5.562   6.369   2.984  0.1084 -0.1968 -0.2507
 1809TIP3    H126842   5.500   6.316   3.034 -0.3400 -0.1793 -0.7745
 1809TIP3    H226843   5.524   6.374   2.896  1.8217 -1.8445 -1.1479
 1810TIP3   OH226844   0.010   2.754   4.249  0.7494 -0.2011 -0.1665
 1810TIP3    H126845   0.055   2.670   4.239  0.0048 -0.4995 -1.1378
 1810TIP3    H226846  -0.004   2.785   4.160  0.8150  0.8609  0.1733
 1811TIP3   OH226847   4.982   5.798  13.621 -0.0651 -0.0678  0.3553
 1811TIP3    H126848   4.988   5.724  13.681 -0.5919  0.3600  0.9495
 1811TIP3    H226849   4.929   5.766  13.548  0.5714 -0.5863  0.1099
 1812TIP3   OH226850   5.256   6.400   2.591  0.4043  0.2938 -0.1863
 1812TIP3    H126851   5.205   6.323   2.616 -1.4352  0.8485 -1.9272
 1812TIP3    H226852   5.230   6.467   2.654 -0.0077  0.2042 -0.2569
 1813TIP3   OH226853   3.882   5.270   6.444  1.0135 -0.1708  0.1166
 1813TIP3    H126854   3.916   5.358   6.460 -1.8859  1.0308  0.1352
 1813TIP3    H226855   3.796   5.269   6.485 -0.2653 -2.0444 -2.3683
 1814TIP3   OH226856   4.690   4.212   5.753  0.0382 -0.2363  0.2661
 1814TIP3    H126857   4.724   4.281   5.811 -1.0234 -0.8240  1.6446
 1814TIP3    H226858   4.632   4.161   5.809 -0.5033 -1.2465 -1.1762
 1815TIP3   OH226859   4.891   6.215  11.030 -0.3057  0.1279  0.0493
 1815TIP3    H126860   4.935   6.255  11.106  0.9289 -1.4409  0.2231
 1815TIP3    H226861   4.818   6.273  11.011 -0.2980  0.8833  2.0888
 1816TIP3   OH226862   3.929   3.085  15.009 -0.2153  0.5658 -0.6197
 1816TIP3    H126863   4.002   3.101  15.069  0.0435 -0.1811 -0.7247
 1816TIP3    H226864   3.933   3.157  14.946 -0.1090  1.0129 -0.1038
 1817TIP3   OH226865   3.512   5.902  15.022  0.2632  0.4437  0.3095
 1817TIP3    H126866   3.533   5.848  14.945 -3.0387 -1.1111  0.3252
 1817TIP3    H226867   3.597   5.926  15.058  2.0413 -3.6710 -0.5266
 1818TIP3   OH226868   2.075   0.356  12.413  0.0530  0.0588 -0.7446
 1818TIP3    H126869   2.119   0.382  12.494 -0.7247  0.1604 -0.3376
 1818TIP3    H226870   2.115   0.410  12.345  0.4436  0.2551 -0.3636
 1819TIP3   OH226871   0.642   0.437   2.701  0.3716  0.1610 -0.1562
 1819TIP3    H126872   0.704   0.482   2.644  0.4475  1.2182  0.7405
 1819TIP3    H226873   0.697   0.398   2.769  0.0302  1.7268  1.0660
 1820TIP3   OH226874   1.692   0.217   2.560 -0.8533  0.0370 -0.0516
 1820TIP3    H126875   1.606   0.240   2.524 -0.5949  1.2915  0.0850
 1820TIP3    H226876   1.719   0.295   2.608 -0.2728 -0.8538  1.1278
 1821TIP3   OH226877   0.418   2.358  13.111  0.5872  0.4099 -0.9257
 1821TIP3    H126878   0.483   2.428  13.118  0.3824  1.4419 -5.5965
 1821TIP3    H226879   0.446   2.308  13.034 -1.9710 -1.6579 -0.6527
 1822TIP3   OH226880   4.990   3.731   1.499  0.0124 -0.7547  0.1159
 1822TIP3    H126881   4.920   3.668   1.483 -0.8731 -0.1253  1.2858
 1822TIP3    H226882   5.018   3.712   1.589  0.8421 -0.5249 -0.0917
 1823TIP3   OH226883   5.076   1.749   1.117  0.6024 -0.1039 -0.0755
 1823TIP3    H126884   5.078   1.783   1.027  0.8928  0.4364  0.1301
 1823TIP3    H226885   5.168   1.731   1.137  0.7678  1.4815  0.7371
 1824TIP3   OH226886   3.037   2.525   2.488  0.3251  0.1909 -0.4467
 1824TIP3    H126887   3.105   2.458   2.484  0.5528  0.3826  0.0945
 1824TIP3    H226888   2.991   2.508   2.570 -0.6792 -0.3059 -1.0869
 1825TIP3   OH226889   4.635   1.460   5.239 -0.5218  0.4269 -0.2441
 1825TIP3    H126890   4.713   1.515   5.242 -0.6941  0.6860  3.1019
 1825TIP3    H226891   4.668   1.373   5.215  0.3686  1.0610 -1.4132
 1826TIP3   OH226892   5.775   2.989   2.754  0.2042 -0.7387 -0.4347
 1826TIP3    H126893   5.727   3.054   2.806 -0.4532 -0.5397 -1.2729
 1826TIP3    H226894   5.867   3.017   2.760 -0.1202  0.5798 -1.1794
 1827TIP3   OH226895   0.055   1.801  14.727 -0.2708  0.0406  0.4090
 1827TIP3    H126896  -0.002   1.877  14.739  1.2216  1.0656  1.3671
 1827TIP3    H226897   0.099   1.816  14.643 -0.4560 -0.0937  0.2882
 1828TIP3   OH226898   2.407   5.621   0.718 -0.0816 -0.4049 -0.0383
 1828TIP3    H126899   2.490   5.617   0.766  0.5078 -1.7392 -1.1022
 1828TIP3    H226900   2.428   5.668   0.638 -0.6475  0.2691  0.1978
 1829TIP3   OH226901   3.012   0.453  15.277 -0.2904 -0.0617 -0.4971
 1829TIP3    H126902   3.082   0.413  15.328  0.5690 -1.2470 -2.4933
 1829TIP3    H226903   2.965   0.508  15.340  1.1254 -0.8786  1.3706
 1830TIP3   OH226904   0.430   6.289   2.575  0.6066 -0.3600  0.7294
 1830TIP3    H126905   0.455   6.267   2.486  0.4583 -0.6910  0.7672
 1830TIP3    H226906   0.507   6.332   2.612 -0.0671  1.7977 -0.2456
 1831TIP3   OH226907   3.773   2.572   0.249  0.3456  0.3381 -0.2016
 1831TIP3    H126908   3.806   2.486   0.224  0.8007  0.3205  0.4250
 1831TIP3    H226909   3.820   2.633   0.194 -0.2631  0.1691 -0.9269
 1832TIP3   OH226910   0.205   2.664  15.998 -0.5418 -0.1600 -0.2931
 1832TIP3    H126911   0.110   2.660  15.988 -0.7130  0.9320  0.6429
 1832TIP3    H226912   0.218   2.702  16.085  0.7523  0.0477 -0.5606
 1833TIP3   OH226913   2.825   3.799  15.843 -0.1008  0.2417  0.3123
 1833TIP3    H126914   2.736   3.811  15.810 -1.0723  0.1838  2.7271
 1833TIP3    H226915   2.828   3.708  15.872  0.8375  0.1748  0.0314
 1834TIP3   OH226916   4.629   6.016  15.062  0.1136  0.6816  0.2075
 1834TIP3    H126917   4.577   5.940  15.089 -0.0288  0.0258 -1.7406
 1834TIP3    H226918   4.709   6.009  15.114  0.6252 -1.5275 -0.7240
 1835TIP3   OH226919   0.212   0.166  11.516  0.2714 -0.1272  0.1498
 1835TIP3    H126920   0.242   0.253  11.488  0.8031 -1.2179 -3.0426
 1835TIP3    H226921   0.293   0.118  11.534  0.1482 -0.7846 -0.9648
 1836TIP3   OH226922   3.958   6.572  12.950  0.5698 -0.7827  0.2698
 1836TIP3    H126923   3.933   6.481  12.962  0.6262 -0.8999 -0.4159
 1836TIP3    H226924   3.966   6.582  12.855  1.3133 -0.2686  0.3744
 1837TIP3   OH226925   2.148   4.953   5.313  0.0219 -0.6687 -0.2680
 1837TIP3    H126926   2.142   4.950   5.408 -0.0326  1.5607 -0.1660
 1837TIP3    H226927   2.057   4.954   5.283  0.0294 -2.0980 -0.4151
 1838TIP3   OH226928   1.626   2.408   4.952 -0.0144 -0.3593  0.3570
 1838TIP3    H126929   1.544   2.440   4.990  1.4060  1.2887  2.2151
 1838TIP3    H226930   1.600   2.329   4.905 -2.8982  0.8136 -0.2999
 1839TIP3   OH226931   4.920   0.280  13.953  0.4414  0.1486 -0.4441
 1839TIP3    H126932   4.912   0.210  14.018  1.4308 -1.0967 -1.6187
 1839TIP3    H226933   4.831   0.314  13.945 -0.3218 -1.7508 -0.6620
 1840TIP3   OH226934   4.861   2.057  15.833  0.2772  0.3991  0.3591
 1840TIP3    H126935   4.938   2.015  15.872  0.1469 -0.5590 -0.3852
 1840TIP3    H226936   4.894   2.141  15.801  0.6374  0.7132  1.4963
 1841TIP3   OH226937   4.041   1.557   2.015 -0.4011  0.5192  1.0227
 1841TIP3    H126938   4.117   1.576   2.070  2.2447 -1.4301 -1.6070
 1841TIP3    H226939   4.014   1.468   2.041  1.4400 -0.7943 -1.1703
 1842TIP3   OH226940   1.630   4.428  15.557  0.6734  0.3036 -0.2478
 1842TIP3    H126941   1.713   4.395  15.524 -0.4665 -3.0848 -0.1706
 1842TIP3    H226942   1.645   4.445  15.650  1.1885 -0.6420 -0.1529
 1843TIP3   OH226943   5.879   4.236   2.643 -0.2265 -0.8643 -0.1580
 1843TIP3    H126944   5.951   4.175   2.655 -1.2576 -1.8520  1.4038
 1843TIP3    H226945   5.804   4.181   2.620 -1.0265 -0.1290  0.6109
 1844TIP3   OH226946   0.603   2.596   0.158  0.1077  0.5179  0.1245
 1844TIP3    H126947   0.565   2.675   0.119 -0.1010 -0.0777 -0.9203
 1844TIP3    H226948   0.624   2.621   0.248  1.8697  2.3769 -0.7223
 1845TIP3   OH226949   5.462   4.467   0.041  0.2257  0.0147  0.4577
 1845TIP3    H126950   5.430   4.502  -0.042  2.5304  0.6423 -0.2599
 1845TIP3    H226951   5.421   4.381   0.049 -0.3382  0.1091 -1.1392
 1846TIP3   OH226952   5.646   3.008   3.340  0.1674 -1.1221  0.1648
 1846TIP3    H126953   5.729   3.029   3.381 -0.4631  0.6562  0.6137
 1846TIP3    H226954   5.606   2.943   3.399  0.1691 -0.1383  1.2805
 1847TIP3   OH226955   4.216   3.506   2.052  0.2537 -0.2109  0.4778
 1847TIP3    H126956   4.244   3.572   1.988  2.4503 -1.3842  0.1352
 1847TIP3    H226957   4.289   3.499   2.114  0.5336 -2.9024 -0.0164
 1848TIP3   OH226958   6.559   2.569   2.433 -0.4786 -0.5286 -0.1890
 1848TIP3    H126959   6.604   2.489   2.459  1.1980  0.7419  0.9720
 1848TIP3    H226960   6.603   2.597   2.353 -0.1781 -0.0722  0.1318
 1849TIP3   OH226961   6.115   0.217   2.788  0.4195 -0.1977 -0.1174
 1849TIP3    H126962   6.123   0.123   2.776  0.7825 -0.5532  2.3583
 1849TIP3    H226963   6.116   0.253   2.700  0.9135 -2.4554 -1.0944
 1850TIP3   OH226964   1.804   1.547   1.236  0.0240 -0.2462  0.4377
 1850TIP3    H126965   1.865   1.533   1.309  1.1741 -0.1779 -0.4875
 1850TIP3    H226966   1.736   1.604   1.272 -0.1147 -1.2280  1.8155
 1851TIP3   OH226967   4.696   3.900   2.720  0.3283 -0.8495  0.0003
 1851TIP3    H126968   4.777   3.889   2.769 -0.1581 -0.7669  0.8493
 1851TIP3    H226969   4.694   3.992   2.695 -0.3749 -0.3934  1.6064
 1852TIP3   OH226970   2.588   3.198  15.821  0.0018 -0.8386  0.0555
 1852TIP3    H126971   2.504   3.152  15.815  0.2218 -1.2177 -0.2020
 1852TIP3    H226972   2.614   3.188  15.913 -0.1522 -0.8674  0.0969
 1853TIP3   OH226973   5.347   1.796   5.826  0.0348  0.2781 -0.4419
 1853TIP3    H126974   5.408   1.866   5.800  2.4179 -1.7742 -0.7945
 1853TIP3    H226975   5.369   1.723   5.768 -0.2799 -1.7398  1.8393
 1854TIP3   OH226976   0.141   6.520   1.229 -1.0951 -0.3613  0.2895
 1854TIP3    H126977   0.162   6.454   1.296 -1.3870  0.6513  1.4232
 1854TIP3    H226978   0.213   6.582   1.235 -1.0854 -0.2987 -0.4157
 1855TIP3   OH226979   1.134   4.497   2.006 -0.1095  0.1432 -0.3892
 1855TIP3    H126980   1.089   4.501   2.091 -0.7605 -1.2213 -0.6363
 1855TIP3    H226981   1.065   4.475   1.944  0.4974  0.3787 -1.1609
 1856TIP3   OH226982   0.387   4.543  13.752 -0.0687 -0.3494 -0.4342
 1856TIP3    H126983   0.457   4.479  13.765  0.7368  0.4147 -0.8923
 1856TIP3    H226984   0.424   4.608  13.692 -1.5703 -0.5273 -1.6114
 1857TIP3   OH226985   0.723   4.437   1.188  0.5961  0.1686 -0.4652
 1857TIP3    H126986   0.813   4.447   1.157  0.5143 -0.7981 -1.0421
 1857TIP3    H226987   0.733   4.409   1.279  0.8371  2.6264  0.3400
 1858TIP3   OH226988   3.636   4.539   1.397 -0.0199  0.1413 -0.3138
 1858TIP3    H126989   3.653   4.530   1.491  0.7677  0.7858 -0.3781
 1858TIP3    H226990   3.543   4.520   1.387 -0.3784  1.2197  0.7598
 1859TIP3   OH226991   4.381   4.461  15.885  0.4352  0.0595  0.2038
 1859TIP3    H126992   4.308   4.506  15.842  0.7323 -0.6508 -1.0717
 1859TIP3    H226993   4.398   4.514  15.963  0.3614  1.8254 -0.9164
 1860TIP3   OH226994   5.938   1.629   3.608  0.2776  0.8596  0.3423
 1860TIP3    H126995   5.968   1.646   3.697 -0.4317  1.0207  0.5561
 1860TIP3    H226996   5.844   1.617   3.616  0.1803  1.0409 -0.4131
 1861TIP3   OH226997   2.005   4.696   0.734 -0.4544 -0.0909  1.4398
 1861TIP3    H126998   2.047   4.610   0.732 -0.9067 -0.3327 -1.1270
 1861TIP3    H226999   1.943   4.695   0.661 -0.8875  2.2176  1.6832
 1862TIP3   OH227000   4.716   5.432  15.898  0.0631 -0.1407  0.8109
 1862TIP3    H127001   4.705   5.374  15.822 -0.2760 -0.3919  1.0475
 1862TIP3    H227002   4.627   5.453  15.925  0.1391  1.8187 -0.2505
 1863TIP3   OH227003   2.290   4.199   1.505  0.2423  0.0561 -0.2205
 1863TIP3    H127004   2.265   4.291   1.500 -0.4427 -0.1706 -1.5052
 1863TIP3    H227005   2.385   4.200   1.506  0.2397  0.7962  0.6655
 1864TIP3   OH227006   1.660   1.360   4.122 -0.2810 -0.2097  0.4739
 1864TIP3    H127007   1.738   1.412   4.136 -0.9673  0.9805 -0.0016
 1864TIP3    H227008   1.609   1.370   4.203 -0.2865 -0.3796  0.4931
 1865TIP3   OH227009   1.006   5.875   1.947 -0.2100 -0.2226 -0.1665
 1865TIP3    H127010   1.049   5.922   2.019  0.5855  0.9600 -1.3589
 1865TIP3    H227011   0.960   5.803   1.990  1.8440 -0.7441  1.3433
 1866TIP3   OH227012   1.217   3.630   0.517 -0.1085 -0.0520  0.2920
 1866TIP3    H127013   1.237   3.724   0.516 -2.1723  0.4489  0.7155
 1866TIP3    H227014   1.203   3.607   0.426 -0.3661  0.2354  0.2587
 1867TIP3   OH227015   4.585   2.628   3.249  0.0359 -0.2223 -0.2266
 1867TIP3    H127016   4.649   2.616   3.179  0.7582  0.1872  0.3536
 1867TIP3    H227017   4.504   2.653   3.204  0.9495  1.8819 -0.8498
 1868TIP3   OH227018   3.256   0.533  11.969 -0.2597  0.4699  0.2707
 1868TIP3    H127019   3.260   0.440  11.946  1.1496 -0.5640  3.8904
 1868TIP3    H227020   3.193   0.571  11.908  0.0493 -2.5516 -2.1736
 1869TIP3   OH227021   2.262   1.079   4.830 -0.3503 -0.5583 -0.5572
 1869TIP3    H127022   2.208   1.006   4.802  1.9921 -3.5093  1.9338
 1869TIP3    H227023   2.351   1.043   4.835  0.6458  1.8419  2.6030
 1870TIP3   OH227024   2.753   1.047   6.082 -0.4773 -0.8332  0.0594
 1870TIP3    H127025   2.745   1.118   6.146  0.2802 -2.0749  1.6219
 1870TIP3    H227026   2.740   1.089   5.997  0.1004  1.1848  0.9119
 1871TIP3   OH227027   2.059   4.142   4.485 -0.2195  0.0478  0.1592
 1871TIP3    H127028   2.118   4.093   4.542  0.4732  1.0997  0.3819
 1871TIP3    H227029   1.984   4.163   4.541  0.4328  1.0293  0.7054
 1872TIP3   OH227030   4.557   6.156   0.864  0.4931 -0.1769 -0.0565
 1872TIP3    H127031   4.520   6.244   0.852 -0.2390  0.0646  3.1134
 1872TIP3    H227032   4.582   6.153   0.956  0.6266 -3.2737 -0.0991
 1873TIP3   OH227033   4.953   0.689  14.472 -0.2020  0.0621 -0.3061
 1873TIP3    H127034   4.986   0.761  14.418  0.7828 -0.2268 -0.1100
 1873TIP3    H227035   4.904   0.634  14.410  0.4280  0.0365 -0.7985
 1874TIP3   OH227036   1.306   0.194  14.055  0.3680 -0.1157 -0.2499
 1874TIP3    H127037   1.319   0.289  14.061 -0.0219  0.0508 -1.6339
 1874TIP3    H227038   1.211   0.183  14.060  0.4869 -0.6045  1.5703
 1875TIP3   OH227039   2.736   1.827  10.994 -0.4715 -0.4699  0.0508
 1875TIP3    H127040   2.803   1.829  10.925  0.2233 -3.2760  0.5343
 1875TIP3    H227041   2.786   1.831  11.075 -0.9453 -1.4387  0.4034
 1876TIP3   OH227042   5.730   0.824  16.622 -0.4565 -0.2606 -0.2428
 1876TIP3    H127043   5.686   0.905  16.648  0.5413  0.2189 -0.0176
 1876TIP3    H227044   5.821   0.849  16.609 -0.1143 -1.3713 -0.0735
 1877TIP3   OH227045   3.254   4.472   4.500 -0.2174 -0.3371 -0.6890
 1877TIP3    H127046   3.277   4.385   4.530  0.0173  0.1623  0.6497
 1877TIP3    H227047   3.305   4.484   4.420  0.0060 -1.2879 -0.7001
 1878TIP3   OH227048   0.159   2.562  16.837 -0.6661  0.0049 -0.3656
 1878TIP3    H127049   0.203   2.636  16.880 -0.2671 -0.0447 -0.6792
 1878TIP3    H227050   0.151   2.497  16.906 -0.6462  0.1848 -0.1919
 1879TIP3   OH227051   6.129   5.884   3.883  0.1198 -0.5459  0.0148
 1879TIP3    H127052   6.090   5.961   3.924  1.5594 -0.3952  1.1808
 1879TIP3    H227053   6.200   5.919   3.830  0.9142 -1.0737  0.7134
 1880TIP3   OH227054   0.215   4.329  13.645  0.0473  0.1115 -0.1720
 1880TIP3    H127055   0.273   4.255  13.626 -1.2770 -0.6468 -1.4973
 1880TIP3    H227056   0.273   4.398  13.677  1.4796 -1.0899 -0.0949
 1881TIP3   OH227057   5.885   3.581  16.740  0.6179 -0.7172  0.2893
 1881TIP3    H127058   5.841   3.532  16.671  2.1396 -1.1112 -0.4360
 1881TIP3    H227059   5.908   3.515  16.806  1.6581 -0.8136 -0.1565
 1882TIP3   OH227060   6.036   5.205   3.726 -0.7995  0.3273  0.6553
 1882TIP3    H127061   6.081   5.131   3.685 -0.3727  0.6150  0.5966
 1882TIP3    H227062   5.994   5.167   3.804 -1.8721 -0.2887 -0.1899
 1883TIP3   OH227063   0.062   4.465  12.521  0.2754 -0.2850  0.1186
 1883TIP3    H127064   0.080   4.441  12.612 -0.3867  0.2149  0.3937
 1883TIP3    H227065   0.016   4.389  12.485 -0.4927 -0.0397  0.5520
 1884TIP3   OH227066   2.506   2.783   3.022  0.0764  0.1542  0.0821
 1884TIP3    H127067   2.553   2.756   3.101 -1.5943  0.5163  1.2577
 1884TIP3    H227068   2.471   2.702   2.985  0.5314  0.0276 -0.0756
 1885TIP3   OH227069   5.478   1.690  14.394 -0.4248  0.1218  0.1613
 1885TIP3    H127070   5.569   1.716  14.384 -0.6246  0.7880 -0.0008
 1885TIP3    H227071   5.455   1.716  14.483 -0.1865 -0.9236  0.5397
 1886TIP3   OH227072   1.372   2.291  13.635  0.4324  0.3231 -0.2331
 1886TIP3    H127073   1.366   2.250  13.721  0.0701  1.3542  0.2507
 1886TIP3    H227074   1.358   2.384  13.652  0.0147  0.4972 -1.4492
 1887TIP3   OH227075   2.012   3.843  13.410  0.0403 -0.0711 -0.0860
 1887TIP3    H127076   2.095   3.847  13.363  0.0107  0.5726 -0.0925
 1887TIP3    H227077   1.946   3.838  13.341 -0.0248  1.2209 -0.1491
 1888TIP3   OH227078   4.897   1.914  15.561 -0.3881  0.4192 -0.2240
 1888TIP3    H127079   4.956   1.839  15.555 -0.1138  0.6267 -0.1812
 1888TIP3    H227080   4.900   1.939  15.654 -1.5174 -0.3368  0.0352
 1889TIP3   OH227081   1.671   2.876   1.944 -0.8532  0.6445  0.0824
 1889TIP3    H127082   1.677   2.915   1.857 -0.2830  0.3563 -0.0191
 1889TIP3    H227083   1.590   2.825   1.942 -1.6717  1.8949  0.2627
 1890TIP3   OH227084   3.496   0.321   2.563  0.4530 -0.0120  0.5420
 1890TIP3    H127085   3.589   0.309   2.581  0.1340 -2.2228  0.9747
 1890TIP3    H227086   3.458   0.234   2.569 -1.6832  0.8295  0.4585
 1891TIP3   OH227087   6.663   2.155   5.775  0.2566 -0.3328  0.2917
 1891TIP3    H127088   6.662   2.059   5.782  2.7586 -0.4874 -0.5903
 1891TIP3    H227089   6.712   2.184   5.852  1.0252  0.0997 -0.3488
 1892TIP3   OH227090   3.806   5.407  12.053 -0.1856  0.1162 -0.2343
 1892TIP3    H127091   3.737   5.343  12.074  0.0349  0.2528  0.9968
 1892TIP3    H227092   3.880   5.354  12.026 -0.2638 -0.1176  0.0008
 1893TIP3   OH227093   6.683   4.626   0.803  0.0377  0.2184  0.0699
 1893TIP3    H127094   6.736   4.598   0.878  0.5288  0.5846 -0.1354
 1893TIP3    H227095   6.744   4.674   0.747 -0.2219 -0.4427 -0.7960
 1894TIP3   OH227096   3.021   2.525  17.400 -0.4778  0.4909  0.8261
 1894TIP3    H127097   2.933   2.539  17.366 -0.4140 -1.0722 -0.0723
 1894TIP3    H227098   3.027   2.431  17.415  1.0769  0.5425  0.7409
 1895TIP3   OH227099   3.460   0.686  16.698 -0.0388  0.1456  0.0325
 1895TIP3    H127100   3.491   0.718  16.782 -0.2487 -1.8906  0.9463
 1895TIP3    H227101   3.535   0.695  16.639  0.7323 -0.1629  0.9418
 1896TIP3   OH227102   6.442   0.100  14.305  0.4596  0.2950 -0.0207
 1896TIP3    H127103   6.535   0.125  14.301  0.8334  0.0369  3.6843
 1896TIP3    H227104   6.444   0.007  14.327 -0.7061  0.2205 -0.1968
 1897TIP3   OH227105   2.879   2.753   4.252  0.3226  0.3958  0.0982
 1897TIP3    H127106   2.784   2.747   4.265  0.4821 -0.9508  0.9233
 1897TIP3    H227107   2.908   2.822   4.312 -0.0224  0.1350  0.5687
 1898TIP3   OH227108   2.200   3.235  15.547  0.6174  0.5524 -0.4771
 1898TIP3    H127109   2.248   3.161  15.509  0.4876 -0.1769  0.7034
 1898TIP3    H227110   2.170   3.202  15.632 -0.0950  1.7250 -0.2547
 1899TIP3   OH227111   3.183   2.378   3.186 -0.1151  0.0192 -0.1013
 1899TIP3    H127112   3.112   2.384   3.250 -1.1237 -0.4531 -1.1578
 1899TIP3    H227113   3.173   2.457   3.132  0.4669  0.1890  0.0237
 1900TIP3   OH227114   3.347   0.294  15.790 -0.0551  0.3547 -0.4280
 1900TIP3    H127115   3.395   0.242  15.726 -0.3387 -0.0596 -0.3092
 1900TIP3    H227116   3.277   0.336  15.740 -0.4708 -0.2215 -0.3363
 1901TIP3   OH227117   6.351   5.626   0.247  0.4727 -0.1843 -0.1025
 1901TIP3    H127118   6.297   5.705   0.240 -0.0040 -0.3381  1.4727
 1901TIP3    H227119   6.294   5.555   0.219  0.8548 -0.0352 -1.3727
 1902TIP3   OH227120   2.674   1.330  15.119 -0.1823 -0.3057 -0.0669
 1902TIP3    H127121   2.641   1.360  15.034 -1.2850 -0.7268  0.1937
 1902TIP3    H227122   2.661   1.405  15.177 -2.3572 -1.0094  0.4374
 1903TIP3   OH227123   4.277   1.934  12.117  0.6608  0.1729  0.0958
 1903TIP3    H127124   4.336   1.880  12.064 -0.3128  0.9646 -1.9299
 1903TIP3    H227125   4.201   1.878  12.132  0.5206  0.2743 -0.2226
 1904TIP3   OH227126   1.631   5.244   3.219 -0.0067 -0.2814  0.1024
 1904TIP3    H127127   1.556   5.209   3.266  2.5008 -3.0964  2.4491
 1904TIP3    H227128   1.655   5.175   3.156  0.0906  0.9979 -1.3361
 1905TIP3   OH227129   2.528   5.822  13.631  0.5638 -0.4306 -0.2479
 1905TIP3    H127130   2.571   5.751  13.584  0.5387 -0.2599 -0.5305
 1905TIP3    H227131   2.464   5.857  13.568 -0.8316 -1.4436  0.5522
 1906TIP3   OH227132   2.195   5.814  14.385  0.3979 -0.5826  0.1278
 1906TIP3    H127133   2.214   5.870  14.460  0.8039  0.5106 -0.7650
 1906TIP3    H227134   2.265   5.832  14.323 -1.8902  1.4886 -2.1059
 1907TIP3   OH227135   4.193   3.853  13.513  0.2325 -0.0817 -0.0688
 1907TIP3    H127136   4.235   3.816  13.590  0.3987 -1.5524 -0.8409
 1907TIP3    H227137   4.129   3.787  13.487 -0.4628  0.8066 -0.6677
 1908TIP3   OH227138   5.590   5.719   0.228 -0.2597  0.2293  0.4646
 1908TIP3    H127139   5.666   5.662   0.228 -0.1149  0.3877  2.0840
 1908TIP3    H227140   5.523   5.670   0.180  0.5098 -0.3586 -0.0282
 1909TIP3   OH227141   1.813   3.388   1.577  0.2161 -0.0118  0.5935
 1909TIP3    H127142   1.771   3.359   1.496  3.0938 -1.0223 -0.7080
 1909TIP3    H227143   1.802   3.315   1.638 -0.4734  0.0277  0.5190
 1910TIP3   OH227144   0.970   0.165   2.933 -0.0629 -1.0508 -0.1398
 1910TIP3    H127145   0.952   0.092   2.992 -1.8821  0.4646  1.2847
 1910TIP3    H227146   1.063   0.183   2.945 -0.3146 -0.9808  2.0979
 1911TIP3   OH227147   0.644   5.918   3.451  0.1400 -0.3440 -0.1793
 1911TIP3    H127148   0.609   5.852   3.511  0.4684  0.5546  1.0443
 1911TIP3    H227149   0.581   5.921   3.379  0.0878 -1.9345 -0.2404
 1912TIP3   OH227150   6.648   2.920   0.730  0.3894 -0.5480 -0.1366
 1912TIP3    H127151   6.689   3.005   0.712 -1.5803  0.4502 -0.1791
 1912TIP3    H227152   6.713   2.855   0.703  1.8747  0.9392 -0.2585
 1913TIP3   OH227153   5.106   2.238  16.104 -0.0960 -0.2964  0.3622
 1913TIP3    H127154   5.120   2.254  16.197  1.5197  0.5537  0.0219
 1913TIP3    H227155   5.108   2.325  16.064  0.4275 -0.7171 -0.5877
 1914TIP3   OH227156   5.935   4.207  12.713 -0.4794 -0.1294  0.2489
 1914TIP3    H127157   5.964   4.166  12.795 -0.6159 -1.5769 -0.3968
 1914TIP3    H227158   5.843   4.184  12.707 -0.7683  0.9807  0.2566
 1915TIP3   OH227159   5.683   1.838  13.494  0.0525 -0.2168 -0.0202
 1915TIP3    H127160   5.633   1.798  13.423  1.3132  1.6509 -2.0822
 1915TIP3    H227161   5.619   1.892  13.541 -0.7433 -1.3034  0.1810
 1916TIP3   OH227162   3.406   0.148  14.206  0.3267  0.0817 -0.1543
 1916TIP3    H127163   3.361   0.090  14.145  0.3015 -1.2543  1.0835
 1916TIP3    H227164   3.351   0.226  14.211 -0.5199 -0.4789 -0.5791
 1917TIP3   OH227165   5.351   3.467   4.789  0.2058  0.2937  1.4193
 1917TIP3    H127166   5.390   3.542   4.744 -0.7887 -0.1578 -0.3102
 1917TIP3    H227167   5.425   3.417   4.823  0.9540  1.1386  1.0692
 1918TIP3   OH227168   1.485   2.320   1.305 -0.2562  0.1047  1.2759
 1918TIP3    H127169   1.450   2.250   1.361 -0.9632  0.0006  0.7241
 1918TIP3    H227170   1.475   2.286   1.216 -3.1983  1.9674  0.7809
 1919TIP3   OH227171   6.044   3.091   5.369 -0.3220 -0.4550 -0.3477
 1919TIP3    H127172   6.085   3.004   5.376  2.2701  0.6454 -0.9245
 1919TIP3    H227173   6.100   3.139   5.308 -1.1802  1.9230  0.6497
 1920TIP3   OH227174   6.229   0.412   3.107 -0.8209  0.0200  0.6574
 1920TIP3    H127175   6.179   0.358   3.047 -1.3702  0.0125  1.1044
 1920TIP3    H227176   6.278   0.472   3.051 -1.7696  0.4076  0.2125
 1921TIP3   OH227177   1.264   1.467  15.463 -0.1441  0.0453  0.3487
 1921TIP3    H127178   1.351   1.426  15.468 -0.0677  0.1594  0.0130
 1921TIP3    H227179   1.264   1.531  15.534  0.3302  0.5635 -0.0991
 1922TIP3   OH227180   1.262   0.301   6.305 -0.3144 -0.4012  0.5071
 1922TIP3    H127181   1.171   0.330   6.301 -0.2282 -0.2212 -2.0570
 1922TIP3    H227182   1.312   0.371   6.262  0.6845 -1.5699 -0.3402
 1923TIP3   OH227183   1.382   3.358   4.951 -0.6609 -0.3784 -0.0600
 1923TIP3    H127184   1.402   3.295   4.882 -1.0482  0.0122 -0.5462
 1923TIP3    H227185   1.287   3.368   4.947 -0.6603 -0.1838  0.3788
 1924TIP3   OH227186   4.193   4.953   6.258  0.2929  0.4863 -0.2589
 1924TIP3    H127187   4.099   4.963   6.272  0.0565  0.0771 -1.4709
 1924TIP3    H227188   4.232   5.022   6.311 -0.5901 -0.2083  1.4028
 1925TIP3   OH227189   4.340   5.724  16.416  0.3048  0.3859  0.4339
 1925TIP3    H127190   4.398   5.765  16.480  0.1459 -1.6125  1.9577
 1925TIP3    H227191   4.343   5.631  16.437 -0.1586 -0.3012 -2.1893
 1926TIP3   OH227192   0.236   0.387  12.485  0.1023  0.4457 -0.2559
 1926TIP3    H127193   0.154   0.414  12.444  0.3969  0.1496 -1.0582
 1926TIP3    H227194   0.210   0.322  12.550 -0.1426 -1.1492 -1.8765
 1927TIP3   OH227195   0.262   5.259  16.433 -0.3364  0.1837 -0.5811
 1927TIP3    H127196   0.175   5.298  16.423 -0.6837 -0.5997 -0.6485
 1927TIP3    H227197   0.259   5.219  16.520 -0.0496  0.1401 -0.5934
 1928TIP3   OH227198   3.737   5.900  12.280  0.8827  0.1316  0.0066
 1928TIP3    H127199   3.674   5.959  12.238 -1.9595 -2.4059  0.4092
 1928TIP3    H227200   3.769   5.844  12.210 -2.0226 -2.4963  0.5608
 1929TIP3   OH227201   2.341   4.958   5.101 -0.5029 -0.6533  0.3315
 1929TIP3    H127202   2.276   4.937   5.034 -1.0256 -1.2198  0.9949
 1929TIP3    H227203   2.289   4.971   5.181  0.0889  0.2298  0.5833
 1930TIP3   OH227204   1.300   3.865  12.689 -0.6904 -0.1250 -0.0981
 1930TIP3    H127205   1.205   3.875  12.676 -0.8566 -1.3429  0.0466
 1930TIP3    H227206   1.307   3.804  12.763  0.2108  0.2928  0.1638
 1931TIP3   OH227207   5.236   4.200  15.744 -0.0729 -0.6472 -0.7953
 1931TIP3    H127208   5.187   4.195  15.826 -0.7671  0.0876 -1.1452
 1931TIP3    H227209   5.274   4.288  15.744 -1.6861  0.1008 -2.1189
 1932TIP3   OH227210   6.655   0.316   1.883  0.5484  0.0218 -0.5029
 1932TIP3    H127211   6.604   0.249   1.837 -1.2434  0.7498  0.3010
 1932TIP3    H227212   6.706   0.267   1.947  0.5472 -0.7124 -1.0528
 1933TIP3   OH227213   1.651   0.919  11.864  0.2479  0.0581  0.1996
 1933TIP3    H127214   1.672   1.011  11.847 -0.9785  0.0544 -1.5573
 1933TIP3    H227215   1.734   0.879  11.889  1.2117  1.2037 -1.0782
 1934TIP3   OH227216   3.103   1.244  11.445 -0.0521  0.0821 -0.4291
 1934TIP3    H127217   3.193   1.272  11.458  0.3104 -1.3499  0.3525
 1934TIP3    H227218   3.110   1.153  11.416 -1.2352 -0.0005 -0.5046
 1935TIP3   OH227219   5.384   2.233  15.597 -0.1951  0.5915 -0.3389
 1935TIP3    H127220   5.308   2.290  15.607 -1.7177 -1.3624 -0.1897
 1935TIP3    H227221   5.355   2.148  15.629  2.1322 -0.1996 -0.1126
 1936TIP3   OH227222   0.861   6.314  13.321 -0.1903  0.6344  0.0076
 1936TIP3    H127223   0.943   6.326  13.274  1.1486  0.0333  2.0746
 1936TIP3    H227224   0.855   6.390  13.380 -0.6932  0.2542  0.4634
 1937TIP3   OH227225   5.639   3.619  12.009  0.6107 -0.0159  0.4935
 1937TIP3    H127226   5.710   3.649  11.952  0.3384 -0.6195 -0.1667
 1937TIP3    H227227   5.618   3.696  12.062 -1.4249  1.6894 -2.4995
 1938TIP3   OH227228   4.129   2.124  15.751 -0.8156 -0.2072 -0.5576
 1938TIP3    H127229   4.191   2.067  15.706 -0.9133  0.0087 -0.9794
 1938TIP3    H227230   4.050   2.070  15.761 -0.2524 -0.7983  0.8465
 1939TIP3   OH227231   5.699   1.250   2.896 -0.4386  0.0555 -0.3149
 1939TIP3    H127232   5.609   1.232   2.870  0.5176 -0.6313 -3.6620
 1939TIP3    H227233   5.699   1.343   2.918 -2.3727 -0.4329  2.2478
 1940TIP3   OH227234   6.447   4.973  10.785  0.2152  0.2020 -0.2234
 1940TIP3    H127235   6.517   4.909  10.788 -0.2000 -0.2519 -0.0691
 1940TIP3    H227236   6.377   4.930  10.735  0.5319  1.1380 -1.5239
 1941TIP3   OH227237   0.544   5.279   6.464 -0.2955  0.4097  0.0559
 1941TIP3    H127238   0.465   5.276   6.517 -1.5246 -1.4786 -1.7183
 1941TIP3    H227239   0.603   5.215   6.504 -0.2508  0.7334  0.5144
 1942TIP3   OH227240   6.521   0.725  15.513 -0.4433 -0.1528  0.0130
 1942TIP3    H127241   6.527   0.808  15.559  0.2620  1.0819 -2.1870
 1942TIP3    H227242   6.603   0.680  15.533 -0.6117 -0.1310  0.7942
 1943TIP3   OH227243   5.591   2.600  12.980 -0.1406 -0.3943 -0.0917
 1943TIP3    H127244   5.646   2.600  12.902  0.3851 -2.1417  0.2421
 1943TIP3    H227245   5.558   2.511  12.986 -1.8519  0.2441  0.5475
 1944TIP3   OH227246   1.008   0.592   6.109 -0.1352  0.7544 -0.0656
 1944TIP3    H127247   0.916   0.616   6.098 -0.3207  0.6529  1.1306
 1944TIP3    H227248   1.006   0.498   6.126 -0.0879  1.1646  2.6036
 1945TIP3   OH227249   1.493   5.973   5.720 -0.0682 -0.2114 -0.1690
 1945TIP3    H127250   1.436   5.901   5.691  1.1699 -0.9899 -0.7294
 1945TIP3    H227251   1.494   6.033   5.647 -0.1184 -0.2218 -0.1788
 1946TIP3   OH227252   5.863   3.454   5.384  0.8378  0.1168  0.6785
 1946TIP3    H127253   5.951   3.489   5.370  0.7765  0.1123  0.2548
 1946TIP3    H227254   5.877   3.361   5.400  0.8426 -0.1109 -0.5116
 1947TIP3   OH227255   0.044   2.989   2.636 -0.0448 -0.0286 -0.0824
 1947TIP3    H127256   0.017   2.971   2.546  0.9336  1.5860 -0.7415
 1947TIP3    H227257   0.012   2.914   2.686 -0.1735 -1.2093 -1.8484
 1948TIP3   OH227258   1.617   3.906  13.917  0.2576  0.1958  0.0842
 1948TIP3    H127259   1.631   3.815  13.889  0.7791  0.6660 -1.2520
 1948TIP3    H227260   1.693   3.926  13.971  0.0889 -0.1938  0.4720
 1949TIP3   OH227261   1.534   2.427   1.860 -0.0690  0.7935  0.3711
 1949TIP3    H127262   1.536   2.334   1.881 -0.1661  0.9194  0.9724
 1949TIP3    H227263   1.447   2.456   1.888 -0.6061  0.7608 -1.2026
 1950TIP3   OH227264   6.132   3.905   0.708 -0.1164  0.3697 -0.1999
 1950TIP3    H127265   6.197   3.972   0.731  0.1454 -0.0359  0.2378
 1950TIP3    H227266   6.053   3.955   0.687  0.6451  0.9560 -1.8884
 1951TIP3   OH227267   5.543   2.868   2.515  0.3745  0.0017 -0.1594
 1951TIP3    H127268   5.492   2.821   2.450  0.4141 -0.5533  0.2106
 1951TIP3    H227269   5.618   2.811   2.533  0.7469  0.4798 -0.1609
 1952TIP3   OH227270   4.308   1.171  17.007 -0.0748 -0.3445  0.2102
 1952TIP3    H127271   4.220   1.149  17.037  0.3401 -0.2127  1.6186
 1952TIP3    H227272   4.361   1.094  17.027  0.6572  0.5420  1.9096
 1953TIP3   OH227273   4.510   3.586   4.383 -0.2991  0.3986 -0.4989
 1953TIP3    H127274   4.527   3.495   4.405  1.1725  0.6973 -0.3510
 1953TIP3    H227275   4.415   3.590   4.369 -0.3706 -1.1489 -0.5490
 1954TIP3   OH227276   1.843   6.746  11.891 -0.2980  0.1211 -0.3386
 1954TIP3    H127277   1.786   6.732  11.966  0.4359 -0.9863  0.0328
 1954TIP3    H227278   1.877   6.659  11.870  3.7745  1.0804  1.4677
 1955TIP3   OH227279   5.923   1.881  10.227  0.4709  0.5620  0.1990
 1955TIP3    H127280   5.956   1.827  10.299 -0.1469  0.9251  0.7657
 1955TIP3    H227281   5.843   1.920  10.261  0.4519  1.1648 -0.5081
 1956TIP3   OH227282   4.034   0.019  14.005  0.0071 -0.3645 -0.0089
 1956TIP3    H127283   4.108  -0.037  13.984  1.7908  1.6747  0.5470
 1956TIP3    H227284   3.960  -0.022  13.959  1.4298 -2.4281 -0.6282
 1957TIP3   OH227285   1.832   6.349  14.102  0.1469 -0.4674  0.4750
 1957TIP3    H127286   1.839   6.444  14.094  1.8043 -0.7127 -2.4481
 1957TIP3    H227287   1.740   6.330  14.085  0.0307  0.5637 -0.1456
 1958TIP3   OH227288   2.491   3.396  12.531 -0.4908 -0.1401  0.6283
 1958TIP3    H127289   2.546   3.383  12.608 -0.2422  0.6471  0.5911
 1958TIP3    H227290   2.549   3.380  12.457  0.1364  2.1342  0.5527
 1959TIP3   OH227291   3.998   6.714   4.165  0.1502 -0.0951  0.5603
 1959TIP3    H127292   3.905   6.738   4.158  0.4146  1.2385  1.1647
 1959TIP3    H227293   4.038   6.790   4.207  1.8042  0.0379 -1.1425
 1960TIP3   OH227294   2.381   2.757   4.402  0.0726 -0.8126 -0.0281
 1960TIP3    H127295   2.300   2.713   4.376 -0.3213  0.2080 -0.5765
 1960TIP3    H227296   2.362   2.850   4.394  0.9003 -0.5259  1.0949
 1961TIP3   OH227297   0.353   3.064  10.331  0.2205  0.6211  0.4566
 1961TIP3    H127298   0.395   2.979  10.333  1.3252  1.1484  0.5660
 1961TIP3    H227299   0.391   3.112  10.405 -0.7417  1.0504  0.6960
 1962TIP3   OH227300   1.499   6.717  10.947  0.5680  0.7817  0.1850
 1962TIP3    H127301   1.553   6.772  11.005  0.2940  0.2248  0.9906
 1962TIP3    H227302   1.481   6.772  10.871  0.2377  1.8269  1.0043
 1963TIP3   OH227303   6.359   1.681   1.944 -0.2107  0.6796  0.3161
 1963TIP3    H127304   6.302   1.724   2.008  0.0263  2.0478 -0.3541
 1963TIP3    H227305   6.372   1.746   1.876  0.6097 -0.2912 -0.4869
 1964TIP3   OH227306   0.682   3.099   0.818  0.0778  0.6236  0.1559
 1964TIP3    H127307   0.736   3.175   0.794  1.1725 -0.6882 -1.8631
 1964TIP3    H227308   0.739   3.046   0.874  1.0769 -0.7904 -2.0212
 1965TIP3   OH227309   1.576   6.651  16.510 -0.5517 -0.2295  0.4846
 1965TIP3    H127310   1.665   6.640  16.542  0.5547  1.5362 -1.7030
 1965TIP3    H227311   1.556   6.744  16.525 -1.8146 -0.4702  0.4098
 1966TIP3   OH227312   0.434   1.771  13.849 -0.2368  0.2538  0.2078
 1966TIP3    H127313   0.413   1.851  13.897 -0.7365 -0.5033  1.2716
 1966TIP3    H227314   0.437   1.703  13.916  1.1078 -0.4642 -0.5573
 1967TIP3   OH227315   4.796   2.918  14.612 -0.2102  0.1881  0.4801
 1967TIP3    H127316   4.884   2.920  14.651  0.7478 -0.1249 -1.5296
 1967TIP3    H227317   4.763   3.007  14.624  0.2264  0.2211  1.5654
 1968TIP3   OH227318   5.646   6.488  13.679 -0.3346  0.4115 -0.5304
 1968TIP3    H127319   5.569   6.469  13.626 -1.4457  1.1023  0.7818
 1968TIP3    H227320   5.658   6.410  13.734 -0.7593  0.7221  0.0151
 1969TIP3   OH227321   1.658   5.763   5.373  0.1559 -0.4530 -0.4864
 1969TIP3    H127322   1.724   5.772   5.442 -0.7884  0.3670  0.3570
 1969TIP3    H227323   1.685   5.824   5.305  0.5144 -0.4535 -0.3428
 1970TIP3   OH227324   1.359   6.551   3.038  0.5607 -0.2533 -0.2175
 1970TIP3    H127325   1.287   6.491   3.020 -0.0030 -0.3191  1.9341
 1970TIP3    H227326   1.438   6.499   3.024  0.0977 -1.2511  0.6932
 1971TIP3   OH227327   1.855   3.498   4.917 -0.5899 -0.3017 -0.0223
 1971TIP3    H127328   1.781   3.438   4.928 -1.7033  0.9584 -0.3541
 1971TIP3    H227329   1.814   3.582   4.900  0.9375  0.5411  0.3416
 1972TIP3   OH227330   5.929   5.465   1.812 -0.1841 -0.0775  0.5970
 1972TIP3    H127331   5.998   5.399   1.813  0.3184  0.4268  1.8320
 1972TIP3    H227332   5.966   5.539   1.763 -0.9421 -0.8603 -1.2525
 1973TIP3   OH227333   2.900   1.008   1.864  0.4556 -0.5576 -0.2055
 1973TIP3    H127334   2.874   1.055   1.943 -0.8254 -0.7317 -0.4942
 1973TIP3    H227335   2.899   1.075   1.795 -0.8788 -0.8704 -0.5215
 1974TIP3   OH227336   5.269   3.350  15.231 -0.5592 -0.3607  0.0837
 1974TIP3    H127337   5.316   3.320  15.309  1.2653  3.0319  0.4717
 1974TIP3    H227338   5.302   3.293  15.161  1.7892 -0.1520  0.9323
 1975TIP3   OH227339   3.263   2.996   3.093  0.3561 -0.5111  0.1581
 1975TIP3    H127340   3.233   3.030   3.178  0.9747 -1.0058  0.5859
 1975TIP3    H227341   3.336   3.053   3.069  0.2276 -0.4171 -0.0149
 1976TIP3   OH227342   5.073   4.773  11.192  0.0302  0.3282  0.0287
 1976TIP3    H127343   4.984   4.739  11.197  0.6089 -1.0267  2.8894
 1976TIP3    H227344   5.064   4.867  11.207 -0.8464  0.0317  1.4764
 1977TIP3   OH227345   3.025   5.798  16.153  0.5827  0.6149  0.4965
 1977TIP3    H127346   3.051   5.793  16.061 -1.6239 -0.1401 -0.1461
 1977TIP3    H227347   2.945   5.850  16.153  0.6931  0.8385  2.0471
 1978TIP3   OH227348   6.415   1.876  12.909  0.5561  0.5600 -0.1370
 1978TIP3    H127349   6.426   1.784  12.888 -1.5899 -0.0139  0.9068
 1978TIP3    H227350   6.503   1.911  12.916  1.4013 -1.2864 -1.0151
 1979TIP3   OH227351   3.197   4.231  13.203 -0.2688  0.5090  0.0251
 1979TIP3    H127352   3.215   4.258  13.293 -0.6123  0.7037  0.0413
 1979TIP3    H227353   3.246   4.150  13.191 -0.8882  0.0226  0.6632
 1980TIP3   OH227354   2.492   5.476  17.111 -0.3331  0.2972 -0.0240
 1980TIP3    H127355   2.418   5.517  17.155 -1.4504  0.0727 -1.6152
 1980TIP3    H227356   2.458   5.451  17.025  1.1189 -1.3359 -0.1810
 1981TIP3   OH227357   6.563   3.861  15.627  0.8909  0.4179 -0.7402
 1981TIP3    H127358   6.574   3.948  15.665  0.6141  0.2214 -0.2070
 1981TIP3    H227359   6.471   3.856  15.603  0.4824 -0.3703  0.8599
 1982TIP3   OH227360   2.073   6.001   3.924 -0.1524 -0.4141  0.3280
 1982TIP3    H127361   2.069   6.042   3.838 -1.7639 -1.8464 -0.3403
 1982TIP3    H227362   2.153   6.035   3.963  0.4717  0.4888 -1.6142
 1983TIP3   OH227363   1.904   2.726  15.292  0.1840 -0.5881  0.6878
 1983TIP3    H127364   1.897   2.803  15.348  0.7144  0.0899 -0.1480
 1983TIP3    H227365   1.969   2.670  15.335  3.1648  1.4172 -0.8251
 1984TIP3   OH227366   3.478   6.439  12.115 -0.2349 -0.1462  0.2757
 1984TIP3    H127367   3.468   6.476  12.027  2.0116  1.1911  0.5004
 1984TIP3    H227368   3.410   6.481  12.167 -0.1146  0.8356 -0.3346
 1985TIP3   OH227369   4.489   1.742  15.715 -0.4341 -0.1441  0.6015
 1985TIP3    H127370   4.555   1.746  15.646  0.1243 -0.5173  1.1113
 1985TIP3    H227371   4.413   1.703  15.672  0.0129 -0.6718  0.2715
 1986TIP3   OH227372   3.752   5.668  10.991 -0.2205 -0.1039  0.4430
 1986TIP3    H127373   3.751   5.732  11.063 -0.2307  0.5858 -0.1535
 1986TIP3    H227374   3.664   5.631  10.991 -0.4715  0.4705  0.2948
 1987TIP3   OH227375   6.434   4.698  15.881 -0.4057 -0.1729 -0.2852
 1987TIP3    H127376   6.480   4.617  15.903  0.2078  0.3583  0.4542
 1987TIP3    H227377   6.491   4.740  15.816  0.2436  0.5343  0.7059
 1988TIP3   OH227378   1.764   2.406   4.074  0.3403 -0.2302 -0.5130
 1988TIP3    H127379   1.678   2.423   4.037  0.7139 -0.7017 -1.6555
 1988TIP3    H227380   1.816   2.373   4.000  1.7256  0.7858 -0.0458
 1989TIP3   OH227381   4.691   2.558   2.036 -0.1052  1.0893  0.0471
 1989TIP3    H127382   4.614   2.506   2.058  0.5478 -0.5043 -1.2660
 1989TIP3    H227383   4.725   2.589   2.120 -0.6771 -0.3909  0.8406
 1990TIP3   OH227384   3.656   2.439  15.622  0.2908 -0.1696 -0.1741
 1990TIP3    H127385   3.586   2.504  15.629 -0.2374 -0.7544  0.0736
 1990TIP3    H227386   3.631   2.386  15.546  2.4593  1.9560 -2.5342
 1991TIP3   OH227387   1.910   4.021   1.779 -0.3536 -0.0005  0.5431
 1991TIP3    H127388   1.837   4.081   1.790  1.4392  1.9912  3.1327
 1991TIP3    H227389   1.924   3.985   1.866  2.3973  0.6502  0.4815
 1992TIP3   OH227390   2.493   4.769  11.540 -0.1219 -0.1273 -0.2168
 1992TIP3    H127391   2.476   4.712  11.465  2.6665 -0.1514 -0.9257
 1992TIP3    H227392   2.443   4.849  11.522 -0.4001 -0.5841 -1.5275
 1993TIP3   OH227393   3.538   2.461   3.591 -0.0117 -0.0922  0.3395
 1993TIP3    H127394   3.545   2.545   3.636  2.1207 -0.0826  0.1008
 1993TIP3    H227395   3.446   2.455   3.564 -0.1818  2.2324  0.2090
 1994TIP3   OH227396   5.603   2.876   0.167  0.0091  0.3955  0.5290
 1994TIP3    H127397   5.577   2.786   0.147  0.0551  0.2766  0.9907
 1994TIP3    H227398   5.681   2.891   0.113 -0.2242  0.2935  0.1619
 1995TIP3   OH227399   1.692   1.792  14.057  0.5929 -0.0132  0.7460
 1995TIP3    H127400   1.746   1.712  14.053  0.9445  0.2056  1.0103
 1995TIP3    H227401   1.719   1.842  13.980  1.1856  0.3525  1.1834
 1996TIP3   OH227402   5.418   4.050   3.429 -0.1351 -0.7308  0.0719
 1996TIP3    H127403   5.498   4.010   3.461  0.1432  0.3066  0.7326
 1996TIP3    H227404   5.447   4.121   3.371 -0.4622  0.9494  1.8470
 1997TIP3   OH227405   1.784   0.303   0.869  0.8377 -0.3155  0.0636
 1997TIP3    H127406   1.707   0.270   0.915 -0.4631  0.8566 -1.1561
 1997TIP3    H227407   1.848   0.320   0.938  0.2366 -1.8506  1.0528
 1998TIP3   OH227408   2.548   5.179  12.107 -0.1532  0.1391  0.0128
 1998TIP3    H127409   2.643   5.179  12.112 -0.1811  1.4506  2.0920
 1998TIP3    H227410   2.521   5.096  12.147  0.1284  0.7641  1.5810
 1999TIP3   OH227411   1.993   3.104  12.826 -0.6003  0.4356 -0.4411
 1999TIP3    H127412   1.992   3.196  12.798  0.7616  0.7501  0.4636
 1999TIP3    H227413   2.075   3.094  12.873 -2.2863 -0.3072  2.6108
 2000TIP3   OH227414   6.298   2.579   0.385  0.0892  0.0549  0.0293
 2000TIP3    H127415   6.273   2.633   0.460  1.1723 -1.8795  1.8884
 2000TIP3    H227416   6.392   2.564   0.396  0.3802  0.0611 -2.0030
 2001TIP3   OH227417   6.468   4.055   5.736  0.7560 -0.3253  0.3826
 2001TIP3    H127418   6.405   4.010   5.679 -0.6069  1.5749  0.2854
 2001TIP3    H227419   6.456   4.016   5.822 -2.2078  1.4164  0.8745
 2002TIP3   OH227420   6.167   1.132   4.881  0.2069 -0.2711 -0.2165
 2002TIP3    H127421   6.146   1.206   4.939 -3.0141 -1.7024  0.6693
 2002TIP3    H227422   6.151   1.166   4.793 -1.2519  0.1707  0.1756
 2003TIP3   OH227423   1.775   0.600  11.252  0.4746 -0.1827 -0.0638
 2003TIP3    H127424   1.862   0.560  11.258 -0.8038 -3.0926  0.5760
 2003TIP3    H227425   1.754   0.595  11.159 -0.2853 -2.6051  0.1778
 2004TIP3   OH227426   4.915   3.058  11.670 -0.2384  0.8858  0.1526
 2004TIP3    H127427   4.904   3.054  11.575 -0.4907  3.2650  0.0177
 2004TIP3    H227428   4.994   3.111  11.682  1.6629 -1.9641  1.3143
 2005TIP3   OH227429   1.871   2.385   1.725  0.0230 -0.0006 -0.2386
 2005TIP3    H127430   1.837   2.398   1.814 -0.1166  0.5678 -0.3674
 2005TIP3    H227431   1.820   2.312   1.690  1.6802 -1.8177  0.9509
 2006TIP3   OH227432   3.337   0.693   0.364 -0.5568  0.8571 -0.0762
 2006TIP3    H127433   3.277   0.641   0.309 -0.3707 -0.8436  1.2255
 2006TIP3    H227434   3.360   0.634   0.436 -0.4186  2.8244  1.5818
 2007TIP3   OH227435   3.445   0.665   1.286 -0.4413  0.2731  0.5438
 2007TIP3    H127436   3.353   0.681   1.307 -1.4147 -2.2521 -1.2835
 2007TIP3    H227437   3.465   0.729   1.218 -1.7649 -0.8653 -0.9912
 2008TIP3   OH227438   2.178   3.733   4.811  0.0379 -0.6635 -0.2950
 2008TIP3    H127439   2.133   3.763   4.732 -0.4493  0.1154  0.2599
 2008TIP3    H227440   2.124   3.765   4.883  2.0716  1.3493  0.4453
 2009TIP3   OH227441   3.355   2.244  16.779  0.4580 -0.3138  0.2022
 2009TIP3    H127442   3.442   2.247  16.817  0.7994  0.8285 -0.6231
 2009TIP3    H227443   3.300   2.296  16.838  0.6445  0.1253 -0.0059
 2010TIP3   OH227444   3.814   6.066   3.034  0.8669  0.3707  0.0776
 2010TIP3    H127445   3.842   6.156   3.051 -0.1452  0.8512 -0.6715
 2010TIP3    H227446   3.796   6.063   2.940 -1.0338 -0.0186  0.4032
 2011TIP3   OH227447   6.633   6.196   2.376 -0.1588 -0.4042  0.0846
 2011TIP3    H127448   6.695   6.180   2.304  2.5219  1.2252  1.8478
 2011TIP3    H227449   6.686   6.236   2.445 -2.9729 -0.1539  2.2940
 2012TIP3   OH227450   5.578   0.352   1.454  0.1998  0.0225 -0.4137
 2012TIP3    H127451   5.576   0.260   1.427 -0.2664  0.3207 -1.4416
 2012TIP3    H227452   5.514   0.356   1.526  0.4229 -0.5044 -0.1754
 2013TIP3   OH227453   5.695   1.539   2.569  0.2466 -0.1174 -0.3925
 2013TIP3    H127454   5.738   1.597   2.506  1.2342 -0.3232  0.0744
 2013TIP3    H227455   5.713   1.451   2.537  0.2075 -0.2062 -0.1681
 2014TIP3   OH227456   3.071   5.140  10.970 -0.4708 -0.0921 -0.1757
 2014TIP3    H127457   3.031   5.097  10.895 -1.7569 -1.1816  1.0899
 2014TIP3    H227458   3.106   5.222  10.934 -0.3659 -0.9202 -2.0934
 2015TIP3   OH227459   1.325   0.919   0.012  0.0746  0.3759 -0.1793
 2015TIP3    H127460   1.345   0.964  -0.070  0.5569  1.8366  0.6972
 2015TIP3    H227461   1.306   0.990   0.074 -0.3168 -0.6934  0.9657
 2016TIP3   OH227462   4.992   4.287  13.338 -0.6204 -0.0069  0.5025
 2016TIP3    H127463   4.935   4.355  13.301  0.0666  0.4254  0.2079
 2016TIP3    H227464   5.079   4.308  13.304 -0.2800 -0.6474  0.9538
 2017TIP3   OH227465   0.626   6.161   0.656 -0.2300  0.0293  0.7838
 2017TIP3    H127466   0.646   6.181   0.565 -0.9264 -0.2254  0.5683
 2017TIP3    H227467   0.664   6.234   0.705  2.3024 -1.0101  0.5499
 2018TIP3   OH227468   6.609   4.341  15.224  0.2447  0.0105 -0.0078
 2018TIP3    H127469   6.656   4.280  15.167  0.3183  0.2476 -0.2067
 2018TIP3    H227470   6.613   4.301  15.311 -0.1106 -0.4917 -0.2171
 2019TIP3   OH227471   3.057   1.428  14.081  0.3013  0.2287 -0.3067
 2019TIP3    H127472   3.119   1.501  14.076  0.8646 -0.3261 -2.8701
 2019TIP3    H227473   3.000   1.441  14.005 -2.2591  0.2423  1.4987
 2020TIP3   OH227474   1.504   1.126   1.720 -0.1120  0.1913 -0.1406
 2020TIP3    H127475   1.593   1.096   1.703  0.2358 -0.5843  2.6323
 2020TIP3    H227476   1.448   1.055   1.689  0.4281 -0.7481  0.9914
 2021TIP3   OH227477   0.169   1.514  15.864 -0.3678 -0.2269  0.5623
 2021TIP3    H127478   0.263   1.500  15.880 -0.0695 -0.8514 -1.4285
 2021TIP3    H227479   0.167   1.583  15.798 -1.1113 -2.1885 -1.6119
 2022TIP3   OH227480   4.407   3.959  17.206 -0.6251  0.5197 -0.3612
 2022TIP3    H127481   4.495   3.928  17.229 -0.7660 -0.6950 -1.3587
 2022TIP3    H227482   4.375   3.896  17.142 -1.8854  1.4469 -0.6901
 2023TIP3   OH227483   6.377   0.442  12.864 -0.3575  0.0399  0.0257
 2023TIP3    H127484   6.459   0.395  12.845  0.4845  2.1721 -2.1728
 2023TIP3    H227485   6.405   0.522  12.908 -1.4323  0.0520  0.7058
 2024TIP3   OH227486   2.872   2.667  12.628 -0.2793 -0.0724  0.0178
 2024TIP3    H127487   2.784   2.633  12.646 -0.5858 -0.5460 -2.1462
 2024TIP3    H227488   2.914   2.599  12.576  1.4684  0.0790  1.1504
 2025TIP3   OH227489   0.074   5.949   5.953  0.4247  0.8039  0.9525
 2025TIP3    H127490   0.102   6.040   5.938  0.4720  0.6927  0.3224
 2025TIP3    H227491   0.015   5.930   5.880  1.5531 -0.1382  0.2403
 2026TIP3   OH227492   3.677   3.564  13.147 -0.3619 -0.3999  0.0939
 2026TIP3    H127493   3.717   3.651  13.144 -0.9429 -0.1260 -2.9405
 2026TIP3    H227494   3.615   3.568  13.220  1.1311  0.9674  1.3598
 2027TIP3   OH227495   0.444   2.431   3.802  0.7599  0.7032  0.7345
 2027TIP3    H127496   0.363   2.482   3.803 -0.9418 -1.7946  0.1468
 2027TIP3    H227497   0.468   2.428   3.709  0.1388 -0.5098  0.5892
 2028TIP3   OH227498   6.580   3.681   1.036  0.2329 -0.1783 -0.0207
 2028TIP3    H127499   6.642   3.660   1.106 -0.2259  2.6364  1.3656
 2028TIP3    H227500   6.615   3.636   0.959  1.1696 -2.7892  1.7973
 2029TIP3   OH227501   3.841   1.009  16.692  0.0398 -0.4563 -0.1169
 2029TIP3    H127502   3.806   0.951  16.625  0.4487 -1.0004  0.1391
 2029TIP3    H227503   3.773   1.075  16.705 -0.3764 -0.8141 -0.4878
 2030TIP3   OH227504   0.244   3.861  11.533  0.0909 -0.3854 -0.5359
 2030TIP3    H127505   0.308   3.794  11.554 -0.1344  0.2657  2.8226
 2030TIP3    H227506   0.274   3.938  11.581 -1.1258  1.1192 -2.0760
 2031TIP3   OH227507   2.124   5.710   2.603  0.2479 -0.2339  0.1690
 2031TIP3    H127508   2.064   5.759   2.546 -0.9488  0.3385  1.8464
 2031TIP3    H227509   2.199   5.768   2.615  1.4442 -1.1264 -2.2927
 2032TIP3   OH227510   0.503   5.974   1.758 -0.0562 -0.0399  0.5225
 2032TIP3    H127511   0.584   5.924   1.770  1.6969  2.4411 -0.1347
 2032TIP3    H227512   0.460   5.933   1.683  0.0772 -1.9627  1.4332
 2033TIP3   OH227513   4.610   1.738  13.605  0.3006 -0.0963  0.1515
 2033TIP3    H127514   4.695   1.712  13.570  0.5167 -0.0561  0.6387
 2033TIP3    H227515   4.547   1.681  13.560  0.7617 -1.5075  1.2065
 2034TIP3   OH227516   5.605   3.352   3.191  0.2649 -0.5134  0.4626
 2034TIP3    H127517   5.563   3.266   3.196 -0.6864  0.0047  2.4898
 2034TIP3    H227518   5.699   3.333   3.200 -0.0174 -1.3183  2.2087
 2035TIP3   OH227519   2.108   3.670   2.644  0.4673  0.1342 -0.4868
 2035TIP3    H127520   2.089   3.760   2.671  1.0282  0.9211 -2.5237
 2035TIP3    H227521   2.202   3.670   2.625  0.6883 -1.1864  0.4420
 2036TIP3   OH227522   2.290   4.232   3.196  0.1564  0.5680 -0.4910
 2036TIP3    H127523   2.381   4.259   3.209  0.2864 -0.0395 -0.0560
 2036TIP3    H227524   2.250   4.242   3.283 -0.1044  0.5131 -0.6035
 2037TIP3   OH227525   2.026   5.586   4.672 -0.3808 -0.2813  0.0692
 2037TIP3    H127526   1.931   5.581   4.674 -0.3797 -0.0488  0.6430
 2037TIP3    H227527   2.051   5.625   4.755  0.0756  2.1448 -1.1065
 2038TIP3   OH227528   0.357   2.078  13.393  0.5538  0.5689  0.0011
 2038TIP3    H127529   0.280   2.135  13.387 -0.5253 -0.6227  1.7307
 2038TIP3    H227530   0.379   2.059  13.302 -0.0650  2.3858 -0.5726
 2039TIP3   OH227531   0.730   4.831   4.174  0.6737  0.1113  0.0976
 2039TIP3    H127532   0.813   4.783   4.171 -0.7329 -2.5532  0.8350
 2039TIP3    H227533   0.712   4.854   4.083  1.7917 -0.0545 -0.1773
 2040TIP3   OH227534   0.687   2.493  15.374  0.0145 -0.0834  0.6039
 2040TIP3    H127535   0.731   2.411  15.356  1.2355  0.4083  1.2370
 2040TIP3    H227536   0.625   2.504  15.302 -0.0532 -1.4636  0.4295
 2041TIP3   OH227537   4.932   5.893   2.154  0.1047  0.8477 -0.6630
 2041TIP3    H127538   4.967   5.880   2.242  0.2062 -0.2737 -0.8621
 2041TIP3    H227539   4.899   5.808   2.128  1.3251  0.8163 -2.2491
 2042TIP3   OH227540   0.379   2.315   2.717 -0.5911 -0.5281  0.0785
 2042TIP3    H127541   0.381   2.224   2.746 -1.7055 -0.5401  0.1615
 2042TIP3    H227542   0.393   2.366   2.798 -0.4870 -0.6179  0.1167
 2043TIP3   OH227543   5.014   3.843  14.784 -0.0656 -0.4557 -0.0245
 2043TIP3    H127544   5.066   3.922  14.766 -0.7499  0.0090  0.0131
 2043TIP3    H227545   5.021   3.832  14.879  0.4608 -0.7479 -0.0925
 2044TIP3   OH227546   5.041   0.024   3.428  0.4592  0.3041 -0.0182
 2044TIP3    H127547   5.082   0.100   3.386  0.3972  0.2381 -0.2001
 2044TIP3    H227548   5.100   0.002   3.500 -0.2852  1.4686  0.9978
 2045TIP3   OH227549   0.913   6.334   6.840  0.6082  0.2205  0.8904
 2045TIP3    H127550   0.973   6.357   6.910 -0.3478  0.9777  1.4848
 2045TIP3    H227551   0.837   6.296   6.884  0.6368 -0.7334  0.1527
 2046TIP3   OH227552   0.223   2.431   0.678 -0.4531 -0.2689 -0.7093
 2046TIP3    H127553   0.192   2.470   0.596  0.9579  1.0112 -0.6783
 2046TIP3    H227554   0.314   2.409   0.661 -0.6476 -1.6563 -0.0309
 2047TIP3   OH227555   0.130   0.586   1.390 -0.4610  0.0528  0.3451
 2047TIP3    H127556   0.080   0.521   1.439 -2.4634  0.2625 -1.3060
 2047TIP3    H227557   0.091   0.586   1.303  2.3275  0.4211 -0.9963
 2048TIP3   OH227558   5.780   6.018   0.891 -0.1652  0.3805 -0.8094
 2048TIP3    H127559   5.805   5.932   0.858 -0.4194  0.7345 -1.9354
 2048TIP3    H227560   5.698   6.038   0.847 -0.5419  0.8488  0.0792
 2049TIP3   OH227561   1.880   2.384  16.410 -0.0559 -0.1071 -0.1096
 2049TIP3    H127562   1.880   2.461  16.353  0.6171 -0.8018 -1.0687
 2049TIP3    H227563   1.923   2.316  16.359  0.1916 -0.8696  1.0801
 2050TIP3   OH227564   3.124   1.006   3.705  0.0011 -0.0944  0.4881
 2050TIP3    H127565   3.041   1.014   3.753 -0.2459  1.3934 -0.1400
 2050TIP3    H227566   3.190   0.997   3.774 -0.3024  2.4112  1.1994
 2051TIP3   OH227567   6.669   3.499   0.832  0.2584 -0.6910 -0.2982
 2051TIP3    H127568   6.651   3.420   0.882 -0.6376 -0.5029 -0.3040
 2051TIP3    H227569   6.762   3.492   0.807  0.6648 -0.8950  1.1831
 2052TIP3   OH227570   5.675   5.788  14.988 -0.2855 -0.6039 -0.2787
 2052TIP3    H127571   5.711   5.711  14.945 -0.5108 -0.4370 -0.7691
 2052TIP3    H227572   5.740   5.857  14.973  0.0854 -0.7837  0.4667
 2053TIP3   OH227573   3.723   4.887  14.333  0.0362  0.7062 -0.0677
 2053TIP3    H127574   3.689   4.829  14.401 -0.0886  0.8444 -0.0110
 2053TIP3    H227575   3.771   4.830  14.274  0.7993  0.6912  0.5532
 2054TIP3   OH227576   1.746   4.819   3.174  0.2081 -0.1209  0.1464
 2054TIP3    H127577   1.746   4.728   3.204  1.7462 -0.2922 -0.3033
 2054TIP3    H227578   1.839   4.842   3.168 -0.1521  1.7981  1.1734
 2055TIP3   OH227579   1.124   2.675  10.591  0.2315  0.0222 -0.1521
 2055TIP3    H127580   1.115   2.596  10.538 -0.3026 -0.1483  0.1918
 2055TIP3    H227581   1.154   2.741  10.530 -1.1726  0.0388 -0.8567
 2056TIP3   OH227582   1.026   1.026  11.348 -0.2470 -0.1607  0.3938
 2056TIP3    H127583   1.081   1.093  11.389 -2.0325  1.1805  0.7072
 2056TIP3    H227584   1.051   1.028  11.256  0.1139  0.5589  0.4988
 2057TIP3   OH227585   6.371   3.775  11.277 -0.2891  0.0905  0.7165
 2057TIP3    H127586   6.452   3.746  11.234 -0.3657  1.3030 -0.2870
 2057TIP3    H227587   6.321   3.818  11.208 -1.9312 -0.8512  1.2626
 2058TIP3   OH227588   1.179   3.277   5.324  0.4334 -0.9379 -0.3591
 2058TIP3    H127589   1.211   3.244   5.408 -0.1270  1.0811  0.7112
 2058TIP3    H227590   1.098   3.322   5.346  0.8614  0.6063 -1.7925
 2059TIP3   OH227591   5.402   6.380   0.356 -0.8731  0.1641 -0.1652
 2059TIP3    H127592   5.463   6.327   0.407 -1.1696  1.0128  1.1372
 2059TIP3    H227593   5.406   6.344   0.268 -0.4921 -1.5038  0.5015
 2060TIP3   OH227594   3.865   0.128  14.266  0.0143  0.0654 -0.2380
 2060TIP3    H127595   3.927   0.157  14.200 -2.9790 -0.0416 -3.4362
 2060TIP3    H227596   3.878   0.033  14.271  0.2560  0.0637 -0.7939
 2061TIP3   OH227597   0.990   6.093  11.829  0.3522  0.0854 -1.1344
 2061TIP3    H127598   0.958   6.015  11.783 -0.8261 -0.2760  0.2316
 2061TIP3    H227599   0.923   6.159  11.814  0.4549  0.2720 -0.7921
 2062TIP3   OH227600   0.382   5.991  15.685 -0.1837 -0.5881 -0.2243
 2062TIP3    H127601   0.365   5.898  15.672  2.4230 -1.1750 -0.0338
 2062TIP3    H227602   0.392   6.027  15.597 -1.9116 -0.2892 -0.3264
 2063TIP3   OH227603   5.749   1.389   3.756  0.1362 -0.2708 -0.5146
 2063TIP3    H127604   5.838   1.374   3.723  0.7101  0.6861  0.5338
 2063TIP3    H227605   5.717   1.462   3.703  0.4215  0.1527 -0.1098
 2064TIP3   OH227606   4.478   4.069   3.186  0.6857  0.4646  0.3505
 2064TIP3    H127607   4.390   4.033   3.200  0.6205 -0.4660 -2.0106
 2064TIP3    H227608   4.464   4.162   3.169  0.0109  0.1716 -0.8667
 2065TIP3   OH227609   1.248   1.587   4.072  0.0919  0.4055  0.3180
 2065TIP3    H127610   1.237   1.539   3.990 -0.4692 -0.2331  0.7536
 2065TIP3    H227611   1.253   1.679   4.046  1.1550  0.1318 -0.5379
 2066TIP3   OH227612   4.652   0.247  17.086 -0.6274 -0.2074  0.0702
 2066TIP3    H127613   4.648   0.247  17.182  1.2304  0.7901  0.1866
 2066TIP3    H227614   4.624   0.335  17.062  3.6749  1.4043  0.0869
 2067TIP3   OH227615   5.283   0.210   1.548  0.6220 -0.2873  0.3644
 2067TIP3    H127616   5.288   0.123   1.586 -1.2579 -0.7426 -0.2988
 2067TIP3    H227617   5.192   0.217   1.517  0.9955  1.5428 -0.4445
 2068TIP3   OH227618   3.826   4.927   4.039  0.0303  0.0778 -0.2994
 2068TIP3    H127619   3.880   5.002   4.067  2.6670 -2.0429  0.6963
 2068TIP3    H227620   3.745   4.936   4.089  0.3700  2.0764  0.0040
 2069TIP3   OH227621   1.283   2.374  16.600  0.3333  0.3785  0.0568
 2069TIP3    H127622   1.330   2.407  16.523  1.1923  1.8638  1.1709
 2069TIP3    H227623   1.245   2.291  16.570  1.8444  0.1840 -1.5333
 2070TIP3   OH227624   4.618   6.267   4.877  0.3398 -0.6154  0.3212
 2070TIP3    H127625   4.659   6.251   4.962  3.3580  3.1611 -0.1167
 2070TIP3    H227626   4.536   6.312   4.899  0.6963 -0.3907  1.2638
 2071TIP3   OH227627   6.217   4.474   5.199 -0.1822 -0.2295  0.1643
 2071TIP3    H127628   6.200   4.559   5.159  0.1188 -0.5616 -0.7058
 2071TIP3    H227629   6.131   4.435   5.211 -0.3072  0.0904  0.3390
 2072TIP3   OH227630   3.473   5.437   0.760 -0.5482 -0.3532  0.8864
 2072TIP3    H127631   3.419   5.368   0.722 -1.3668  0.8148 -0.1615
 2072TIP3    H227632   3.562   5.404   0.754 -0.6224 -0.3222 -2.0417
 2073TIP3   OH227633   2.585   5.163   3.724 -0.2888  0.0644 -0.2480
 2073TIP3    H127634   2.572   5.248   3.766 -0.2068  0.1161 -0.3251
 2073TIP3    H227635   2.500   5.140   3.687 -1.0136 -1.0687  1.9133
 2074TIP3   OH227636   1.577   2.258  17.178 -0.0094 -0.3837  0.6380
 2074TIP3    H127637   1.586   2.239  17.271 -0.2204 -1.8854  0.3781
 2074TIP3    H227638   1.612   2.180  17.134 -1.8372 -0.6447 -0.4994
 2075TIP3   OH227639   5.950   0.167  17.024  0.0796  0.2336  0.0035
 2075TIP3    H127640   6.009   0.231  17.065 -2.2816  1.5696  1.5669
 2075TIP3    H227641   5.863   0.208  17.029 -1.3389 -2.5252 -0.1692
 2076TIP3   OH227642   0.218   5.557  11.509  0.5957  0.4055 -0.1462
 2076TIP3    H127643   0.200   5.633  11.564 -0.3293  0.4748 -0.5259
 2076TIP3    H227644   0.137   5.505  11.512  1.4950 -1.0301  0.8235
 2077TIP3   OH227645   4.948   3.315  15.550 -0.5214  0.1092  0.6832
 2077TIP3    H127646   4.892   3.276  15.483 -0.5606  1.9842 -0.4536
 2077TIP3    H227647   4.920   3.274  15.632 -3.5444  0.8935  0.1635
 2078TIP3   OH227648   1.255   3.211  14.168  0.6154  0.0208 -0.2871
 2078TIP3    H127649   1.268   3.277  14.236 -0.5610  0.3313 -0.3429
 2078TIP3    H227650   1.331   3.153  14.176  1.2490  0.9008  0.2982
 2079TIP3   OH227651   5.433   3.032  15.689  0.8869  0.7493 -0.6780
 2079TIP3    H127652   5.430   2.941  15.719  0.8893  0.1927 -2.2702
 2079TIP3    H227653   5.473   3.080  15.762  0.5249 -0.4421  0.3423
 2080TIP3   OH227654   0.884   3.101  16.095  0.0979 -0.6071 -0.1951
 2080TIP3    H127655   0.798   3.131  16.124  0.8542  0.3991  1.1701
 2080TIP3    H227656   0.911   3.038  16.162  0.0698 -1.6117 -1.0971
 2081TIP3   OH227657   3.584   1.630   0.369 -0.2352  0.2377 -0.6660
 2081TIP3    H127658   3.580   1.578   0.289  0.6028 -1.2580  0.2176
 2081TIP3    H227659   3.672   1.614   0.403 -0.9051  0.0338  1.0700
 2082TIP3   OH227660   4.833   6.342  15.733  0.2168  0.6323  0.8516
 2082TIP3    H127661   4.912   6.386  15.762  0.7748  0.1433  0.1163
 2082TIP3    H227662   4.827   6.264  15.788 -0.1322  1.0148  1.3630
 2083TIP3   OH227663   6.021   4.593   3.025 -0.0021  0.3122  0.1848
 2083TIP3    H127664   5.963   4.559   2.957 -1.0607  0.3502  1.0485
 2083TIP3    H227665   5.972   4.666   3.064 -0.5004 -1.2096  2.6133
 2084TIP3   OH227666   6.493   6.177  13.892  0.1035 -0.6051  0.2700
 2084TIP3    H127667   6.514   6.221  13.974  0.0515 -1.0385  0.5191
 2084TIP3    H227668   6.559   6.108  13.885 -0.3737 -1.0699  0.3420
 2085TIP3   OH227669   3.101   3.375  12.136 -0.3080 -0.2619  0.9412
 2085TIP3    H127670   3.060   3.461  12.145 -0.3498 -0.4587  3.1542
 2085TIP3    H227671   3.178   3.391  12.081  1.1767  1.8030  3.3805
 2086TIP3   OH227672   2.161   2.733  11.788  0.3439 -0.6965  0.3143
 2086TIP3    H127673   2.145   2.714  11.696 -0.1884  1.3799 -0.0566
 2086TIP3    H227674   2.249   2.769  11.791 -0.6971  2.0643  0.1140
 2087TIP3   OH227675   4.084   3.209   2.660  0.0457  0.1313 -0.1424
 2087TIP3    H127676   3.989   3.202   2.655 -0.1115  1.5598  0.1880
 2087TIP3    H227677   4.100   3.252   2.744  0.9976 -0.2477 -0.1160
 2088TIP3   OH227678   2.882   5.149   1.917  0.2279 -0.3920 -0.1380
 2088TIP3    H127679   2.801   5.171   1.870 -0.0820 -0.2664  0.4383
 2088TIP3    H227680   2.947   5.137   1.849 -0.1569  0.0270 -0.5871
 2089TIP3   OH227681   0.814   4.259   0.923  0.0976  0.4297 -0.2897
 2089TIP3    H127682   0.774   4.229   1.005  0.9100  0.4177  0.1196
 2089TIP3    H227683   0.839   4.179   0.878 -1.4442  0.3938 -1.1416
 2090TIP3   OH227684   4.556   6.180   1.993  0.2167  0.0615 -0.1909
 2090TIP3    H127685   4.648   6.207   1.994  0.8638 -1.8987 -1.5145
 2090TIP3    H227686   4.520   6.213   2.076  2.3160  0.1577  0.7291
 2091TIP3   OH227687   0.962   6.411  13.934 -0.6618 -0.5715  0.0637
 2091TIP3    H127688   0.895   6.441  13.872 -0.8000 -0.2890  0.3461
 2091TIP3    H227689   1.021   6.485  13.943  0.8850 -1.4915 -1.7540
 2092TIP3   OH227690   3.631   1.269   4.838 -0.1274 -0.1890  0.1000
 2092TIP3    H127691   3.685   1.341   4.806 -0.7581  0.4586  0.4419
 2092TIP3    H227692   3.693   1.205   4.872  0.4113  0.9390  1.3240
 2093TIP3   OH227693   1.292   6.621  16.621  0.2183  0.0805  0.4659
 2093TIP3    H127694   1.299   6.573  16.703  0.9359  2.6558  2.0233
 2093TIP3    H227695   1.382   6.627  16.589  0.0750  0.0191  0.0365
 2094TIP3   OH227696   0.095   3.563   5.086 -0.1962  0.1290 -0.7898
 2094TIP3    H127697   0.058   3.550   4.998 -1.3570  1.1218 -0.4677
 2094TIP3    H227698   0.020   3.585   5.141  0.7862  1.7414 -0.0031
 2095TIP3   OH227699   3.170   1.613   3.496  0.3404  0.0491 -0.0290
 2095TIP3    H127700   3.204   1.593   3.583  2.1036 -0.1333 -0.7080
 2095TIP3    H227701   3.224   1.561   3.437 -2.0099 -1.2692 -1.1583
 2096TIP3   OH227702   1.825   1.432   2.327 -0.1230 -0.0249 -0.4161
 2096TIP3    H127703   1.863   1.380   2.257 -1.6292  3.4400 -4.1692
 2096TIP3    H227704   1.900   1.472   2.371  0.8299 -1.6981 -0.4355
 2097TIP3   OH227705   6.334   1.301   2.505 -0.6721 -0.0411  0.1588
 2097TIP3    H127706   6.375   1.295   2.419 -1.5432 -0.4308 -0.2308
 2097TIP3    H227707   6.391   1.248   2.562  0.3759  0.9104  0.0158
 2098TIP3   OH227708   4.889   3.140  16.239 -0.3763  0.0170  0.2787
 2098TIP3    H127709   4.932   3.054  16.235  0.1091  0.2744 -0.3615
 2098TIP3    H227710   4.954   3.200  16.202 -0.9400  0.5651  0.1649
 2099TIP3   OH227711   4.459   3.550   1.823  0.0089  0.6350  0.0249
 2099TIP3    H127712   4.550   3.568   1.847  0.0502 -0.5566  0.8212
 2099TIP3    H227713   4.442   3.462   1.856 -1.1952  0.5265 -0.8277
 2100TIP3   OH227714   6.631   0.221  13.969 -0.1545 -0.3349 -0.2855
 2100TIP3    H127715   6.721   0.202  13.994  0.3222  0.9248 -0.9875
 2100TIP3    H227716   6.609   0.302  14.015 -0.6294 -0.1621 -0.7958
 2101TIP3   OH227717   1.740   0.117   6.340  0.1012  0.3611  0.1662
 2101TIP3    H127718   1.793   0.039   6.356  0.4270  0.5233 -0.0981
 2101TIP3    H227719   1.793   0.189   6.373 -1.2318  0.2782  2.6798
 2102TIP3   OH227720   1.412   2.509  12.185  0.5321 -0.4662  0.0794
 2102TIP3    H127721   1.484   2.557  12.144 -0.5869 -0.1612 -1.6424
 2102TIP3    H227722   1.338   2.523  12.126 -0.3628 -2.6473  0.6019
 2103TIP3   OH227723   1.055   1.220   1.513 -0.2573 -0.1939  0.0207
 2103TIP3    H127724   1.109   1.269   1.450  2.1910 -0.0818  2.0432
 2103TIP3    H227725   1.036   1.283   1.582 -1.0470 -0.8781  0.4321
 2104TIP3   OH227726   3.383   2.432  10.918  0.3059  0.0301 -0.0272
 2104TIP3    H127727   3.474   2.436  10.891  0.0626  1.7714 -0.7426
 2104TIP3    H227728   3.348   2.355  10.874  1.2207 -0.1488 -0.4543
 2105TIP3   OH227729   4.802   4.139   5.190  0.0977 -0.2859  0.1723
 2105TIP3    H127730   4.766   4.091   5.116  0.0074 -1.8964  1.2158
 2105TIP3    H227731   4.726   4.184   5.228  0.2078  0.8468 -0.8940
 2106TIP3   OH227732   4.571   1.179   2.969 -0.0328  0.3518 -0.2123
 2106TIP3    H127733   4.555   1.166   2.876  0.3596  1.0542 -0.3876
 2106TIP3    H227734   4.655   1.226   2.972 -0.7232  1.5797  0.4208
 2107TIP3   OH227735   1.350   3.958   1.870 -0.0964 -0.1363 -0.1363
 2107TIP3    H127736   1.279   3.895   1.858 -0.4372  0.2512 -0.1584
 2107TIP3    H227737   1.430   3.906   1.856 -0.3259 -0.8458  1.0761
 2108TIP3   OH227738   3.301   3.484  16.144  0.0097 -0.4134  0.4902
 2108TIP3    H127739   3.383   3.442  16.167 -0.2595 -1.3279 -0.1817
 2108TIP3    H227740   3.241   3.412  16.126  0.0204  0.1821 -2.4666
 2109TIP3   OH227741   3.687   4.298   2.006  0.2442 -0.2665  0.2850
 2109TIP3    H127742   3.767   4.339   2.040 -0.1083  1.0562 -0.4097
 2109TIP3    H227743   3.704   4.287   1.913 -0.5466  0.4648  0.0416
 2110TIP3   OH227744   4.125   4.214  17.245 -0.2560 -0.6720  0.7608
 2110TIP3    H127745   4.218   4.225  17.222 -0.5805  0.7779  0.0390
 2110TIP3    H227746   4.088   4.301  17.236 -1.2350 -0.7542  3.2207
 2111TIP3   OH227747   1.540   5.797   0.287  0.0468 -0.2535 -0.2259
 2111TIP3    H127748   1.559   5.807   0.380 -0.1173  0.0675 -0.2259
 2111TIP3    H227749   1.623   5.815   0.243  0.0358 -0.0460 -0.1618
 2112TIP3   OH227750   3.631   6.669   1.407  0.2183 -0.4592  0.0141
 2112TIP3    H127751   3.547   6.703   1.437  0.6166 -1.3018  2.3232
 2112TIP3    H227752   3.692   6.741   1.418  0.0986 -0.3311 -0.1541
 2113TIP3   OH227753   3.742   5.681   3.911 -0.6794  0.2113  0.1114
 2113TIP3    H127754   3.803   5.728   3.967 -0.0480 -0.0063 -0.3697
 2113TIP3    H227755   3.798   5.626   3.856 -1.2756  0.4278 -0.7349
 2114TIP3   OH227756   2.045   0.516  16.501  0.1325 -0.3338  0.1523
 2114TIP3    H127757   2.032   0.454  16.572  1.4973  1.0451  1.6881
 2114TIP3    H227758   2.064   0.462  16.424 -0.0998 -1.8246  1.1149
 2115TIP3   OH227759   2.905   3.211   3.223 -0.5597 -0.5228 -0.0876
 2115TIP3    H127760   2.839   3.244   3.285 -1.2079 -0.7517 -0.6396
 2115TIP3    H227761   2.977   3.274   3.230 -0.7396 -0.3828  0.6793
 2116TIP3   OH227762   6.054   5.157   5.315  0.3639  0.4055 -0.1184
 2116TIP3    H127763   6.122   5.193   5.372  1.2163 -0.2180 -0.7152
 2116TIP3    H227764   5.973   5.193   5.349  1.1448  2.8780 -0.6353
 2117TIP3   OH227765   5.250   5.056   3.841 -0.2112  0.7414  0.9082
 2117TIP3    H127766   5.213   4.982   3.793  0.6854 -0.1156  1.5053
 2117TIP3    H227767   5.180   5.082   3.902 -0.7722  0.8226  0.2428
 2118TIP3   OH227768   4.814   5.210   2.630 -0.6518  0.3466 -0.0526
 2118TIP3    H127769   4.736   5.156   2.638 -0.1804 -0.0718  2.9068
 2118TIP3    H227770   4.861   5.197   2.713  1.6552  1.9566 -1.0009
 2119TIP3   OH227771   5.655   6.265   3.484 -0.0353 -0.3330  0.0115
 2119TIP3    H127772   5.619   6.204   3.419  0.5030 -0.4256 -0.2103
 2119TIP3    H227773   5.749   6.269   3.463  0.1430 -0.3481  0.7714
 2120TIP3   OH227774   1.595   2.893  11.933  0.3896 -0.0269 -0.2301
 2120TIP3    H127775   1.564   2.983  11.947  0.1716 -0.3548  1.6379
 2120TIP3    H227776   1.688   2.896  11.956  0.3826 -0.2798 -0.1683
 2121TIP3   OH227777   5.513   4.757   4.756  0.0792 -0.2700 -0.2486
 2121TIP3    H127778   5.514   4.846   4.719  0.8911 -0.6737 -1.2463
 2121TIP3    H227779   5.424   4.725   4.739 -0.5927  0.7469  1.1552
 2122TIP3   OH227780   2.026   6.238   3.421 -0.4726 -0.1408  0.8272
 2122TIP3    H127781   2.027   6.282   3.336  0.1270 -0.5852  0.5995
 2122TIP3    H227782   1.933   6.231   3.443 -0.5751  1.4709  1.0042
 2123TIP3   OH227783   2.799   1.420   2.290  0.4570  0.3696 -0.1188
 2123TIP3    H127784   2.803   1.339   2.341  0.7786  0.1406 -0.5004
 2123TIP3    H227785   2.842   1.485   2.346  0.9579  0.0809 -0.1587
 2124TIP3   OH227786   6.387   1.252   0.622 -0.0689 -0.6180  0.4925
 2124TIP3    H127787   6.375   1.304   0.542 -0.7227 -0.2129  0.8401
 2124TIP3    H227788   6.301   1.214   0.638 -0.6896  1.3894  2.4229
 2125TIP3   OH227789   5.737   5.944  13.196 -0.0181  0.1174  0.8683
 2125TIP3    H127790   5.712   5.894  13.119 -3.4183  1.4106  0.9920
 2125TIP3    H227791   5.735   5.881  13.268 -0.6693 -0.3117  0.4774
 2126TIP3   OH227792   4.918   0.364   3.406 -0.7402  0.0711 -0.0503
 2126TIP3    H127793   4.852   0.309   3.448  0.6980 -0.3517  1.7816
 2126TIP3    H227794   5.000   0.341   3.450  1.1100 -0.9372 -3.5650
 2127TIP3   OH227795   4.463   3.188  14.457 -0.6098 -0.4969 -0.0461
 2127TIP3    H127796   4.471   3.138  14.376 -0.7662  1.2797 -1.1913
 2127TIP3    H227797   4.553   3.201  14.487 -0.5106 -0.4404 -0.3713
 2128TIP3   OH227798   4.882   3.731   5.053  0.2039 -0.1160  0.4886
 2128TIP3    H127799   4.853   3.788   5.125 -0.5824  0.9106 -0.5970
 2128TIP3    H227800   4.815   3.741   4.986  1.1008 -0.7712 -0.5396
 2129TIP3   OH227801   0.918   4.128  14.994 -0.8148 -0.1872  0.6618
 2129TIP3    H127802   0.862   4.111  15.069 -2.1091 -0.1881 -0.2746
 2129TIP3    H227803   0.895   4.216  14.966  0.0367  0.0177  0.5703
 2130TIP3   OH227804   6.037   3.406   3.809  0.2736  0.0848  0.5952
 2130TIP3    H127805   5.979   3.341   3.848 -1.8462  0.9978 -0.8687
 2130TIP3    H227806   6.044   3.475   3.874  2.4840 -1.4239  2.1349
 2131TIP3   OH227807   2.363   0.589   4.569 -0.2178 -0.4210 -0.3093
 2131TIP3    H127808   2.401   0.653   4.507 -0.7988  0.3784  0.1474
 2131TIP3    H227809   2.276   0.570   4.534 -0.3357 -0.3877 -0.0373
 2132TIP3   OH227810   4.782   0.027   2.002 -0.4288  0.1632  0.5743
 2132TIP3    H127811   4.843   0.028   1.928 -1.7291 -0.4201 -0.5635
 2132TIP3    H227812   4.739  -0.058   1.996 -0.5132  0.0886  2.0639
 2133TIP3   OH227813   1.039   1.659  13.925  0.6237 -0.0072  0.5055
 2133TIP3    H127814   0.957   1.678  13.879  0.9008  0.8919  0.3626
 2133TIP3    H227815   1.083   1.744  13.930  0.7390 -0.1433  2.1728
 2134TIP3   OH227816   3.754   2.968  16.939 -0.1029 -0.2001  0.4018
 2134TIP3    H127817   3.722   2.883  16.971  0.7645  0.1544  2.3703
 2134TIP3    H227818   3.788   3.011  17.018 -0.3113  1.8897 -0.6013
 2135TIP3   OH227819   3.906   4.416  14.611  0.1169  0.4209  0.3442
 2135TIP3    H127820   3.960   4.399  14.688 -0.8098  1.1773  1.1918
 2135TIP3    H227821   3.966   4.411  14.537  1.3153  1.1509  1.2486
 2136TIP3   OH227822   2.624   5.815  16.411  0.5664  0.6770 -0.2193
 2136TIP3    H127823   2.654   5.903  16.432  2.1149 -0.2157  1.5720
 2136TIP3    H227824   2.704   5.767  16.390 -0.2958 -0.2243 -1.6867
 2137TIP3   OH227825   3.480   2.429  14.917  0.1628  0.6834  0.1184
 2137TIP3    H127826   3.527   2.504  14.954  1.0600 -0.7612  2.0805
 2137TIP3    H227827   3.549   2.370  14.888 -0.5245  1.1607 -2.8159
 2138TIP3   OH227828   0.032   4.309   4.224 -0.2900 -0.2331  0.5444
 2138TIP3    H127829   0.061   4.316   4.314 -1.1427 -1.0785  0.9032
 2138TIP3    H227830  -0.053   4.353   4.222 -0.7590 -1.1122  0.4120
 2139TIP3   OH227831   3.981   3.153  10.647  0.2829  0.0624 -0.5796
 2139TIP3    H127832   3.889   3.150  10.621 -0.0021 -1.6274  0.4419
 2139TIP3    H227833   4.028   3.178  10.567 -1.0869  1.6010 -0.9500
 2140TIP3   OH227834   5.492   4.492   4.520  0.3267  0.1398  0.0879
 2140TIP3    H127835   5.466   4.562   4.460  0.7619  0.3633  0.1611
 2140TIP3    H227836   5.578   4.518   4.552  0.3795 -0.3048  0.3112
 2141TIP3   OH227837   0.363   0.637  12.793 -0.5124  0.0768  0.8815
 2141TIP3    H127838   0.385   0.681  12.711 -0.9999 -0.1273  0.6408
 2141TIP3    H227839   0.423   0.562  12.797  0.0883  0.5584  1.1282
 2142TIP3   OH227840   2.444   0.041   5.488 -0.4451  0.9024  0.6779
 2142TIP3    H127841   2.529   0.047   5.444 -0.7577  0.6696  0.0280
 2142TIP3    H227842   2.466   0.036   5.581  0.3856 -1.7006  0.4138
 2143TIP3   OH227843   1.634   4.698  14.631 -0.3619  1.0015 -0.1858
 2143TIP3    H127844   1.686   4.769  14.593  0.7176  0.5308  0.3475
 2143TIP3    H227845   1.691   4.621  14.625 -0.5552  0.6981  1.4082
 2144TIP3   OH227846   3.723   1.698   0.932 -0.0092  0.1617 -0.9035
 2144TIP3    H127847   3.764   1.615   0.906 -0.3344 -0.1310 -0.4888
 2144TIP3    H227848   3.708   1.743   0.849  0.5892  0.0082 -1.1041
 2145TIP3   OH227849   5.012   1.541   1.292  0.6269 -0.2369  0.3507
 2145TIP3    H127850   5.006   1.600   1.217 -1.5875 -0.5968  0.1927
 2145TIP3    H227851   5.052   1.461   1.256  0.3277 -0.1172 -0.2588
 2146TIP3   OH227852   3.591   0.475   4.562  0.0577 -0.4371  0.5568
 2146TIP3    H127853   3.556   0.551   4.516 -0.0181  0.8198  2.5709
 2146TIP3    H227854   3.651   0.511   4.627  0.8136 -2.1797  0.9058
 2147TIP3   OH227855   3.696   4.725  14.565 -0.0061 -0.3266  0.4669
 2147TIP3    H127856   3.791   4.721  14.582 -0.0605 -0.7634  0.6815
 2147TIP3    H227857   3.664   4.638  14.589 -0.4151 -0.2767  0.1010
 2148TIP3   OH227858   3.125   5.513  15.021 -0.6515  0.0027  0.4203
 2148TIP3    H127859   3.180   5.435  15.032  0.4078  0.4290 -1.4079
 2148TIP3    H227860   3.187   5.585  15.015 -1.4913  0.6941 -0.2194
 2149TIP3   OH227861   0.237   3.302  14.615 -0.4561 -0.0565  0.3922
 2149TIP3    H127862   0.182   3.232  14.651 -0.3760  0.8571  2.4977
 2149TIP3    H227863   0.312   3.307  14.676  0.5163  0.5800 -0.8132
 2150TIP3   OH227864   6.735   4.608   5.862  0.5242  0.3339 -0.2710
 2150TIP3    H127865   6.733   4.603   5.958 -0.4190  0.8567 -0.2472
 2150TIP3    H227866   6.739   4.517   5.833 -0.6111  0.0983  0.2553
 2151TIP3   OH227867   5.404   1.013  13.892  0.5196 -0.8525 -0.5058
 2151TIP3    H127868   5.404   0.948  13.963 -1.0804 -0.7266 -0.3622
 2151TIP3    H227869   5.476   0.985  13.835  1.6927 -1.0985  1.0166
 2152TIP3   OH227870   0.960   6.534   6.290 -0.6458 -0.0650  0.1453
 2152TIP3    H127871   1.047   6.497   6.300 -0.4749 -0.2363 -1.7207
 2152TIP3    H227872   0.912   6.471   6.236 -1.9558  0.0007  1.1814
 2153TIP3   OH227873   6.241   2.317  12.648  0.1753  0.3179  0.0200
 2153TIP3    H127874   6.199   2.303  12.563 -0.0426  2.5478 -0.2796
 2153TIP3    H227875   6.197   2.394  12.685 -0.6157 -1.2952  2.7740
 2154TIP3   OH227876   6.611   0.777   4.946 -0.1753 -0.2662 -0.6131
 2154TIP3    H127877   6.684   0.732   4.904 -0.4095 -0.9548 -0.2931
 2154TIP3    H227878   6.564   0.709   4.993 -0.2156  0.4019  0.3498
 2155TIP3   OH227879   3.933   0.621  14.809 -0.2901 -0.1495  0.4540
 2155TIP3    H127880   4.000   0.561  14.839  0.1096  0.1250  0.1213
 2155TIP3    H227881   3.884   0.573  14.743  1.0991  0.4325 -1.0582
 2156TIP3   OH227882   2.759   2.135   2.305  0.0939 -0.9201 -0.0563
 2156TIP3    H127883   2.851   2.153   2.321 -0.0424 -2.6368  3.6190
 2156TIP3    H227884   2.756   2.101   2.215  2.6383  1.1560 -1.0213
 2157TIP3   OH227885   3.628   4.225   0.792 -0.4332  0.1195  0.0490
 2157TIP3    H127886   3.611   4.242   0.699  1.3740 -0.5765 -0.4447
 2157TIP3    H227887   3.660   4.308   0.826  1.5615 -0.3175 -0.6517
 2158TIP3   OH227888   5.510   2.180  15.058  0.0925 -0.1427 -0.2608
 2158TIP3    H127889   5.422   2.195  15.091  0.9226  0.7952  1.7300
 2158TIP3    H227890   5.547   2.114  15.117  0.4787 -1.1052 -1.5468
 2159TIP3   OH227891   1.606   1.924  12.375 -0.6429  1.0134  0.4564
 2159TIP3    H127892   1.628   1.834  12.401 -0.5995  1.2252  1.1600
 2159TIP3    H227893   1.522   1.942  12.416 -0.5907  1.3423  0.4239
 2160TIP3   OH227894   6.548   1.668  12.246 -0.2643 -0.2058 -0.0949
 2160TIP3    H127895   6.531   1.576  12.226 -1.0044  0.1428 -1.1516
 2160TIP3    H227896   6.462   1.703  12.273  0.3958 -0.3029  2.4106
 2161TIP3   OH227897   0.220   5.914  15.400 -0.1432  0.3846 -0.7319
 2161TIP3    H127898   0.244   6.005  15.418 -1.1538  0.9241 -2.0076
 2161TIP3    H227899   0.271   5.890  15.323  0.7823 -0.4491  0.1008
 2162TIP3   OH227900   0.800   2.053   4.294 -0.5202 -0.0532 -0.2757
 2162TIP3    H127901   0.778   2.138   4.257  1.2362  1.4129  1.8401
 2162TIP3    H227902   0.855   2.072   4.369  1.3751 -3.1399 -0.7013
 2163TIP3   OH227903   1.412   2.628   0.679  0.0009 -0.4653 -0.6043
 2163TIP3    H127904   1.493   2.625   0.730 -0.6063 -0.8715  0.3871
 2163TIP3    H227905   1.342   2.620   0.745 -0.8847  0.9157 -1.3234
 2164TIP3   OH227906   4.048   0.371   1.176 -0.4271 -0.2476  0.0809
 2164TIP3    H127907   4.027   0.296   1.121 -0.9023 -0.2043  0.1987
 2164TIP3    H227908   3.965   0.395   1.217 -0.2228  0.1658  0.2632
 2165TIP3   OH227909   5.868   1.928  13.849 -0.1326  0.0283 -0.3614
 2165TIP3    H127910   5.787   1.887  13.879 -0.2222  0.0521 -0.5690
 2165TIP3    H227911   5.841   2.011  13.812 -0.1688 -0.5053 -1.5733
 2166TIP3   OH227912   5.463   2.385   2.671 -0.8887  0.3773 -0.1087
 2166TIP3    H127913   5.404   2.419   2.604 -0.7418 -0.7123 -0.8153
 2166TIP3    H227914   5.497   2.303   2.635 -0.9195 -0.3269  1.3572
 2167TIP3   OH227915   4.414   2.580  16.392 -0.1838 -0.5117  0.5859
 2167TIP3    H127916   4.506   2.563  16.369  0.2423  1.1278  0.9758
 2167TIP3    H227917   4.379   2.493  16.412  0.6907 -1.4562 -1.5666
 2168TIP3   OH227918   0.086   3.354   1.985  0.3675 -0.0942  0.3513
 2168TIP3    H127919   0.034   3.376   1.907 -0.3170 -0.7475  0.6161
 2168TIP3    H227920   0.177   3.359   1.955  0.2079 -4.7954 -1.8908
 2169TIP3   OH227921   0.279   5.957  16.544  0.3270  0.2448 -0.5692
 2169TIP3    H127922   0.200   6.004  16.572  0.6976 -0.8233  2.6454
 2169TIP3    H227923   0.351   6.009  16.579  0.9556 -0.2259 -1.1368
 2170TIP3   OH227924   3.662   5.391   4.921 -0.0944 -0.6975 -0.7473
 2170TIP3    H127925   3.703   5.378   4.836 -1.0265 -0.3407 -1.2627
 2170TIP3    H227926   3.569   5.374   4.906 -0.4802  0.6905 -0.1109
 2171TIP3   OH227927   5.883   2.007   1.715 -0.3448  0.3540 -0.1080
 2171TIP3    H127928   5.856   1.927   1.671 -1.1504  1.2269 -1.2658
 2171TIP3    H227929   5.976   2.016   1.693 -0.3523 -0.0583 -0.3123
 2172TIP3   OH227930   5.264   1.757   2.601 -0.6227  0.1095 -0.3624
 2172TIP3    H127931   5.241   1.686   2.660  0.8741 -0.4548 -0.4267
 2172TIP3    H227932   5.325   1.718   2.539 -1.3392  0.9569 -1.6614
 2173TIP3   OH227933   2.027   3.571  10.588  0.4898 -0.3821 -0.8188
 2173TIP3    H127934   2.060   3.613  10.508  1.3486 -2.4086 -1.5980
 2173TIP3    H227935   2.105   3.536  10.631 -0.0059  0.3715  0.7582
 2174TIP3   OH227936   2.975   5.129   3.414 -0.2192  0.3653 -0.0571
 2174TIP3    H127937   2.900   5.075   3.440  1.0561 -1.3088  0.3082
 2174TIP3    H227938   3.048   5.095   3.465  1.3442  0.2644 -2.2277
 2175TIP3   OH227939   3.579   3.977  14.190 -0.0066  0.0959 -0.3288
 2175TIP3    H127940   3.664   3.954  14.152  0.8938  0.4438  1.3971
 2175TIP3    H227941   3.522   3.989  14.114  0.6822 -3.0559 -1.4660
 2176TIP3   OH227942   6.707   3.929   4.978  0.0801  0.4756 -0.0902
 2176TIP3    H127943   6.744   3.986   5.046  0.8365  1.4412 -1.2423
 2176TIP3    H227944   6.774   3.930   4.909  0.0247 -1.7147 -0.2192
 2177TIP3   OH227945   2.214   4.543   4.251  0.2022  0.2142 -0.3199
 2177TIP3    H127946   2.181   4.542   4.162 -0.4118  0.0562 -0.0948
 2177TIP3    H227947   2.192   4.630   4.284 -1.4399 -0.4213  0.3519
 2178TIP3   OH227948   1.667   0.679  11.488  0.0883 -0.5928 -0.2676
 2178TIP3    H127949   1.698   0.664  11.398  1.3721 -0.0048  0.0545
 2178TIP3    H227950   1.737   0.646  11.543  0.1055  0.6652  0.4991
 2179TIP3   OH227951   1.978   2.437   0.737  0.4471  0.0414 -0.0726
 2179TIP3    H127952   1.961   2.520   0.693  2.5059  0.1457 -0.7887
 2179TIP3    H227953   2.068   2.416   0.714  0.9843 -0.8911  2.5738
 2180TIP3   OH227954   1.016   1.756   6.100 -0.0797 -0.3523  0.4193
 2180TIP3    H127955   1.059   1.811   6.166 -0.2034 -2.7779  2.6892
 2180TIP3    H227956   1.064   1.673   6.103 -1.4698 -1.2582 -1.0188
 2181TIP3   OH227957   4.471   3.986  14.444 -0.3852 -0.0456 -0.1025
 2181TIP3    H127958   4.454   3.944  14.528 -1.7174  1.7113  0.5743
 2181TIP3    H227959   4.506   3.916  14.389 -2.0787 -1.9297  1.0735
 2182TIP3   OH227960   0.062   2.473   2.868  0.0190 -0.0116 -0.1219
 2182TIP3    H127961   0.059   2.378   2.862 -1.1644 -0.0315  0.3793
 2182TIP3    H227962  -0.000   2.504   2.801  0.3661  0.4124 -0.2587
 2183TIP3   OH227963   2.155   2.025  10.987 -0.5018  0.1689 -0.3140
 2183TIP3    H127964   2.191   1.960  10.927 -1.6779  0.8085 -1.7674
 2183TIP3    H227965   2.158   1.983  11.073 -2.5011 -2.3841 -1.3768
 2184TIP3   OH227966   4.694   2.399  14.762 -0.1653  0.2082 -0.3209
 2184TIP3    H127967   4.663   2.419  14.674  1.5971  0.9896 -0.8172
 2184TIP3    H227968   4.755   2.326  14.750  0.0836  0.3174  0.2443
 2185TIP3   OH227969   4.900   5.935  12.017  0.1451  0.0454  0.2485
 2185TIP3    H127970   4.810   5.967  12.024  0.9292  2.1358  2.3990
 2185TIP3    H227971   4.954   6.006  12.052  2.8062 -0.6103 -2.0851
 2186TIP3   OH227972   6.072   6.685   6.360 -0.3713 -0.4946  0.0050
 2186TIP3    H127973   6.102   6.625   6.428 -2.3139  0.4500  1.8021
 2186TIP3    H227974   6.031   6.757   6.408 -2.3374 -0.0559 -2.1671
 2187TIP3   OH227975   3.676   0.720   2.083 -0.5301  0.5287  0.6504
 2187TIP3    H127976   3.653   0.627   2.080 -0.4475  0.5256 -0.8498
 2187TIP3    H227977   3.622   0.761   2.015 -0.3832  1.5336  1.1115
 2188TIP3   OH227978   1.200   0.306   4.152 -0.4329  0.0030  0.1965
 2188TIP3    H127979   1.292   0.312   4.177 -0.4013 -1.8414  0.6737
 2188TIP3    H227980   1.153   0.309   4.236 -0.8963  1.8888 -0.1020
 2189TIP3   OH227981   4.374   4.766  11.970  0.4286 -0.1397 -0.5452
 2189TIP3    H127982   4.393   4.797  11.881  1.4430 -0.5659 -0.4891
 2189TIP3    H227983   4.313   4.694  11.957  2.7252 -2.1211 -1.1893
 2190TIP3   OH227984   3.663   2.541  15.308  1.0235 -0.1912 -0.1467
 2190TIP3    H127985   3.743   2.492  15.329  1.9279  1.6507  0.9923
 2190TIP3    H227986   3.662   2.546  15.213  1.1618 -1.9169 -0.2833
 2191TIP3   OH227987   1.817   0.671   1.149  0.6025 -0.2170 -0.1879
 2191TIP3    H127988   1.836   0.587   1.109  0.4791 -1.4787  2.2091
 2191TIP3    H227989   1.899   0.720   1.144  0.3673  0.0621 -2.6311
 2192TIP3   OH227990   0.521   6.580  16.485 -0.2809  0.1769  0.8412
 2192TIP3    H127991   0.616   6.585  16.470 -0.3532 -1.5302 -0.4712
 2192TIP3    H227992   0.496   6.669  16.508  1.4837  0.8883  0.2004
 2193TIP3   OH227993   6.467   4.568   0.427  0.4562  0.1665  0.1579
 2193TIP3    H127994   6.426   4.498   0.377  0.0025  1.4093 -1.2648
 2193TIP3    H227995   6.438   4.554   0.517 -0.3678 -0.9240 -0.2710
 2194TIP3   OH227996   0.349   2.229  13.665  0.5294 -0.4550  0.6084
 2194TIP3    H127997   0.341   2.137  13.639  0.2482 -0.2587 -0.0181
 2194TIP3    H227998   0.368   2.275  13.584  0.7978  0.0258  0.9436
 2195TIP3   OH227999   4.389   4.879  11.713 -1.3237 -0.4990 -0.2513
 2195TIP3    H128000   4.483   4.883  11.696 -1.5125  0.1157 -1.2656
 2195TIP3    H228001   4.357   4.810  11.655 -1.6683  0.1494 -0.8515
 2196TIP3   OH228002   4.208   0.689  17.397 -0.2943 -0.6932  0.5860
 2196TIP3    H128003   4.183   0.781  17.402  0.8697 -0.3962  1.2619
 2196TIP3    H228004   4.243   0.668  17.484 -0.2221 -1.6763  0.3338
 2197TIP3   OH228005   2.516   6.656  16.433  0.6646  0.6118  0.2752
 2197TIP3    H128006   2.525   6.709  16.512 -1.6515  0.9360  0.3867
 2197TIP3    H228007   2.507   6.720  16.362  1.8197  0.3277 -0.1343
 2198TIP3   OH228008   2.694   2.356  14.909 -0.3733 -0.6044 -0.0314
 2198TIP3    H128009   2.661   2.403  14.986 -0.1456 -1.1637  0.4191
 2198TIP3    H228010   2.666   2.408  14.834  1.9508  1.6177  0.5055
 2199TIP3   OH228011   2.117   5.740   1.496  0.3160  0.2009 -0.0515
 2199TIP3    H128012   2.076   5.675   1.553 -1.7435  0.2705 -1.3172
 2199TIP3    H228013   2.095   5.824   1.536 -0.2619  0.2147 -0.3829
 2200TIP3   OH228014   0.237   6.544  13.122 -0.0470 -0.3197  0.5317
 2200TIP3    H128015   0.330   6.522  13.116  0.5686  1.9761  0.7662
 2200TIP3    H228016   0.233   6.617  13.183 -1.6130  1.6116 -1.6779
 2201TIP3   OH228017   5.350   4.821  17.046  0.4145 -0.3325 -0.0869
 2201TIP3    H128018   5.316   4.891  17.103  0.0686 -0.0006 -0.6896
 2201TIP3    H228019   5.430   4.857  17.008  0.2241 -0.2568 -0.4155
 2202TIP3   OH228020   5.482   3.284  13.041  0.3435  0.2702 -0.0517
 2202TIP3    H128021   5.569   3.320  13.058 -0.1671  1.7054 -0.2947
 2202TIP3    H228022   5.423   3.337  13.095 -0.2901 -1.4825  1.0665
 2203TIP3   OH228023   5.845   5.893  16.234  0.6743 -0.3071 -0.0605
 2203TIP3    H128024   5.752   5.900  16.210  0.9972 -0.8974 -1.5934
 2203TIP3    H228025   5.850   5.932  16.321 -1.0565 -0.4810  0.1561
 2204TIP3   OH228026   5.081   0.745  16.319  0.0011  0.2875  0.2923
 2204TIP3    H128027   5.060   0.652  16.317 -0.7994  0.4030  1.9877
 2204TIP3    H228028   4.996   0.789  16.322  0.3829  0.9548  2.3402
 2205TIP3   OH228029   2.820   1.232   1.696 -0.5252 -0.1758  0.9643
 2205TIP3    H128030   2.888   1.282   1.741 -0.3531  1.6085 -1.0695
 2205TIP3    H228031   2.738   1.279   1.716 -0.9542 -1.3605  2.0935
 2206TIP3   OH228032   2.898   4.146  15.249 -0.2140 -0.1069 -0.4902
 2206TIP3    H128033   2.879   4.065  15.203 -0.0228  0.8531 -2.3811
 2206TIP3    H228034   2.993   4.157  15.239 -0.1371  0.0150  0.3400
 2207TIP3   OH228035   0.499   6.212   1.345  0.0893  0.2105 -0.1861
 2207TIP3    H128036   0.574   6.218   1.287  0.2117 -0.1080 -0.0640
 2207TIP3    H228037   0.537   6.195   1.431 -0.0491  1.3070  0.1098
 2208TIP3   OH228038   1.371   4.841   4.041 -0.0409 -0.4812 -0.0926
 2208TIP3    H128039   1.398   4.830   4.132  0.6609  0.3705 -0.1776
 2208TIP3    H228040   1.284   4.882   4.046 -0.8456 -2.1715  0.1832
 2209TIP3   OH228041   2.697   3.090  12.963 -0.4704  0.2196  0.4497
 2209TIP3    H128042   2.688   3.012  12.908 -0.3509  0.3610  0.2334
 2209TIP3    H228043   2.658   3.161  12.912  0.7048  0.5882  0.0372
 2210TIP3   OH228044   2.236   0.464  15.323  0.2250 -0.0655  0.2204
 2210TIP3    H128045   2.291   0.389  15.347  0.5214 -0.6483 -2.0389
 2210TIP3    H228046   2.299   0.530  15.293 -0.1636 -0.0110 -0.5062
 2211TIP3   OH228047   4.699   1.859  12.803  0.1644 -0.6302  0.5635
 2211TIP3    H128048   4.755   1.872  12.726  0.6673  0.1302  1.0439
 2211TIP3    H228049   4.750   1.800  12.859  0.2694 -0.3450  0.7734
 2212TIP3   OH228050   1.503   0.125  16.828 -0.1782 -1.2849  0.5246
 2212TIP3    H128051   1.471   0.056  16.886  2.3233 -0.4417  3.1339
 2212TIP3    H228052   1.590   0.145  16.861  0.0948  1.5501 -1.5923
 2213TIP3   OH228053   0.896   4.495   6.015  0.5466 -0.5540 -0.5144
 2213TIP3    H128054   0.913   4.577   5.971  0.3843  0.8305  1.8351
 2213TIP3    H228055   0.975   4.478   6.067 -0.5553 -0.2165  1.3706
 2214TIP3   OH228056   3.337   1.535  15.632  0.2642 -0.4027 -0.0825
 2214TIP3    H128057   3.404   1.603  15.631  0.7017 -0.8217 -1.1383
 2214TIP3    H228058   3.314   1.525  15.724  0.0599  1.2886  0.0797
 2215TIP3   OH228059   3.856   2.337   0.735  0.0964 -0.0954  0.0161
 2215TIP3    H128060   3.932   2.395   0.748  0.2340 -0.3591  0.4064
 2215TIP3    H228061   3.809   2.376   0.661  0.2399  0.4661  0.2095
 2216TIP3   OH228062   2.741   6.741  14.512  0.1613  0.3683  0.1231
 2216TIP3    H128063   2.836   6.732  14.519  0.2325  1.5414  1.0515
 2216TIP3    H228064   2.720   6.818  14.565 -1.2762  0.3248 -0.3268
 2217TIP3   OH228065   3.582   5.528  15.144 -0.5075  0.1213 -0.4594
 2217TIP3    H128066   3.607   5.542  15.236 -0.7088 -1.1674 -0.1996
 2217TIP3    H228067   3.629   5.597  15.097 -2.9346  2.9616  0.9147
 2218TIP3   OH228068   5.777   6.235  15.978  0.4356  0.1490  0.0265
 2218TIP3    H128069   5.866   6.269  15.966  0.3582  0.1229 -0.6119
 2218TIP3    H228070   5.746   6.216  15.890 -0.5095  0.9410  0.1781
 2219TIP3   OH228071   0.776   4.118   1.159 -0.1352 -0.2041  0.0757
 2219TIP3    H128072   0.724   4.052   1.113 -2.6112  0.7919  1.2783
 2219TIP3    H228073   0.784   4.085   1.248  1.7666 -0.5227 -0.1514
 2220TIP3   OH228074   3.685   3.711  12.241 -0.4022 -0.7434  0.0943
 2220TIP3    H128075   3.752   3.769  12.206  2.5033 -2.0095  3.0634
 2220TIP3    H228076   3.633   3.767  12.299 -0.1216 -0.3365 -0.0418
 2221TIP3   OH228077   0.346   4.483  12.846  0.2001  0.2432  0.2896
 2221TIP3    H128078   0.320   4.564  12.890 -2.2935  0.0505 -0.6982
 2221TIP3    H228079   0.383   4.512  12.763 -2.7136  0.3824 -1.0412
 2222TIP3   OH228080   1.923   6.146  15.333  0.5573 -0.3402 -0.4966
 2222TIP3    H128081   1.959   6.098  15.258  0.5487 -0.4166 -0.4524
 2222TIP3    H228082   1.862   6.084  15.373  0.3650 -0.2045 -0.5795
 2223TIP3   OH228083   0.557   3.168  17.128  0.3970  0.6133  0.0670
 2223TIP3    H128084   0.501   3.211  17.063  1.1648  1.0995 -0.2778
 2223TIP3    H228085   0.544   3.075  17.112 -1.5132  0.6562  1.0140
 2224TIP3   OH228086   6.685   0.618   1.739 -0.0118  0.2634  0.5951
 2224TIP3    H128087   6.779   0.624   1.757  0.4117 -2.5080 -0.1184
 2224TIP3    H228088   6.643   0.647   1.820  1.5416 -0.4819  1.7327
 2225TIP3   OH228089   0.768   5.666  11.159 -0.2304  0.5762 -0.1044
 2225TIP3    H128090   0.834   5.597  11.170 -0.4216  0.4603  0.3300
 2225TIP3    H228091   0.719   5.640  11.081 -0.4533  0.0947  0.1941
 2226TIP3   OH228092   0.270   3.046   1.021 -0.0378 -0.9451 -0.7386
 2226TIP3    H128093   0.180   3.080   1.022  0.5068  0.5610 -1.1801
 2226TIP3    H228094   0.261   2.959   0.983 -1.1058 -0.1583 -2.3908
 2227TIP3   OH228095   0.679   3.530   0.193  0.2629 -0.1650 -0.0681
 2227TIP3    H128096   0.624   3.609   0.190  0.2410 -0.2013 -1.5951
 2227TIP3    H228097   0.736   3.539   0.116  3.4931  0.6240  2.2300
 2228TIP3   OH228098   2.698   1.522  11.459 -0.3885  0.4359  0.2523
 2228TIP3    H128099   2.784   1.510  11.418 -1.2302 -0.3630 -1.4107
 2228TIP3    H228100   2.648   1.445  11.431 -1.8943  1.2843  0.5008
 2229TIP3   OH228101   1.573   5.934  13.819  0.4003 -0.1147 -0.2286
 2229TIP3    H128102   1.564   5.965  13.909  0.2617 -2.8242  0.7703
 2229TIP3    H228103   1.490   5.957  13.777  0.4174  1.0549  0.3381
 2230TIP3   OH228104   4.585   2.657  15.411 -0.6005 -0.0342 -0.4943
 2230TIP3    H128105   4.648   2.720  15.374 -0.4655  0.2129  0.1269
 2230TIP3    H228106   4.611   2.651  15.503 -1.2610 -0.2168 -0.3199
 2231TIP3   OH228107   4.936   2.706   6.642  0.1656 -0.2797 -0.0609
 2231TIP3    H128108   4.924   2.643   6.713  0.9095 -1.2313 -0.7497
 2231TIP3    H228109   4.870   2.682   6.577  0.9514 -0.8588 -0.6620
 2232TIP3   OH228110   0.580   1.750   2.240  0.1212 -0.2160  0.1823
 2232TIP3    H128111   0.655   1.786   2.287  2.2377 -3.2007 -0.6433
 2232TIP3    H228112   0.578   1.799   2.157  1.8854 -0.7893 -0.2404
 2233TIP3   OH228113   2.591   1.461   4.211 -0.4572  0.4413 -0.1254
 2233TIP3    H128114   2.545   1.542   4.233 -1.2530 -0.4120  1.4408
 2233TIP3    H228115   2.666   1.459   4.270 -0.5175 -0.0353 -0.0632
 2234TIP3   OH228116   5.629   6.002   5.754  0.1253  0.1558  0.0534
 2234TIP3    H128117   5.634   5.906   5.752 -0.5997  0.0830  1.1484
 2234TIP3    H228118   5.606   6.026   5.664 -0.0990 -0.7163 -0.1348
 2235TIP3   OH228119   1.531   2.560   5.712  0.1667  0.2063 -0.2641
 2235TIP3    H128120   1.566   2.496   5.774  0.1070  0.6975  0.2847
 2235TIP3    H228121   1.581   2.639   5.728 -2.2641  1.4742  1.7704
 2236TIP3   OH228122   3.735   3.232  11.654  0.0765  0.0378  0.7009
 2236TIP3    H128123   3.775   3.147  11.638  1.6610  0.8845 -0.1484
 2236TIP3    H228124   3.802   3.282  11.700 -1.1498  0.5712  1.9855
 2237TIP3   OH228125   0.527   1.552  13.987  0.5516 -0.0649 -0.3802
 2237TIP3    H128126   0.479   1.506  14.056  0.7121  0.9243  0.4290
 2237TIP3    H228127   0.609   1.503  13.978  0.0789 -0.8212 -0.6302
 2238TIP3   OH228128   0.025   5.571  14.011  0.1408 -0.3042  0.0428
 2238TIP3    H128129   0.014   5.529  13.925 -2.5626  0.9461 -0.3335
 2238TIP3    H228130   0.096   5.634  13.998 -0.1185 -0.2463 -1.2328
 2239TIP3   OH228131   5.509   6.345  12.817 -0.1556  0.1714  0.5976
 2239TIP3    H128132   5.528   6.299  12.898 -0.7339 -0.5387  0.3413
 2239TIP3    H228133   5.536   6.436  12.834 -0.7771  0.1546  1.7701
 2240TIP3   OH228134   3.799   5.034  13.236  0.2638 -0.5577 -0.1345
 2240TIP3    H128135   3.806   5.059  13.328  1.7158  0.5376 -0.5006
 2240TIP3    H228136   3.862   4.962  13.226  0.2333 -0.5615 -0.3135
 2241TIP3   OH228137   5.815   5.141   5.009  0.3808  0.1073  0.0563
 2241TIP3    H128138   5.887   5.203   5.020 -0.1159  0.6542  0.2754
 2241TIP3    H228139   5.737   5.191   5.032 -0.0443 -0.5524  0.0628
 2242TIP3   OH228140   6.367   6.540  13.283 -0.0052 -0.2508 -0.7434
 2242TIP3    H128141   6.272   6.528  13.275  0.1080 -0.6638 -1.6315
 2242TIP3    H228142   6.400   6.453  13.305  0.2096 -0.2219 -0.9393
 2243TIP3   OH228143   5.656   5.945   1.627  0.2727  0.2659  0.0273
 2243TIP3    H128144   5.697   5.861   1.607 -0.4860 -0.5905  1.7967
 2243TIP3    H228145   5.729   6.003   1.647  0.7823 -0.0883 -0.7392
 2244TIP3   OH228146   2.210   5.532   1.127  0.2393  0.0481  0.0840
 2244TIP3    H128147   2.239   5.456   1.077  0.4179  0.7625 -0.9256
 2244TIP3    H228148   2.183   5.596   1.061  1.0995  1.2612  0.8591
 2245TIP3   OH228149   4.194   5.409  14.746  0.7312 -0.3058 -0.0618
 2245TIP3    H128150   4.280   5.435  14.713  0.6729  2.2914  1.5637
 2245TIP3    H228151   4.212   5.376  14.835  0.0818  0.2609  0.2924
 2246TIP3   OH228152   3.274   6.182   4.779 -0.0414  0.7692  0.3080
 2246TIP3    H128153   3.272   6.252   4.714 -0.2895  2.8342  2.4059
 2246TIP3    H228154   3.367   6.163   4.792  0.0038  0.1896 -0.7493
 2247TIP3   OH228155   0.523   3.161   4.339  0.0876  0.2112  0.3453
 2247TIP3    H128156   0.438   3.116   4.344 -0.7223  1.5863 -0.4744
 2247TIP3    H228157   0.523   3.202   4.253  1.7842 -0.0830  0.1768
 2248TIP3   OH228158   3.089   5.141   2.779 -0.3963 -0.5330 -0.4121
 2248TIP3    H128159   3.130   5.055   2.768  0.0611 -0.2838 -0.6831
 2248TIP3    H228160   3.138   5.182   2.850 -0.3683 -0.3529 -0.5342
 2249TIP3   OH228161   6.673   5.527  15.126 -0.3882 -0.4970 -0.4249
 2249TIP3    H128162   6.665   5.488  15.213 -2.2173  1.6364  0.4892
 2249TIP3    H228163   6.582   5.536  15.096  0.0787  0.8080 -1.5588
 2250TIP3   OH228164   0.133   3.996   2.240 -0.6320  0.6779  0.3391
 2250TIP3    H128165   0.132   3.936   2.315  0.7957  0.2571  0.0535
 2250TIP3    H228166   0.203   4.058   2.260  1.2516 -0.7004 -1.5491
 2251TIP3   OH228167   2.222   4.060   4.702  0.1554 -0.0790  0.2637
 2251TIP3    H128168   2.302   4.104   4.732  1.3745 -1.9008 -0.1560
 2251TIP3    H228169   2.158   4.078   4.771  0.3177  2.8841 -0.2081
 2252TIP3   OH228170   5.052   4.854   4.910  0.0916 -0.1498  0.2496
 2252TIP3    H128171   5.091   4.767   4.922  2.6369  0.8917  0.2822
 2252TIP3    H228172   5.110   4.912   4.959  1.1100  2.1250 -3.3020
 2253TIP3   OH228173   5.264   4.578  16.366  0.7820 -0.3138  0.0592
 2253TIP3    H128174   5.266   4.554  16.459  3.6126 -1.1041 -0.1152
 2253TIP3    H228175   5.221   4.504  16.323 -0.4788  0.0230  0.6908
 2254TIP3   OH228176   2.567   3.731   4.268 -0.3261 -0.7196  0.0921
 2254TIP3    H128177   2.613   3.722   4.352  1.4622 -1.2022 -0.8875
 2254TIP3    H228178   2.552   3.825   4.260 -2.3381 -0.8350  1.8387
 2255TIP3   OH228179   5.741   0.708   5.491  0.3812 -0.0292  0.3224
 2255TIP3    H128180   5.678   0.639   5.471 -1.7311  2.1328 -1.0111
 2255TIP3    H228181   5.778   0.733   5.407 -0.1243  1.5435  0.5321
 2256TIP3   OH228182   4.238   3.725  12.746  0.1746 -0.0482  0.2549
 2256TIP3    H128183   4.327   3.751  12.768  0.2934 -0.5151  0.3340
 2256TIP3    H228184   4.249   3.648  12.691 -0.2082 -2.2065  2.9574
 2257TIP3   OH228185   3.336   2.025  16.433  0.3572  0.1649  0.0783
 2257TIP3    H128186   3.421   2.043  16.472  0.2484  1.8174 -0.3838
 2257TIP3    H228187   3.355   1.967  16.359  1.4117  2.2171 -1.3575
 2258TIP3   OH228188   3.555   0.202   4.598  0.2235  0.0033 -0.2766
 2258TIP3    H128189   3.494   0.243   4.659 -0.0190  0.8780 -1.0969
 2258TIP3    H228190   3.601   0.275   4.556  1.1319 -0.6120 -0.4002
 2259TIP3   OH228191   3.119   6.643  13.197  0.0428 -0.0720 -0.5583
 2259TIP3    H128192   3.195   6.701  13.208  0.5782 -0.5581 -1.5506
 2259TIP3    H228193   3.155   6.565  13.156 -0.3969 -1.7206  1.9567
 2260TIP3   OH228194   2.405   6.710  16.095 -0.0661  0.3720  0.5316
 2260TIP3    H128195   2.493   6.693  16.128  0.3442  0.4477 -0.4732
 2260TIP3    H228196   2.419   6.749  16.009 -1.0336  2.8384  1.4140
 2261TIP3   OH228197   1.672   2.659  13.904  0.3689 -0.5998  0.3410
 2261TIP3    H128198   1.616   2.584  13.925  0.1882 -0.2389  1.1972
 2261TIP3    H228199   1.741   2.623  13.849  0.1568 -1.3563  0.5603
 2262TIP3   OH228200   5.512   1.142  12.450  0.5113 -0.2938 -0.0673
 2262TIP3    H128201   5.433   1.162  12.400  1.0342 -0.8280 -1.1508
 2262TIP3    H228202   5.559   1.225  12.454  0.4410 -0.2326 -0.4425
 2263TIP3   OH228203   5.904   2.458   0.152 -0.6808  0.1426 -0.1264
 2263TIP3    H128204   5.969   2.523   0.123 -1.1752  1.4682  1.5553
 2263TIP3    H228205   5.906   2.390   0.084 -0.6381  2.2428 -2.3661
 2264TIP3   OH228206   4.408   4.561  13.947  0.1073  0.2449 -0.7349
 2264TIP3    H128207   4.378   4.478  13.984  0.6633  0.3925  0.0663
 2264TIP3    H228208   4.392   4.553  13.853 -0.5007 -0.4868 -0.5750
 2265TIP3   OH228209   6.497   0.068  15.437  0.0800 -0.2581 -0.3211
 2265TIP3    H128210   6.556   0.010  15.389 -0.0481 -0.1243 -0.6454
 2265TIP3    H228211   6.539   0.080  15.522  0.3635 -0.4119 -0.4373
 2266TIP3   OH228212   6.320   1.228  13.627 -0.3415  0.5856  0.2136
 2266TIP3    H128213   6.304   1.157  13.564  1.1245 -0.2521  0.7439
 2266TIP3    H228214   6.233   1.251  13.659 -0.7959 -2.0933  1.2114
 2267TIP3   OH228215   1.222   6.662  11.119  0.2828 -0.2838 -0.0480
 2267TIP3    H128216   1.201   6.663  11.025 -2.5874 -0.4830  0.4830
 2267TIP3    H228217   1.224   6.754  11.144 -1.3307 -0.2401  0.0668
 2268TIP3   OH228218   1.611   0.726   2.358 -0.8437 -0.2065  0.0736
 2268TIP3    H128219   1.597   0.670   2.435  3.2636  0.7698  1.8272
 2268TIP3    H228220   1.587   0.814   2.387 -0.9298 -0.0953 -0.3321
 2269TIP3   OH228221   3.439   3.830   3.640  0.1941 -0.3670 -0.4021
 2269TIP3    H128222   3.526   3.870   3.637  0.1039 -0.2231 -1.4464
 2269TIP3    H228223   3.451   3.741   3.607 -0.0646 -0.3263 -0.6122
 2270TIP3   OH228224   4.537   3.987  13.051  0.6920  0.3815  0.4686
 2270TIP3    H128225   4.589   4.068  13.049  0.1617  0.7465  1.1914
 2270TIP3    H228226   4.553   3.951  13.139 -0.8106  0.8637  0.9692
 2271TIP3   OH228227   5.633   3.415   0.915 -0.1636  0.0855 -0.5317
 2271TIP3    H128228   5.618   3.357   0.841 -0.1624 -0.9000  0.2287
 2271TIP3    H228229   5.609   3.364   0.992  1.7134  0.3778  0.3100
 2272TIP3   OH228230   5.969   0.565   5.122  0.4157  0.3483  0.3583
 2272TIP3    H128231   5.931   0.630   5.063  2.0590 -1.0170 -2.4123
 2272TIP3    H228232   5.893   0.519   5.158 -0.7525 -0.1417 -2.4114
 2273TIP3   OH228233   6.036   2.796   6.191  0.6010  0.3271 -0.1790
 2273TIP3    H128234   6.043   2.728   6.125  1.0195  0.4798 -0.2958
 2273TIP3    H228235   6.008   2.750   6.270 -1.4548  0.3716 -0.8344
 2274TIP3   OH228236   2.501   3.920   0.542  0.1334  0.1176  0.8849
 2274TIP3    H128237   2.417   3.876   0.547 -0.1781  0.5974 -0.0209
 2274TIP3    H228238   2.562   3.860   0.585 -0.4179 -0.8597  0.3277
 2275TIP3   OH228239   1.433   3.080   0.830  0.1184 -0.0797 -0.1386
 2275TIP3    H128240   1.374   3.154   0.846 -0.0488 -0.0863 -0.6836
 2275TIP3    H228241   1.519   3.120   0.815 -0.2399  0.1269 -1.8302
 2276TIP3   OH228242   6.021   2.432   2.147 -0.0036 -0.0914  0.4100
 2276TIP3    H128243   6.002   2.422   2.053 -0.3490  0.2881  0.4361
 2276TIP3    H228244   6.010   2.526   2.163  2.2426  0.2409  0.3576
 2277TIP3   OH228245   2.920   0.870  11.936  0.1813 -0.3067 -0.3900
 2277TIP3    H128246   2.909   0.962  11.912  0.9841 -0.0035  0.3660
 2277TIP3    H228247   2.849   0.853  11.997  0.1258 -0.1496 -0.4100
 2278TIP3   OH228248   0.404   0.351   1.594  0.3750 -0.0431 -0.0704
 2278TIP3    H128249   0.496   0.376   1.592  0.1564  0.9190  0.9024
 2278TIP3    H228250   0.389   0.306   1.510  1.6901 -0.1312 -0.2756
 2279TIP3   OH228251   4.266   0.390  12.980  0.5281 -0.2133  0.0523
 2279TIP3    H128252   4.211   0.469  12.975  0.7235 -0.0770  0.0233
 2279TIP3    H228253   4.208   0.323  13.015  0.2629 -0.1432 -0.2438
 2280TIP3   OH228254   5.547   5.581  14.242  0.1078 -0.9070 -0.3620
 2280TIP3    H128255   5.574   5.659  14.195  1.0246 -0.2955  1.1058
 2280TIP3    H228256   5.462   5.605  14.281  0.3211 -0.6797 -0.0295
 2281TIP3   OH228257   0.875   4.979  16.588  0.2078 -0.5079 -0.1262
 2281TIP3    H128258   0.887   4.993  16.682  0.9225 -0.3940 -0.2217
 2281TIP3    H228259   0.962   4.953  16.557  0.2075  0.3462 -0.9029
 2282TIP3   OH228260   5.522   2.452  14.953 -0.3822 -0.0633 -0.1527
 2282TIP3    H128261   5.527   2.382  15.018  0.6710  0.6964  0.6114
 2282TIP3    H228262   5.538   2.409  14.869  0.5778 -0.6888  0.3407
 2283TIP3   OH228263   0.138   1.299   2.865 -0.3914  0.1139 -0.3163
 2283TIP3    H128264   0.196   1.373   2.886  1.9132 -0.5585 -3.4582
 2283TIP3    H228265   0.112   1.264   2.950 -0.5958  3.7279  1.3019
 2284TIP3   OH228266   5.037   1.112  14.167  0.0926 -0.0792 -0.0434
 2284TIP3    H128267   5.087   1.163  14.104  1.0126 -1.9201 -0.8504
 2284TIP3    H228268   4.995   1.043  14.116 -1.5079  0.0785  0.9530
 2285TIP3   OH228269   2.757   0.123  13.984  0.0292  0.1940  0.1185
 2285TIP3    H128270   2.759   0.211  13.945  0.4024 -0.2502 -0.9046
 2285TIP3    H228271   2.830   0.077  13.942 -1.2712 -1.1707 -0.7371
 2286TIP3   OH228272   6.706   6.710  13.837 -0.1640 -0.2617  0.2440
 2286TIP3    H128273   6.672   6.718  13.926 -1.4381 -0.4939 -0.2091
 2286TIP3    H228274   6.679   6.623  13.809 -1.1905  0.4196 -0.9451
 2287TIP3   OH228275   0.100   3.682   4.134 -0.2374  0.1253 -0.2797
 2287TIP3    H128276   0.006   3.700   4.141 -0.6848 -2.3091  1.3625
 2287TIP3    H228277   0.130   3.679   4.225  0.9600 -1.1241 -0.6763
 2288TIP3   OH228278   3.811   5.674  14.964  0.5008 -0.1244 -0.0726
 2288TIP3    H128279   3.725   5.653  14.926  0.8327 -0.2674 -0.7572
 2288TIP3    H228280   3.874   5.651  14.895  1.0748  0.2006  0.3370
 2289TIP3   OH228281   6.555   1.167  15.407 -0.3860  0.0704 -0.2149
 2289TIP3    H128282   6.477   1.222  15.412  0.7100  1.6589  0.1303
 2289TIP3    H228283   6.588   1.163  15.496 -0.2633 -0.9137 -0.2922
 2290TIP3   OH228284   1.068   2.408  13.012 -0.8671  0.5195  0.0732
 2290TIP3    H128285   0.977   2.380  13.002 -0.1567 -1.8588 -0.3715
 2290TIP3    H228286   1.118   2.352  12.953  0.9309  1.6971  0.3670
 2291TIP3   OH228287   0.957   0.586   3.086 -0.1690 -0.1486  0.0308
 2291TIP3    H128288   0.953   0.574   3.181 -0.6204  1.1653  0.1992
 2291TIP3    H228289   1.050   0.603   3.068  0.0279 -1.0687  0.1326
 2292TIP3   OH228290   2.025   5.333  14.106  0.2706  0.0342 -0.9743
 2292TIP3    H128291   1.976   5.353  14.186  0.9140  2.0728 -1.0256
 2292TIP3    H228292   2.094   5.400  14.104  0.6858 -0.4093 -2.8832
 2293TIP3   OH228293   0.012   3.445   4.827  0.1850 -0.4398 -0.1573
 2293TIP3    H128294  -0.045   3.394   4.885 -0.5435  0.0841 -0.4004
 2293TIP3    H228295   0.006   3.400   4.743  0.6782 -0.7841 -0.0112
 2294TIP3   OH228296   1.120   3.800   5.260  0.3471 -0.3591 -0.7389
 2294TIP3    H128297   1.157   3.743   5.327  0.4250  0.3417 -0.1696
 2294TIP3    H228298   1.192   3.858   5.235 -0.3490  1.1121  0.4830
 2295TIP3   OH228299   3.233   0.875  10.528 -0.0258 -0.0831  0.6161
 2295TIP3    H128300   3.166   0.863  10.461  2.8854 -0.4384 -2.4982
 2295TIP3    H228301   3.254   0.787  10.557  0.2698 -0.1208  0.2959
 2296TIP3   OH228302   3.143   0.814  16.414 -0.0910 -0.3000  0.8711
 2296TIP3    H128303   3.084   0.805  16.489  0.4771  0.1337  1.3830
 2296TIP3    H228304   3.088   0.798  16.337 -0.8611  0.0529  1.3430
 2297TIP3   OH228305   6.404   0.689   0.853  0.2513 -0.1533  0.0811
 2297TIP3    H128306   6.331   0.700   0.792  0.8958 -0.3972 -0.7600
 2297TIP3    H228307   6.363   0.659   0.934 -0.4183 -2.6118 -1.0593
 2298TIP3   OH228308   5.433   0.358  15.561  0.4552 -0.3815  0.1374
 2298TIP3    H128309   5.499   0.304  15.518 -0.2717 -1.6741  0.5868
 2298TIP3    H228310   5.359   0.299  15.575 -1.2698  1.3187 -1.3697
 2299TIP3   OH228311   3.233   2.525  16.236  0.1042 -0.2986 -0.2872
 2299TIP3    H128312   3.216   2.579  16.313  0.3579 -0.7078  0.0594
 2299TIP3    H228313   3.234   2.435  16.269 -1.2049 -0.6102 -1.0094
 2300TIP3   OH228314   2.617   3.341  13.180  0.2135 -0.1432  0.8994
 2300TIP3    H128315   2.552   3.369  13.244 -0.5202  0.2269  0.0035
 2300TIP3    H228316   2.593   3.251  13.159 -0.1013  0.0360  0.4720
 2301TIP3   OH228317   6.645   3.385   6.360 -0.0328 -0.1702  0.2253
 2301TIP3    H128318   6.611   3.473   6.373 -1.7169 -1.0768  2.7449
 2301TIP3    H228319   6.576   3.339   6.312  1.1622 -0.0032 -1.7799
 2302TIP3   OH228320   5.658   4.443  11.555  0.2076  0.2529  0.0285
 2302TIP3    H128321   5.709   4.384  11.610 -0.0686  0.6217  0.6933
 2302TIP3    H228322   5.640   4.519  11.611  0.0560  0.7100 -0.6212
 2303TIP3   OH228323   1.438   4.987  17.157  0.3715  0.6691 -0.0328
 2303TIP3    H128324   1.400   4.900  17.143 -0.9767  1.1064  0.7466
 2303TIP3    H228325   1.363   5.043  17.174  1.3942  1.4561  2.2272
 2304TIP3   OH228326   1.944   1.150   4.397  0.6130 -0.0301 -0.9882
 2304TIP3    H128327   1.913   1.228   4.351  1.3166  0.3705 -0.8025
 2304TIP3    H228328   2.022   1.123   4.347  1.1279  0.1559 -0.2997
 2305TIP3   OH228329   1.933   3.323  11.862  0.8417 -0.4079  0.2723
 2305TIP3    H128330   2.011   3.295  11.814  0.3266 -0.7008 -0.3933
 2305TIP3    H228331   1.865   3.261  11.837 -0.1132  0.9399 -0.5958
 2306TIP3   OH228332   2.981   1.484  14.390  0.1136  0.4737  0.5201
 2306TIP3    H128333   3.016   1.424  14.456 -1.8922 -1.1011  0.2396
 2306TIP3    H228334   3.041   1.476  14.316 -0.7893 -2.2564 -0.0068
 2307TIP3   OH228335   6.245   2.087  12.988 -0.0525 -0.1649 -0.3544
 2307TIP3    H128336   6.254   2.100  13.083 -3.6062 -0.8540  0.2151
 2307TIP3    H228337   6.300   2.010  12.970 -0.0806 -0.6491  1.3736
 2308TIP3   OH228338   3.685   1.879  16.515 -0.4176 -0.5334 -0.3857
 2308TIP3    H128339   3.656   1.965  16.545 -0.8192 -1.0147  0.6878
 2308TIP3    H228340   3.689   1.827  16.595  1.9872 -0.9140 -0.6917
 2309TIP3   OH228341   2.762   0.544   4.909 -0.0435  0.1505 -0.0410
 2309TIP3    H128342   2.677   0.518   4.873 -2.0352  1.0143  3.5205
 2309TIP3    H228343   2.789   0.469   4.963  0.7368  0.4663  0.0162
 2310TIP3   OH228344   4.362   1.454   3.382 -0.2734  0.2169  0.1695
 2310TIP3    H128345   4.326   1.403   3.310  0.3122 -0.7731  0.5498
 2310TIP3    H228346   4.449   1.479   3.352 -1.0074  2.0676 -0.5031
 2311TIP3   OH228347   4.477   1.977  13.949  0.3890 -0.2091 -0.2227
 2311TIP3    H128348   4.488   1.990  13.855 -0.4979  0.8391 -0.2083
 2311TIP3    H228349   4.430   1.894  13.956  1.4681 -0.8776 -0.6264
 2312TIP3   OH228350   2.064   0.662  12.147  0.4087  0.3094 -0.3122
 2312TIP3    H128351   2.038   0.579  12.107 -2.0335  1.1619 -0.6309
 2312TIP3    H228352   2.069   0.644  12.240  0.0866 -0.2330 -0.4011
 2313TIP3   OH228353   6.192   5.228  13.785 -0.1044  0.8802 -0.2022
 2313TIP3    H128354   6.128   5.227  13.857 -1.7978 -1.6300 -1.5780
 2313TIP3    H228355   6.175   5.147  13.737  2.1552  1.5950 -2.4237
 2314TIP3   OH228356   0.007   2.289  16.437  0.1251  0.1244 -0.4222
 2314TIP3    H128357  -0.061   2.309  16.372 -1.2333 -0.0175  0.8839
 2314TIP3    H228358   0.034   2.374  16.471 -0.3406  0.1246 -0.0423
 2315TIP3   OH228359   0.323   3.868   5.533  0.4881 -0.6377  0.1704
 2315TIP3    H128360   0.247   3.818   5.563  1.8380 -1.1332  3.1390
 2315TIP3    H228361   0.325   3.945   5.589  1.5459 -0.0649 -0.6218
 2316TIP3   OH228362   6.494   2.428   2.969 -0.5893 -0.1991 -0.1392
 2316TIP3    H128363   6.458   2.517   2.966 -1.5580 -0.5889 -0.4589
 2316TIP3    H228364   6.481   2.394   2.881 -0.0472 -0.5941 -0.0675
 2317TIP3   OH228365   5.536   4.319   2.376 -0.2413  0.2647 -0.7177
 2317TIP3    H128366   5.519   4.242   2.322  1.2637 -0.6370  0.0258
 2317TIP3    H228367   5.587   4.285   2.450 -0.2527  1.8464  0.0530
 2318TIP3   OH228368   0.757   0.515  14.741  0.0244 -0.3502 -0.1951
 2318TIP3    H128369   0.685   0.568  14.775  2.1707  2.8423 -0.1943
 2318TIP3    H228370   0.765   0.442  14.803 -1.4922  0.6690  1.2752
 2319TIP3   OH228371   3.938   6.543  16.350  0.7338  0.3023 -0.0789
 2319TIP3    H128372   3.979   6.509  16.430  0.6855 -1.8933 -0.9299
 2319TIP3    H228373   3.958   6.637  16.351  1.7738  0.1096  1.8749
 2320TIP3   OH228374   1.594   4.910   3.577  0.1221 -0.6237  0.0120
 2320TIP3    H128375   1.541   4.950   3.646  0.4170  2.4786 -1.3595
 2320TIP3    H228376   1.542   4.923   3.497  1.3656 -0.7991 -0.8480
 2321TIP3   OH228377   3.057   0.545  14.737  0.1649  0.1747  0.3074
 2321TIP3    H128378   2.972   0.585  14.756 -0.3796 -0.3311 -0.9498
 2321TIP3    H228379   3.108   0.615  14.696 -0.9403 -0.4316 -2.3063
 2322TIP3   OH228380   1.481   2.512   3.276  0.2014 -0.3569  0.1664
 2322TIP3    H128381   1.423   2.582   3.248 -0.6828 -0.7926  0.8712
 2322TIP3    H228382   1.569   2.547   3.262 -0.2071  1.2634  1.4100
 2323TIP3   OH228383   1.522   0.001  15.436 -0.1397  0.5159 -0.9034
 2323TIP3    H128384   1.543  -0.084  15.473  0.7128  1.2678  0.4454
 2323TIP3    H228385   1.472  -0.018  15.357 -1.3098 -1.1985  0.1908
 2324TIP3   OH228386   5.599   1.544  14.934 -0.2824  0.2982  0.0160
 2324TIP3    H128387   5.622   1.576  14.847  0.0878 -0.5777 -0.2158
 2324TIP3    H228388   5.581   1.623  14.984  3.5325  1.1590  0.3444
 2325TIP3   OH228389   3.540   0.854  14.532  0.2944  0.1241  0.4733
 2325TIP3    H128390   3.483   0.792  14.486  0.7162 -0.3401  0.5534
 2325TIP3    H228391   3.627   0.815  14.524  0.2772 -0.4339  2.3988
 2326TIP3   OH228392   5.345   6.368   4.210  0.1831 -0.2374  0.3535
 2326TIP3    H128393   5.431   6.328   4.227  0.0340  0.3367  2.8798
 2326TIP3    H228394   5.283   6.296   4.222  0.2314 -0.4133 -0.4148
 2327TIP3   OH228395   3.097   2.656  14.250  0.7993 -0.0291 -0.0358
 2327TIP3    H128396   3.080   2.610  14.168  4.1797  2.3174 -2.2994
 2327TIP3    H228397   3.191   2.672  14.249  0.8510  0.8967  3.9662
 2328TIP3   OH228398   2.602   3.458  15.742 -0.1207  0.5071 -0.3795
 2328TIP3    H128399   2.608   3.365  15.764  0.3215  0.8752  1.1663
 2328TIP3    H228400   2.674   3.499  15.789 -1.2142  1.8530  0.2175
 2329TIP3   OH228401   1.919   0.545   4.979 -0.0699 -0.1496  0.0720
 2329TIP3    H128402   2.006   0.524   4.946  0.2976 -1.9516  1.9512
 2329TIP3    H228403   1.933   0.567   5.072 -1.5559  0.0222  0.2780
 2330TIP3   OH228404   5.978   2.562  10.675 -0.3073  0.0790  0.0878
 2330TIP3    H128405   5.900   2.606  10.640  0.1470 -0.0217 -1.0906
 2330TIP3    H228406   6.032   2.632  10.711 -0.6318  0.2217  0.2987
 2331TIP3   OH228407   4.441   5.890   5.926  0.7520  0.0210  0.0105
 2331TIP3    H128408   4.388   5.927   5.997  0.6163  2.4456 -1.2247
 2331TIP3    H228409   4.414   5.798   5.921 -1.2921  0.4775  1.2513
 2332TIP3   OH228410   3.152   0.939  10.202 -0.6908 -0.2973 -0.0193
 2332TIP3    H128411   3.145   0.996  10.125 -1.1583 -0.3104  0.0116
 2332TIP3    H228412   3.234   0.891  10.189  0.8302  1.9019  0.9835
 2333TIP3   OH228413   0.375   3.131   2.460  0.0001 -0.1474 -0.3760
 2333TIP3    H128414   0.394   3.202   2.398  1.2642 -1.9830 -2.2308
 2333TIP3    H228415   0.382   3.051   2.407  3.7332 -2.0759  2.5095
 2334TIP3   OH228416   1.184   5.232  15.619 -0.1234  0.5626  0.2686
 2334TIP3    H128417   1.188   5.140  15.592 -4.1515  1.2798 -4.2132
 2334TIP3    H228418   1.230   5.279  15.549  0.9990  2.1317  1.9702
 2335TIP3   OH228419   5.472   4.946   3.250 -0.2156 -0.2956 -0.2314
 2335TIP3    H128420   5.566   4.961   3.264 -0.5498 -0.4160  2.7220
 2335TIP3    H228421   5.462   4.948   3.154  3.0676 -2.0188 -0.7889
 2336TIP3   OH228422   5.084   3.617   4.190  0.4127  0.5124 -0.1500
 2336TIP3    H128423   5.139   3.654   4.260 -0.1096  0.8411  0.0933
 2336TIP3    H228424   5.028   3.689   4.163  0.9991  0.5480 -1.3192
 2337TIP3   OH228425   0.506   4.607  14.023  0.0645 -0.3156 -0.0668
 2337TIP3    H128426   0.560   4.549  13.970  0.2842  0.5270 -0.7966
 2337TIP3    H228427   0.476   4.675  13.962  0.9298  1.1116  1.0292
 2338TIP3   OH228428   6.702   4.262  13.596 -0.5028  0.0129  0.0388
 2338TIP3    H128429   6.692   4.175  13.634 -1.7679  0.7437  1.4724
 2338TIP3    H228430   6.797   4.277  13.593 -0.2781 -1.4028 -0.2380
 2339TIP3   OH228431   6.212   2.291  16.043 -0.2480 -0.5199 -0.5124
 2339TIP3    H128432   6.261   2.278  16.124 -1.7487  1.8962  0.8838
 2339TIP3    H228433   6.122   2.266  16.065 -0.6403 -0.0083 -1.4877
 2340TIP3   OH228434   3.123   5.982  14.280  0.2061  0.2472  0.3531
 2340TIP3    H128435   3.183   6.054  14.257 -1.0083  1.0705 -0.3258
 2340TIP3    H228436   3.129   5.921  14.206  2.8102 -1.4914  1.8291
 2341TIP3   OH228437   0.595   0.073  17.155  0.1912 -0.2573  0.5424
 2341TIP3    H128438   0.565  -0.008  17.112  0.9907 -0.1838 -0.1922
 2341TIP3    H228439   0.632   0.125  17.083 -1.1257  1.1699  0.8352
 2342TIP3   OH228440   2.333   1.297  11.700 -0.3916 -0.3231  0.1695
 2342TIP3    H128441   2.329   1.208  11.733 -3.7700 -0.1105  0.6749
 2342TIP3    H228442   2.315   1.290  11.607 -2.3215 -0.1259  0.4870
 2343TIP3   OH228443   2.496   5.325   1.868  0.8090 -0.2965  0.1884
 2343TIP3    H128444   2.549   5.335   1.789  1.3843  0.1628  0.6269
 2343TIP3    H228445   2.468   5.233   1.866  2.3656 -0.8068  0.4009
 2344TIP3   OH228446   6.682   1.379   0.415 -0.5817 -0.0853 -0.8253
 2344TIP3    H128447   6.659   1.386   0.508  0.1703 -2.0127 -0.4428
 2344TIP3    H228448   6.598   1.370   0.370 -0.8850 -0.9732 -0.1132
 2345TIP3   OH228449   0.791   6.342   6.144  0.5280  0.4140  0.2109
 2345TIP3    H128450   0.826   6.254   6.132  0.4108 -0.2317  3.5540
 2345TIP3    H228451   0.748   6.363   6.061  1.9826 -1.9781 -1.2370
 2346TIP3   OH228452   0.011   4.411   0.136 -0.1967 -0.3451  0.5592
 2346TIP3    H128453   0.076   4.481   0.139  0.4292 -0.9278  0.9715
 2346TIP3    H228454   0.030   4.358   0.213 -0.1093 -1.4505 -0.2097
 2347TIP3   OH228455   5.833   3.215   5.637 -0.1261  0.5474 -0.0594
 2347TIP3    H128456   5.756   3.158   5.638 -0.7776  1.2843 -1.9192
 2347TIP3    H228457   5.852   3.232   5.729 -2.4048  0.5757  0.4641
 2348TIP3   OH228458   2.749   5.249  14.832 -0.7542  0.4563  0.3784
 2348TIP3    H128459   2.842   5.260  14.849 -0.3887 -2.4566  0.8417
 2348TIP3    H228460   2.714   5.210  14.913 -1.9113 -0.4365 -0.5097
 2349TIP3   OH228461   4.249   3.063  14.573  0.9241 -0.1280  0.1991
 2349TIP3    H128462   4.319   3.110  14.528 -0.6965  0.6126 -1.6641
 2349TIP3    H228463   4.250   2.975  14.535 -0.2029  0.3866 -1.0877
 2350TIP3   OH228464   5.427   5.090   1.544  0.2109 -0.2340  0.2495
 2350TIP3    H128465   5.485   5.137   1.602  3.3949 -0.8591 -2.1511
 2350TIP3    H228466   5.412   5.006   1.587 -0.3400  0.5427  1.6355
 2351TIP3   OH228467   1.042   2.530  15.561  0.0548 -0.2194 -0.3230
 2351TIP3    H128468   1.061   2.523  15.468  0.0081 -1.1459 -0.2740
 2351TIP3    H228469   1.037   2.439  15.591  1.9250  0.0524  0.9610
 2352TIP3   OH228470   5.207   6.146   2.981 -0.3121 -0.4602  0.0834
 2352TIP3    H128471   5.218   6.229   3.027 -0.9549 -1.1617  1.5766
 2352TIP3    H228472   5.267   6.086   3.024 -0.4712 -0.9967 -0.4189
 2353TIP3   OH228473   0.812   1.934   5.528 -0.4683  0.1227  0.4254
 2353TIP3    H128474   0.830   2.025   5.504 -0.7301  0.0611 -0.0011
 2353TIP3    H228475   0.787   1.939   5.621  0.0469  0.4179  0.5520
 2354TIP3   OH228476   0.214   0.784  15.754  0.3847 -0.3367  0.2848
 2354TIP3    H128477   0.168   0.745  15.829  1.2448 -2.8285 -0.3740
 2354TIP3    H228478   0.284   0.835  15.794 -0.1849 -0.2495  1.2104
 2355TIP3   OH228479   3.347   3.557   5.957 -0.1832 -0.4777  0.1867
 2355TIP3    H128480   3.312   3.470   5.941  1.1346 -1.1440  0.6924
 2355TIP3    H228481   3.426   3.541   6.009 -0.3695  1.0750  1.0073
 2356TIP3   OH228482   4.758   5.188   3.896 -0.2146 -0.0494 -0.4108
 2356TIP3    H128483   4.717   5.231   3.820 -1.3128 -0.7681 -0.2424
 2356TIP3    H228484   4.747   5.250   3.968 -1.3826 -0.3989 -0.2763
 2357TIP3   OH228485   4.570   0.028  14.029  0.0497 -0.1377  0.7636
 2357TIP3    H128486   4.545   0.047  14.119 -2.0834 -1.2293  0.4621
 2357TIP3    H228487   4.555   0.110  13.982  1.2486  0.4599  1.3744
 2358TIP3   OH228488   2.390   5.951  14.555 -0.0347  0.4628  0.4831
 2358TIP3    H128489   2.437   5.882  14.602  1.3873  2.3203  1.8900
 2358TIP3    H228490   2.458   6.009  14.522 -1.0811  0.2545 -2.4114
 2359TIP3   OH228491   2.021   1.687   5.594  0.6219  0.1586  0.0918
 2359TIP3    H128492   2.058   1.672   5.681 -0.0125  2.2015  0.7573
 2359TIP3    H228493   1.941   1.634   5.593 -0.0046  1.0506  1.2262
 2360TIP3   OH228494   5.711   3.905  10.645  0.7455 -0.4132 -0.0365
 2360TIP3    H128495   5.770   3.980  10.639  0.5899 -0.3102 -0.2855
 2360TIP3    H228496   5.638   3.926  10.587  0.1444 -0.2606  0.7497
 2361TIP3   OH228497   5.583   1.100  12.177  0.0225  0.3954 -0.1169
 2361TIP3    H128498   5.575   1.194  12.164 -0.8405  0.3284 -0.1151
 2361TIP3    H228499   5.588   1.089  12.272 -0.7094  0.3893 -0.0719
 2362TIP3   OH228500   4.865   2.821   5.789 -0.2045  0.5963  0.0974
 2362TIP3    H128501   4.885   2.894   5.847  2.1046 -0.1205  0.3136
 2362TIP3    H228502   4.906   2.746   5.830 -1.6696 -0.6634 -0.6332
 2363TIP3   OH228503   1.254   0.140   2.614 -0.3826 -0.0930 -0.2825
 2363TIP3    H128504   1.169   0.181   2.628 -0.0380  0.1042  1.5517
 2363TIP3    H228505   1.267   0.085   2.691  0.8172 -0.7155 -0.9035
 2364TIP3   OH228506   2.838   1.644   5.106  0.3854  0.1582 -0.2319
 2364TIP3    H128507   2.794   1.560   5.102  0.0716  0.1926  1.6076
 2364TIP3    H228508   2.932   1.622   5.109  0.3081 -0.1410  0.1395
 2365TIP3   OH228509   6.557   3.936   5.405  0.0954  0.0131 -0.3683
 2365TIP3    H128510   6.485   3.999   5.406 -1.1315 -1.3476  0.1087
 2365TIP3    H228511   6.629   3.983   5.363 -0.9240  1.5575 -0.4698
 2366TIP3   OH228512   5.287   5.218   3.196  0.5475  0.5972  0.2259
 2366TIP3    H128513   5.364   5.232   3.142  1.3656 -2.8440  0.2516
 2366TIP3    H228514   5.316   5.233   3.285  1.7104 -1.9736  0.3686
 2367TIP3   OH228515   6.653   1.744   4.008 -0.3156  0.4400 -0.1360
 2367TIP3    H128516   6.705   1.664   3.993  0.2932  0.5415  1.2814
 2367TIP3    H228517   6.612   1.762   3.923 -0.0754 -1.0998 -0.6111
 2368TIP3   OH228518   0.001   6.134   6.482  0.2448  0.0371  0.6864
 2368TIP3    H128519   0.084   6.154   6.524  0.9521  0.7069 -0.9565
 2368TIP3    H228520   0.024   6.082   6.406 -0.9457 -0.6448  0.7634
 2369TIP3   OH228521   1.767   1.042   3.709  0.3947  1.0959  0.6014
 2369TIP3    H128522   1.689   1.097   3.704  1.1980  2.2267 -0.0754
 2369TIP3    H228523   1.826   1.078   3.643  0.6499 -1.1149 -0.4421
 2370TIP3   OH228524   6.063   3.858   1.391 -0.3419  0.4825 -0.3974
 2370TIP3    H128525   6.051   3.764   1.381  0.0303  0.5458 -1.6764
 2370TIP3    H228526   6.037   3.894   1.306  1.8972  1.2898 -0.8147
 2371TIP3   OH228527   3.816   4.000  15.784  0.0043  0.5468  0.1914
 2371TIP3    H128528   3.836   3.938  15.714  1.6533  1.7954 -0.5180
 2371TIP3    H228529   3.728   3.976  15.813 -0.8968  0.1693 -2.5463
 2372TIP3   OH228530   3.504   1.179   1.497  0.3839  0.3471 -0.4320
 2372TIP3    H128531   3.459   1.145   1.419  0.8662  1.8175 -1.3882
 2372TIP3    H228532   3.435   1.184   1.564 -0.1155 -0.5856 -0.8547
 2373TIP3   OH228533   0.022   2.159   0.397 -0.0547  0.0473  0.3136
 2373TIP3    H128534   0.104   2.120   0.369  0.1615 -0.2882  1.3664
 2373TIP3    H228535  -0.034   2.085   0.419 -0.4439  0.2841  0.1355
 2374TIP3   OH228536   2.093   1.647   1.908  0.1637  0.1439 -0.2981
 2374TIP3    H128537   2.091   1.552   1.915 -0.1271  0.2304  1.0756
 2374TIP3    H228538   2.138   1.665   1.826 -0.2306 -1.1840 -0.8238
 2375TIP3   OH228539   5.108   0.274  14.356  0.5653  0.2057 -0.2237
 2375TIP3    H128540   5.066   0.343  14.304 -1.0976  0.8060  1.7776
 2375TIP3    H228541   5.035   0.225  14.394  1.6800 -0.1685  1.5447
 2376TIP3   OH228542   5.478   0.500   1.227  0.1413 -0.5157 -0.1156
 2376TIP3    H128543   5.485   0.478   1.320 -1.0170  1.2136  0.4260
 2376TIP3    H228544   5.443   0.421   1.185  1.8667 -1.7526  0.6667
 2377TIP3   OH228545   0.995   5.591  13.112  0.1806  0.1838  0.0192
 2377TIP3    H128546   1.045   5.517  13.146  1.0212  0.4417 -0.6081
 2377TIP3    H228547   0.909   5.583  13.153  1.1886  0.6182  2.3899
 2378TIP3   OH228548   5.017   1.101  11.062  0.3243 -0.1379 -0.2257
 2378TIP3    H128549   5.039   1.077  10.972 -1.4951  1.1422 -1.0718
 2378TIP3    H228550   4.931   1.062  11.076 -0.0589  0.9080  0.4196
 2379TIP3   OH228551   5.694   2.770   0.427 -0.1468  0.3171 -0.1664
 2379TIP3    H128552   5.708   2.813   0.343 -0.1659 -1.0955 -0.9145
 2379TIP3    H228553   5.617   2.814   0.463  0.1463  1.2613 -0.6588
 2380TIP3   OH228554   0.260   0.813   1.078 -0.3408 -0.1869  0.3021
 2380TIP3    H128555   0.203   0.774   1.012  0.4740 -1.3123  0.2414
 2380TIP3    H228556   0.322   0.865   1.028  0.2348 -0.9857  0.1677
 2381TIP3   OH228557   6.140   4.694  14.587  0.0733  0.2780 -0.2306
 2381TIP3    H128558   6.125   4.754  14.514  0.7024  2.0106  0.9952
 2381TIP3    H228559   6.162   4.751  14.661 -1.8319 -1.3039  1.6770
 2382TIP3   OH228560   4.278   1.509  14.413  0.0364  0.1591 -0.0478
 2382TIP3    H128561   4.204   1.479  14.465 -0.2765 -0.6453 -0.9329
 2382TIP3    H228562   4.295   1.438  14.350  1.7472  0.1894  0.3205
 2383TIP3   OH228563   6.442   4.399  14.985  0.0864 -0.4512  0.4438
 2383TIP3    H128564   6.374   4.332  14.985 -0.8789  0.5013  1.1422
 2383TIP3    H228565   6.442   4.434  15.074  0.6065  0.4439  0.1035
 2384TIP3   OH228566   4.772   3.050  12.226 -0.0670  0.1518 -0.0269
 2384TIP3    H128567   4.763   3.131  12.175 -0.9777  2.1014  2.9824
 2384TIP3    H228568   4.690   3.003  12.210  1.2186 -1.3130 -3.3156
 2385TIP3   OH228569   4.187   4.360   3.284  0.8203  0.2834  0.3408
 2385TIP3    H128570   4.129   4.435   3.301 -0.8758 -0.0916 -2.9676
 2385TIP3    H228571   4.128   4.285   3.281  2.2326 -0.9330  1.5957
 2386TIP3   OH228572   6.571   5.319  13.706 -0.1575  0.0704 -0.0113
 2386TIP3    H128573   6.564   5.301  13.800 -2.6585  0.4488 -0.0737
 2386TIP3    H228574   6.596   5.235  13.668  1.4587  0.0423  1.0015
 2387TIP3   OH228575   2.020   3.073  16.662 -0.7263  0.3157 -0.1643
 2387TIP3    H128576   2.068   2.992  16.679 -1.2589 -0.4900 -2.1763
 2387TIP3    H228577   2.063   3.139  16.716 -0.4324 -1.3412  1.7129
 2388TIP3   OH228578   4.945   6.654  16.250 -0.3376  0.1284 -0.1458
 2388TIP3    H128579   4.904   6.736  16.278 -0.2562  0.1967 -0.2259
 2388TIP3    H228580   4.888   6.585  16.285  0.3324  0.1847  1.1249
 2389TIP3   OH228581   2.696   4.960  12.917 -0.5148  0.2104 -0.1736
 2389TIP3    H128582   2.752   5.015  12.862 -0.4820  0.1966 -0.1535
 2389TIP3    H228583   2.757   4.910  12.971 -0.5215 -0.2685 -0.5911
 2390TIP3   OH228584   0.275   1.004   5.433  0.1324  0.0421  0.1658
 2390TIP3    H128585   0.291   1.045   5.518  1.5014  2.1127 -0.9978
 2390TIP3    H228586   0.350   0.946   5.419 -0.4041 -0.7810  0.5974
 2391TIP3   OH228587   2.485   0.302  14.612 -0.1537  0.2387  0.1069
 2391TIP3    H128588   2.492   0.278  14.704 -1.7591 -0.6489  0.0167
 2391TIP3    H228589   2.505   0.221  14.564 -0.8821  0.2795 -0.2844
 2392TIP3   OH228590   3.254   4.383  16.763 -0.2092  0.1679  0.0965
 2392TIP3    H128591   3.279   4.459  16.710 -0.5571  0.0952 -0.1732
 2392TIP3    H228592   3.171   4.407  16.803  1.2716  1.2765  2.7296
 2393TIP3   OH228593   4.926   2.149   0.944  0.0632  0.0003  0.3703
 2393TIP3    H128594   4.926   2.242   0.966 -0.4547  0.1632 -0.2851
 2393TIP3    H228595   4.840   2.133   0.904 -0.6915 -1.2119  2.2917
 2394TIP3   OH228596   0.938   2.358  17.296 -0.4666 -0.8381  0.4991
 2394TIP3    H128597   1.027   2.392  17.293  0.0813 -2.2752 -1.3864
 2394TIP3    H228598   0.889   2.423  17.347  1.5204  0.2477  1.1180
 2395TIP3   OH228599   3.508   5.957   4.087 -0.0877  0.3312  0.0108
 2395TIP3    H128600   3.553   5.898   4.027 -0.9015  0.9845 -1.2936
 2395TIP3    H228601   3.574   6.022   4.111  0.6905 -0.8318  1.1207
 2396TIP3   OH228602   0.230   3.461   5.680 -0.2245 -0.0876 -0.7705
 2396TIP3    H128603   0.201   3.388   5.626  0.1642  0.5221 -1.8375
 2396TIP3    H228604   0.303   3.500   5.631 -0.4253  1.0124 -0.2329
 2397TIP3   OH228605   5.022   4.748   1.711 -0.1457  0.2389  0.1043
 2397TIP3    H128606   4.993   4.672   1.662 -1.1879  0.7505 -0.1079
 2397TIP3    H228607   4.948   4.809   1.706  0.5239  1.1114  0.5776
 2398TIP3   OH228608   5.452   4.405  14.601  0.0069 -0.2673  0.1323
 2398TIP3    H128609   5.491   4.481  14.644 -0.6948 -0.3151  0.8734
 2398TIP3    H228610   5.460   4.423  14.508 -0.4050  0.8364  0.3037
 2399TIP3   OH228611   0.209   0.589   0.238  0.2360 -0.1166 -0.0283
 2399TIP3    H128612   0.199   0.609   0.144  1.8696  1.0277 -0.0079
 2399TIP3    H228613   0.145   0.520   0.255  0.7245 -1.2325 -2.2760
 2400TIP3   OH228614   0.644   0.601  14.279  0.1838  0.3227 -0.1846
 2400TIP3    H128615   0.584   0.676  14.275  0.1078  0.2267 -1.0127
 2400TIP3    H228616   0.728   0.636  14.247  0.6867  0.5536  1.3251
 2401TIP3   OH228617   3.982   1.040  11.552 -0.1514  0.5638 -0.0877
 2401TIP3    H128618   3.981   0.951  11.517 -0.8794  0.5627 -0.0731
 2401TIP3    H228619   4.075   1.060  11.563  0.0249 -0.1146 -0.2883
 2402TIP3   OH228620   6.152   2.838  16.264  0.3125 -0.5285 -0.4416
 2402TIP3    H128621   6.194   2.824  16.349  0.1984 -1.5029 -0.5377
 2402TIP3    H228622   6.106   2.921  16.274  0.3673 -0.5889  0.4229
 2403TIP3   OH228623   2.947   5.336  14.194 -0.0398 -0.4034 -0.6427
 2403TIP3    H128624   2.990   5.396  14.134 -1.7533 -0.6924 -2.2369
 2403TIP3    H228625   2.854   5.359  14.190 -0.0874  1.4455  4.0765
 2404TIP3   OH228626   0.535   1.629   5.770 -0.6110 -0.7009 -0.3764
 2404TIP3    H128627   0.584   1.711   5.767 -0.2359 -0.9425 -1.2966
 2404TIP3    H228628   0.554   1.593   5.856  0.8134 -0.7564 -0.6875
 2405TIP3   OH228629   5.159   2.371  12.536 -0.3432 -0.0600 -0.4437
 2405TIP3    H128630   5.169   2.407  12.447  0.8205  0.7020 -0.0228
 2405TIP3    H228631   5.065   2.380  12.554 -0.0298  3.7680  0.0064
 2406TIP3   OH228632   3.175   4.916  12.749  0.5501 -0.3610  0.4175
 2406TIP3    H128633   3.263   4.888  12.721  0.1837 -0.8309 -0.2944
 2406TIP3    H228634   3.116   4.850  12.713 -0.1412  0.1998  0.4957
 2407TIP3   OH228635   3.148   1.738  15.971 -0.0463  0.9299 -0.0774
 2407TIP3    H128636   3.057   1.707  15.967 -0.0245  0.9303 -0.8509
 2407TIP3    H228637   3.192   1.677  16.030 -0.1953 -0.0307 -0.9348
 2408TIP3   OH228638   1.869   4.307   1.984  0.7200 -0.8678 -0.2454
 2408TIP3    H128639   1.884   4.313   1.890 -1.5708  3.2035 -0.5951
 2408TIP3    H228640   1.931   4.370   2.022  0.4099 -1.1717  0.7965
 2409TIP3   OH228641   4.581   5.920  16.357  0.2568 -0.1892  0.5550
 2409TIP3    H128642   4.613   5.882  16.439  0.4457 -2.0094 -0.3377
 2409TIP3    H228643   4.660   5.950  16.312  0.3657 -1.0988  0.1195
 2410TIP3   OH228644   0.387   4.010  16.112  0.5913 -0.1313 -0.2973
 2410TIP3    H128645   0.477   4.030  16.087  0.6192 -0.3398 -0.3655
 2410TIP3    H228646   0.378   3.916  16.097  0.1285  0.0255 -1.0063
 2411TIP3   OH228647   3.166   5.763  15.680  0.3006 -0.1915  0.4222
 2411TIP3    H128648   3.184   5.835  15.619  0.8277 -0.3829  0.3479
 2411TIP3    H228649   3.190   5.684  15.632  1.2714 -0.3052  1.0736
 2412TIP3   OH228650   4.641   0.307  16.731  0.5031 -0.1098 -0.0909
 2412TIP3    H128651   4.573   0.374  16.733 -0.9322 -1.4921 -0.2953
 2412TIP3    H228652   4.597   0.228  16.764  2.3705 -0.7554  0.9900
 2413TIP3   OH228653   1.624   2.940   1.175 -0.3424  0.8201  0.3801
 2413TIP3    H128654   1.542   2.919   1.129  0.3801 -0.0774 -0.5385
 2413TIP3    H228655   1.686   2.961   1.106  0.7339 -0.4478  0.9132
 2414TIP3   OH228656   4.651   0.904   4.118  0.7317  0.3095 -0.6047
 2414TIP3    H128657   4.637   0.832   4.180 -0.1164  2.5569  2.0433
 2414TIP3    H228658   4.746   0.918   4.121  0.7726  0.0104 -0.2802
 2415TIP3   OH228659   4.106   2.931  13.750 -0.2403 -0.1539 -0.1402
 2415TIP3    H128660   4.079   3.021  13.766  0.0478  0.0086 -0.5827
 2415TIP3    H228661   4.189   2.938  13.704 -0.4186 -0.6406 -0.5424
 2416TIP3   OH228662   0.654   6.557   4.683  0.3702 -0.2786 -0.0491
 2416TIP3    H128663   0.588   6.520   4.624  0.1420 -1.3899  0.8604
 2416TIP3    H228664   0.736   6.516   4.656  0.1520 -1.3365  0.8213
 2417TIP3   OH228665   0.862   0.006  11.254 -0.3972 -0.2988  0.4099
 2417TIP3    H128666   0.917   0.082  11.274  1.3393 -0.8482 -1.8525
 2417TIP3    H228667   0.873  -0.052  11.329  0.9324  0.2676  0.6838
 2418TIP3   OH228668   2.658   6.061  13.670  0.3255  0.5659 -0.4875
 2418TIP3    H128669   2.642   6.084  13.761  0.5941  0.8604 -0.5116
 2418TIP3    H228670   2.609   5.980  13.656  2.2792 -0.9133  0.6254
 2419TIP3   OH228671   1.107   0.722  13.300  0.1167 -0.2621  0.8996
 2419TIP3    H128672   1.064   0.638  13.281  0.5598 -0.2209 -0.4277
 2419TIP3    H228673   1.142   0.712  13.388 -1.7710 -0.6404  1.6463
 2420TIP3   OH228674   1.483   4.810   5.682 -0.2177  0.0473 -0.2663
 2420TIP3    H128675   1.498   4.815   5.776 -0.9648 -1.5409 -0.0267
 2420TIP3    H228676   1.388   4.803   5.673 -0.1484  0.1354 -1.1344
 2421TIP3   OH228677   5.293   0.144  13.229 -0.4952 -0.4540 -0.6016
 2421TIP3    H128678   5.353   0.103  13.167 -1.0152 -0.6686 -0.9678
 2421TIP3    H228679   5.290   0.236  13.203  0.4980 -0.2052  0.0828
 2422TIP3   OH228680   2.819   3.544  12.219 -0.0873  0.1192 -0.4862
 2422TIP3    H128681   2.790   3.516  12.132 -1.1673  0.2082 -0.1677
 2422TIP3    H228682   2.801   3.638  12.221  0.1395  0.1591 -0.2400
 2423TIP3   OH228683   3.496   5.590  11.748 -1.0234  0.1462 -0.2502
 2423TIP3    H128684   3.402   5.589  11.763 -0.8768  0.2328  0.7821
 2423TIP3    H228685   3.514   5.508  11.702 -1.2314 -1.4298  2.2781
 2424TIP3   OH228686   5.639   2.877  12.470  0.0386  0.8676  0.0443
 2424TIP3    H128687   5.575   2.885  12.399 -0.0218  0.5534  0.0616
 2424TIP3    H228688   5.639   2.964  12.511  0.1904  1.0947 -0.4324
 2425TIP3   OH228689   2.704   4.928  16.801 -0.2016  0.0002  0.0604
 2425TIP3    H128690   2.643   4.994  16.770  0.4192 -0.3783 -2.2128
 2425TIP3    H228691   2.788   4.974  16.808 -0.1090 -0.1633  0.0507
 2426TIP3   OH228692   2.084   4.912   5.580 -0.0646  0.4056 -0.0239
 2426TIP3    H128693   2.049   4.917   5.669  2.2480  1.7094  0.9192
 2426TIP3    H228694   2.179   4.910   5.592  0.3130 -2.2950 -2.4124
 2427TIP3   OH228695   5.060   0.761  11.047  0.3481 -0.1559 -0.0403
 2427TIP3    H128696   5.099   0.678  11.073 -0.8908 -0.8293 -0.2465
 2427TIP3    H228697   4.998   0.738  10.978  1.7646  1.2588 -1.9089
 2428TIP3   OH228698   3.976   1.243  16.157  0.4051 -0.0574  0.1501
 2428TIP3    H128699   4.016   1.327  16.178 -2.9143  1.5863  0.6181
 2428TIP3    H228700   3.946   1.209  16.242  1.0872 -1.3956 -0.1220
 2429TIP3   OH228701   0.519   1.538   3.322  0.0051 -0.1087  0.2734
 2429TIP3    H128702   0.561   1.527   3.407 -2.7928  3.6721  2.4978
 2429TIP3    H228703   0.431   1.502   3.334 -0.6332  0.9998 -0.7807
 2430TIP3   OH228704   3.291   4.273  11.772 -0.0581  0.2149 -0.2712
 2430TIP3    H128705   3.333   4.317  11.846 -0.2074 -1.0371  0.5931
 2430TIP3    H228706   3.271   4.343  11.710  2.2668  1.0202 -0.2204
 2431TIP3   OH228707   3.392   1.270   3.837  0.0577 -0.3769  0.3904
 2431TIP3    H128708   3.485   1.270   3.859 -0.4983  1.8230  3.2653
 2431TIP3    H228709   3.348   1.241   3.917 -1.8786  2.4775  0.5054
 2432TIP3   OH228710   4.715   3.384  13.832  0.4985  0.1200  0.7717
 2432TIP3    H128711   4.625   3.408  13.808  0.6675  1.0436  1.0103
 2432TIP3    H228712   4.760   3.376  13.748 -0.0640 -1.4894  0.5899
 2433TIP3   OH228713   3.972   3.668   2.832  0.1106  0.2672 -0.8804
 2433TIP3    H128714   3.947   3.628   2.915 -0.2878  1.2803 -0.4901
 2433TIP3    H228715   4.048   3.722   2.853  0.1487  0.3501 -1.2224
 2434TIP3   OH228716   1.455   0.305   2.472 -0.0556 -0.2360 -0.1473
 2434TIP3    H128717   1.402   0.261   2.538 -0.4380 -0.0769 -0.3417
 2434TIP3    H228718   1.402   0.301   2.392  0.7560 -1.1522 -0.6574
 2435TIP3   OH228719   1.643   4.352   2.126  0.0458  0.0779  0.9770
 2435TIP3    H128720   1.682   4.319   2.045 -0.7503 -0.6155  0.8645
 2435TIP3    H228721   1.713   4.344   2.191  1.3099  2.3216  0.0223
 2436TIP3   OH228722   4.264   6.263  14.129  0.5117 -0.4024 -0.2124
 2436TIP3    H128723   4.244   6.340  14.181 -0.1843 -1.3949  1.0349
 2436TIP3    H228724   4.350   6.235  14.159 -0.5157 -1.8490  1.5726
 2437TIP3   OH228725   6.454   2.737   5.371  0.5020  0.7341 -0.0329
 2437TIP3    H128726   6.409   2.735   5.456 -0.5614  0.5604 -0.5737
 2437TIP3    H228727   6.545   2.717   5.391 -0.0530 -1.1041  0.8816
 2438TIP3   OH228728   2.856   6.241  14.227  0.4035 -0.3884  0.0373
 2438TIP3    H128729   2.941   6.285  14.231  0.5053 -0.6623  1.6140
 2438TIP3    H228730   2.870   6.166  14.170  1.2512 -0.4914  0.3667
 2439TIP3   OH228731   1.912   1.720  15.691  0.3846  0.1936 -0.2496
 2439TIP3    H128732   1.997   1.693  15.726  0.3281  1.0372  0.5644
 2439TIP3    H228733   1.902   1.669  15.610  0.3493 -2.1112  1.1051
 2440TIP3   OH228734   3.585   6.236  13.487  0.1119 -0.5105 -0.3244
 2440TIP3    H128735   3.667   6.279  13.463 -0.0875 -0.7481 -1.5172
 2440TIP3    H228736   3.517   6.291  13.447 -0.2474 -0.8852 -0.2298
 2441TIP3   OH228737   2.006   0.393  14.950 -0.5578 -0.4599 -0.3603
 2441TIP3    H128738   2.038   0.436  15.029  1.1591 -1.7567 -0.2926
 2441TIP3    H228739   1.912   0.382  14.964 -1.1464  3.1421 -0.3684
 2442TIP3   OH228740   2.180   6.572  16.214 -0.4332 -0.2433 -0.4402
 2442TIP3    H128741   2.214   6.492  16.174 -0.4898  0.5228 -2.0875
 2442TIP3    H228742   2.244   6.639  16.192 -0.3577  0.1669  0.9743
 2443TIP3   OH228743   4.908   3.133   0.129  0.4783 -0.1281  0.3998
 2443TIP3    H128744   4.934   3.195   0.061  0.2824 -0.9869 -0.4688
 2443TIP3    H228745   4.841   3.179   0.179 -1.0335 -0.3057 -1.3854
 2444TIP3   OH228746   1.388   4.139  17.101  0.5892  0.9041  0.5448
 2444TIP3    H128747   1.336   4.061  17.083  0.7829  1.2119 -1.5667
 2444TIP3    H228748   1.338   4.186  17.168  0.5427 -1.0516  1.9539
 2445TIP3   OH228749   1.952   1.003   1.294  0.5134 -0.0724  0.0458
 2445TIP3    H128750   2.034   0.991   1.246 -0.7655 -3.2718 -1.7308
 2445TIP3    H228751   1.910   1.078   1.251  0.4968 -1.3588 -2.4003
 2446TIP3   OH228752   4.571   6.318  13.471 -0.2394 -0.1582  0.7377
 2446TIP3    H128753   4.642   6.255  13.487 -0.8906 -0.3763  3.1488
 2446TIP3    H228754   4.497   6.263  13.445  0.0587 -0.0488 -0.4100
 2447TIP3   OH228755   0.712   5.501  14.401  0.3969  0.3635  0.2769
 2447TIP3    H128756   0.685   5.516  14.492 -0.2925 -0.8660  0.3142
 2447TIP3    H228757   0.785   5.560  14.387  0.8679  0.2034  1.8126
 2448TIP3   OH228758   0.719   6.103  12.797  0.4736  0.5563 -0.1945
 2448TIP3    H128759   0.801   6.115  12.750  0.1468  0.1595 -0.8798
 2448TIP3    H228760   0.681   6.024  12.760 -0.9389  1.5549 -0.9537
 2449TIP3   OH228761   4.602   3.814   1.341 -0.0777  0.2702  0.5512
 2449TIP3    H128762   4.519   3.779   1.309 -0.9923  3.1208 -0.5013
 2449TIP3    H228763   4.665   3.792   1.273 -0.1646 -0.9912  0.8531
 2450TIP3   OH228764   5.021   6.340   0.539 -0.0037 -0.7472  0.1433
 2450TIP3    H128765   5.016   6.336   0.443 -1.9994 -0.2886  0.1774
 2450TIP3    H228766   5.065   6.423   0.557  0.9451 -1.1207 -0.3518
 2451TIP3   OH228767   4.910   6.666  12.773  0.2002  0.7009 -0.1398
 2451TIP3    H128768   4.879   6.757  12.776 -0.3076  0.5090  1.0663
 2451TIP3    H228769   5.003   6.672  12.795  0.2643  0.9666 -0.4794
 2452TIP3   OH228770   0.577   5.058   5.017 -0.4273 -0.1665  0.7153
 2452TIP3    H128771   0.520   5.069   4.941 -1.6756  0.2401  1.6748
 2452TIP3    H228772   0.518   5.063   5.092  0.7635 -0.6359  1.7170
 2453TIP3   OH228773   2.305   2.390  12.360 -0.3010 -0.6738  0.1166
 2453TIP3    H128774   2.300   2.450  12.286 -1.1831  0.1934  0.8505
 2453TIP3    H228775   2.270   2.307  12.328 -0.8646 -0.2472 -0.3759
 2454TIP3   OH228776   3.054   2.954   1.340 -0.1555  0.0185 -0.0139
 2454TIP3    H128777   3.092   2.867   1.325 -1.0609 -0.4478  0.3096
 2454TIP3    H228778   3.061   2.966   1.435 -1.1333 -0.2405  0.1030
 2455TIP3   OH228779   5.531   3.507  16.282  0.0717 -0.4896 -0.2240
 2455TIP3    H128780   5.612   3.475  16.243 -0.5510  0.2402 -2.2319
 2455TIP3    H228781   5.462   3.468  16.229 -0.8017  0.8282 -0.1051
 2456TIP3   OH228782   0.266   5.977   3.694  0.3048  0.2285  0.1085
 2456TIP3    H128783   0.309   6.003   3.612  1.5352 -0.0921  0.6277
 2456TIP3    H228784   0.253   5.883   3.686  3.0343 -0.3505  1.3762
 2457TIP3   OH228785   3.527   0.824  14.881  0.3462 -0.5566 -0.0300
 2457TIP3    H128786   3.594   0.832  14.813 -0.4244 -0.2415 -0.7724
 2457TIP3    H228787   3.457   0.884  14.853 -0.9632 -2.0743 -0.1389
 2458TIP3   OH228788   1.599   0.527  17.106 -0.2400 -1.0494 -0.3611
 2458TIP3    H128789   1.678   0.526  17.159  0.2009 -0.4825 -0.9957
 2458TIP3    H228790   1.627   0.557  17.019 -1.0014 -1.6499 -0.8366
 2459TIP3   OH228791   6.312   5.357   1.548  0.0680 -0.5960  0.1665
 2459TIP3    H128792   6.299   5.324   1.460  0.2272 -0.8354  0.2321
 2459TIP3    H228793   6.374   5.429   1.538  1.0112 -1.3848  0.2284
 2460TIP3   OH228794   1.158   3.676  16.378 -0.3113  0.6084 -0.5588
 2460TIP3    H128795   1.157   3.583  16.353  1.0087  0.6398 -0.7936
 2460TIP3    H228796   1.219   3.717  16.316  0.5213  1.2848  0.6702
 2461TIP3   OH228797   4.986   1.735  11.533  0.2378  0.6196 -0.0843
 2461TIP3    H128798   5.039   1.659  11.511  1.7394  1.6030  0.0181
 2461TIP3    H228799   4.997   1.795  11.459  0.6940  1.5555  0.7207
 2462TIP3   OH228800   6.726   1.745  12.062  0.3403 -0.5710  0.0142
 2462TIP3    H128801   6.656   1.722  12.124 -0.2069 -1.6737 -0.9785
 2462TIP3    H228802   6.772   1.818  12.104 -0.2040 -1.0877  1.5787
 2463TIP3   OH228803   2.756   3.306   3.924  0.0175  0.2563  0.0733
 2463TIP3    H128804   2.752   3.229   3.980 -0.0947  0.0440 -0.2245
 2463TIP3    H228805   2.721   3.377   3.978 -0.6069 -0.0586  0.0866
 2464TIP3   OH228806   5.317   5.839  17.165  0.5289  0.1353  0.0178
 2464TIP3    H128807   5.241   5.783  17.185 -0.1028  1.1695  0.5861
 2464TIP3    H228808   5.352   5.803  17.084  1.9459 -2.9716  1.8154
 2465TIP3   OH228809   2.752   5.509  12.057  0.5869  0.4362  0.4568
 2465TIP3    H128810   2.828   5.484  12.109 -1.8164 -4.4516  2.2761
 2465TIP3    H228811   2.741   5.437  11.995 -0.9394  2.4771 -1.8429
 2466TIP3   OH228812   5.200   1.731   1.459 -0.0812  0.2236  0.0841
 2466TIP3    H128813   5.171   1.812   1.502 -2.3046 -0.9075  0.8753
 2466TIP3    H228814   5.121   1.677   1.456  1.7153 -2.6252  1.1440
 2467TIP3   OH228815   2.223   1.670   2.618  0.2358 -0.1369  0.5313
 2467TIP3    H128816   2.237   1.656   2.712 -0.4759  3.2857  1.2896
 2467TIP3    H228817   2.278   1.746   2.598  1.5075 -1.6585 -2.2332
 2468TIP3   OH228818   3.599   4.454  13.743 -0.5978  0.2743 -0.2390
 2468TIP3    H128819   3.506   4.454  13.722 -0.4896  0.8537 -0.7478
 2468TIP3    H228820   3.608   4.516  13.815 -0.4270  1.2229 -1.0619
 2469TIP3   OH228821   2.417   6.001  11.684  0.9827 -0.4541 -0.5558
 2469TIP3    H128822   2.336   5.952  11.668  0.7368 -0.5962  0.9971
 2469TIP3    H228823   2.391   6.093  11.671  0.3141 -0.4262  0.7932
 2470TIP3   OH228824   4.453   5.739   0.079 -0.9174 -0.0763  0.3780
 2470TIP3    H128825   4.538   5.717   0.041 -0.5781  0.0409  1.0590
 2470TIP3    H228826   4.468   5.736   0.173 -1.6522  0.0257  0.4972
 2471TIP3   OH228827   1.635   6.011  14.073 -0.2897  0.2989 -0.1546
 2471TIP3    H128828   1.664   6.099  14.098 -1.4485  0.8851 -0.7952
 2471TIP3    H228829   1.671   5.955  14.142 -3.0235  1.7968  2.7737
 2472TIP3   OH228830   0.506   2.890   0.435 -0.1819  0.1101  0.1634
 2472TIP3    H128831   0.475   2.956   0.498 -2.7192 -0.5908 -0.2338
 2472TIP3    H228832   0.517   2.939   0.353 -2.0109  0.1178 -0.1184
 2473TIP3   OH228833   0.714   6.627  15.689  0.4764 -0.2280 -0.0421
 2473TIP3    H128834   0.776   6.572  15.642  0.5985 -0.6742  0.6216
 2473TIP3    H228835   0.735   6.614  15.781  0.3701  0.7839  0.1388
 2474TIP3   OH228836   5.627   0.088  11.026 -0.3971 -0.3135 -0.0072
 2474TIP3    H128837   5.631   0.117  10.935 -1.6341 -0.4492 -0.1279
 2474TIP3    H228838   5.541   0.048  11.034 -0.9881  1.1406  1.6372
 2475TIP3   OH228839   2.950   3.532  13.552  0.3403 -0.5316  0.0975
 2475TIP3    H128840   2.960   3.556  13.644 -1.0238  0.4016  0.0207
 2475TIP3    H228841   2.904   3.448  13.554  1.2797 -1.0619  0.2666
 2476TIP3   OH228842   4.204   2.661   2.598  0.1907  0.1655 -0.4897
 2476TIP3    H128843   4.191   2.689   2.507  0.7102  1.3467 -0.2091
 2476TIP3    H228844   4.141   2.712   2.648  1.9519  1.7762  0.1768
 2477TIP3   OH228845   3.089   5.502   4.837  0.1602  0.0719  0.0030
 2477TIP3    H128846   3.105   5.440   4.765 -1.4089  0.8785 -1.0875
 2477TIP3    H228847   3.109   5.588   4.800  3.2283  0.2918  1.7732
 2478TIP3   OH228848   4.469   5.230   5.278 -0.1927 -0.2739 -0.4161
 2478TIP3    H128849   4.552   5.184   5.289 -0.4737 -0.5139  0.9574
 2478TIP3    H228850   4.409   5.185   5.339 -0.8817  0.9255 -0.1848
 2479TIP3   OH228851   1.532   6.364  14.047  0.0061  0.3238 -0.8875
 2479TIP3    H128852   1.479   6.285  14.031 -1.4566  1.7064 -3.6628
 2479TIP3    H228853   1.498   6.399  14.129 -1.2075 -0.5313 -0.9921
 2480TIP3   OH228854   0.420   3.264  10.911  0.1315 -0.0678  0.6564
 2480TIP3    H128855   0.340   3.216  10.889  0.7121 -1.3831  1.2835
 2480TIP3    H228856   0.403   3.354  10.883 -1.7002 -0.2421  1.0850
 2481TIP3   OH228857   2.026   5.882  16.717  0.3269  0.7266  0.0896
 2481TIP3    H128858   2.058   5.972  16.711 -0.4919  0.9267 -1.5654
 2481TIP3    H228859   1.968   5.883  16.794  1.8820  1.0750  1.3223
 2482TIP3   OH228860   4.068   1.662  13.238  0.5216  0.1646 -0.0947
 2482TIP3    H128861   3.996   1.639  13.180  0.3490 -0.8119  0.4803
 2482TIP3    H228862   4.101   1.745  13.204  0.1312 -0.1544 -1.2991
 2483TIP3   OH228863   5.221   2.990  13.363 -0.7804 -0.5127  0.3108
 2483TIP3    H128864   5.249   3.003  13.272 -1.4481  1.6580  0.3709
 2483TIP3    H228865   5.273   2.915  13.393  0.0180 -0.7923 -1.6054
 2484TIP3   OH228866   5.879   4.901   1.430  0.2434 -0.0962 -0.6733
 2484TIP3    H128867   5.929   4.978   1.403 -0.1294  1.3070  2.2694
 2484TIP3    H228868   5.800   4.937   1.471 -0.4354 -2.0740 -0.1190
 2485TIP3   OH228869   4.513   0.158  12.699 -0.5024 -0.0822  0.8832
 2485TIP3    H128870   4.517   0.067  12.668 -2.3764 -0.7823  2.5076
 2485TIP3    H228871   4.477   0.152  12.787  2.9954  1.9581  2.6550
 2486TIP3   OH228872   0.541   1.215   4.914  0.5333  0.2527 -0.4308
 2486TIP3    H128873   0.518   1.124   4.934  1.9884 -0.1263 -0.4124
 2486TIP3    H228874   0.464   1.265   4.941  0.3867 -0.7946  1.2643
 2487TIP3   OH228875   5.301   0.672  13.815 -0.2282 -0.1065  0.2365
 2487TIP3    H128876   5.231   0.706  13.871 -0.4956 -2.0173  1.1842
 2487TIP3    H228877   5.307   0.579  13.839  2.4162 -0.0882 -0.0353
 2488TIP3   OH228878   2.358   5.103   3.554  0.1831  0.7166 -0.9502
 2488TIP3    H128879   2.307   5.031   3.517 -0.0221  0.6402 -0.5150
 2488TIP3    H228880   2.295   5.174   3.566 -0.1132  0.1949  0.8061
 2489TIP3   OH228881   4.732   6.213  11.646  0.0105  0.5854  0.3213
 2489TIP3    H128882   4.728   6.171  11.560 -0.2649 -1.3768  1.2274
 2489TIP3    H228883   4.817   6.187  11.682  0.8710  2.7832  0.0233
 2490TIP3   OH228884   2.339   2.805  16.232  0.6162  0.3639 -0.3486
 2490TIP3    H128885   2.336   2.884  16.179 -0.0044  0.9635  0.5570
 2490TIP3    H228886   2.299   2.738  16.177 -0.9532  1.1988 -0.2949
 2491TIP3   OH228887   6.128   1.056   1.977 -0.2439  0.3316  0.5067
 2491TIP3    H128888   6.055   1.118   1.975 -0.0737  0.5098 -0.5132
 2491TIP3    H228889   6.089   0.975   2.010 -1.0338  0.2611 -0.5687
 2492TIP3   OH228890   4.910   3.427  14.379 -0.5119 -0.2383  0.3232
 2492TIP3    H128891   4.901   3.409  14.472 -0.9867  1.3322  0.5950
 2492TIP3    H228892   5.001   3.455  14.369 -0.7755  0.7217  0.5274
 2493TIP3   OH228893   0.795   6.233   3.712 -0.3087 -0.2616  0.1207
 2493TIP3    H128894   0.727   6.166   3.711  0.9038 -1.5468 -0.0927
 2493TIP3    H228895   0.748   6.316   3.721 -1.8889 -1.0878 -0.2498
 2494TIP3   OH228896   4.983   6.475  10.698  0.9934 -0.1980  0.6360
 2494TIP3    H128897   4.920   6.448  10.764 -0.3771  0.2436 -0.4389
 2494TIP3    H228898   4.971   6.411  10.627  0.6700  0.7643 -0.1939
 2495TIP3   OH228899   5.312   6.380  16.125 -0.7381  0.0924  0.2377
 2495TIP3    H128900   5.282   6.439  16.194 -0.4041  1.8800 -1.0638
 2495TIP3    H228901   5.394   6.420  16.094 -0.0921 -1.4854 -0.1912
 2496TIP3   OH228902   0.392   0.536   5.418 -0.0793 -0.2715 -0.0863
 2496TIP3    H128903   0.305   0.574   5.405 -0.5781 -0.8217  1.4613
 2496TIP3    H228904   0.448   0.611   5.438 -0.8872 -0.1608  2.1068
 2497TIP3   OH228905   5.863   0.326  14.284 -0.0183  0.0900  0.1279
 2497TIP3    H128906   5.779   0.337  14.329  1.5937 -0.9878  3.8288
 2497TIP3    H228907   5.894   0.415  14.270 -0.4597  0.5189  1.6235
 2498TIP3   OH228908   1.373   6.223   1.361  0.8093 -0.2745 -0.5681
 2498TIP3    H128909   1.403   6.134   1.377  1.2312  0.0207  0.3329
 2498TIP3    H228910   1.452   6.271   1.336  0.6183 -0.0975 -0.8441
 2499TIP3   OH228911   4.752   6.477  16.334  0.7372  0.3361  0.0790
 2499TIP3    H128912   4.685   6.488  16.402  0.0355 -0.6308 -0.4239
 2499TIP3    H228913   4.794   6.394  16.355  0.1204 -0.2638 -0.9715
 2500TIP3   OH228914   5.341   4.338  11.674  0.5061 -0.3004 -0.2655
 2500TIP3    H128915   5.366   4.262  11.623  2.5694 -0.0914  0.3374
 2500TIP3    H228916   5.268   4.377  11.626  1.2426 -1.0833 -2.0957
 2501TIP3   OH228917   1.159   6.094   4.077 -0.2364 -0.2509  0.0212
 2501TIP3    H128918   1.100   6.165   4.052  0.1636 -0.4186 -1.5320
 2501TIP3    H228919   1.221   6.134   4.137 -2.8519 -0.4532  3.1034
 2502TIP3   OH228920   0.133   0.301   2.815  0.1792 -0.1794 -0.1095
 2502TIP3    H128921   0.119   0.395   2.821  1.0612  0.0732 -1.3798
 2502TIP3    H228922   0.223   0.288   2.846  0.2363 -0.5321 -0.4124
 2503TIP3   OH228923   0.884   6.393   0.247  0.3185 -0.1696 -0.3908
 2503TIP3    H128924   0.905   6.403   0.154 -0.5223  1.6082 -0.4394
 2503TIP3    H228925   0.795   6.427   0.255  0.6499  0.4368  1.1729
 2504TIP3   OH228926   2.632   5.527   5.328 -0.4659 -0.1940 -0.2568
 2504TIP3    H128927   2.646   5.506   5.420 -0.8695  0.3600 -0.0564
 2504TIP3    H228928   2.554   5.476   5.303 -1.0419  0.5194  0.0390
 2505TIP3   OH228929   0.395   1.920   4.464  0.3293  0.5175 -0.1273
 2505TIP3    H128930   0.428   1.842   4.419  0.3446  0.9263 -0.8385
 2505TIP3    H228931   0.473   1.958   4.504  0.1402 -0.4938  1.2931
 2506TIP3   OH228932   3.223   3.793   2.220  0.5038 -0.2039 -0.5456
 2506TIP3    H128933   3.175   3.834   2.148 -1.2007 -1.4249 -0.1584
 2506TIP3    H228934   3.257   3.712   2.182  2.7752  0.8726 -0.9560
 2507TIP3   OH228935   0.302   3.012  14.662  0.4049 -0.4901  0.1067
 2507TIP3    H128936   0.334   2.927  14.693 -0.9746 -0.7720  0.8311
 2507TIP3    H228937   0.238   3.040  14.728  1.7447  1.7436  0.5854
 2508TIP3   OH228938   6.413   3.878  14.028  0.4881  0.0053 -0.4831
 2508TIP3    H128939   6.374   3.816  14.090 -0.3392 -0.5432 -1.5205
 2508TIP3    H228940   6.400   3.964  14.068 -1.0815 -0.2337 -0.4098
 2509TIP3   OH228941   0.042   1.970  11.297  0.7684  0.1500  0.0147
 2509TIP3    H128942  -0.001   1.954  11.213  0.7973  2.0333 -0.3851
 2509TIP3    H228943   0.044   1.884  11.339 -1.8249 -0.3314 -0.6831
 2510TIP3   OH228944   1.635   4.914   2.141 -0.0101  0.0990  0.1515
 2510TIP3    H128945   1.589   4.857   2.080  0.0922 -0.8781  0.9614
 2510TIP3    H228946   1.705   4.859   2.177  0.1767  0.7745  0.8561
 2511TIP3   OH228947   3.555   1.617   1.295 -0.7490  0.2391 -0.6537
 2511TIP3    H128948   3.548   1.617   1.391  0.4738 -1.4283 -0.5396
 2511TIP3    H228949   3.613   1.691   1.276  0.5748 -0.5910  0.0468
 2512TIP3   OH228950   5.387   0.666  14.278  0.1472  0.0962  0.0551
 2512TIP3    H128951   5.400   0.709  14.362 -0.3771  1.9925 -0.7807
 2512TIP3    H228952   5.295   0.678  14.258  0.6506  1.5190 -1.6990
 2513TIP3   OH228953   4.505   0.730  17.206  0.7950  0.8500  0.1799
 2513TIP3    H128954   4.428   0.752  17.258  1.8157  2.4626  1.0952
 2513TIP3    H228955   4.561   0.682  17.266 -0.0023 -1.5771 -0.8738
 2514TIP3   OH228956   4.791   3.629  12.088  0.1981 -0.7655  0.2743
 2514TIP3    H128957   4.808   3.554  12.031  1.6827 -0.0855 -0.2153
 2514TIP3    H228958   4.859   3.625  12.155  1.2605  0.9446 -0.6242
 2515TIP3   OH228959   4.729   2.294  12.188  0.5631  0.0129  0.2199
 2515TIP3    H128960   4.753   2.319  12.277  2.9141  3.5354 -1.1999
 2515TIP3    H228961   4.653   2.348  12.168 -0.5344 -1.4339  0.2739
 2516TIP3   OH228962   4.085   1.753  12.243 -0.0895 -0.0383  0.1979
 2516TIP3    H128963   4.073   1.711  12.158 -0.4557 -0.2065  0.3276
 2516TIP3    H228964   4.010   1.723  12.295  0.5180 -0.5066  0.8087
 2517TIP3   OH228965   2.124   6.655   0.027 -0.4752 -0.2001 -0.1921
 2517TIP3    H128966   2.204   6.690   0.065 -0.1865 -1.8482  0.8031
 2517TIP3    H228967   2.120   6.565   0.057 -1.7128 -0.7398 -1.8186
 2518TIP3   OH228968   1.862   0.348   2.730 -0.4006 -0.0029  0.0762
 2518TIP3    H128969   1.908   0.304   2.659  1.8661  2.6484 -0.3031
 2518TIP3    H228970   1.900   0.311   2.810  1.9186  1.4772 -0.2321
 2519TIP3   OH228971   2.197   2.482  15.397 -0.0649  0.6487  0.1002
 2519TIP3    H128972   2.139   2.436  15.336  0.5819 -2.0009  1.3638
 2519TIP3    H228973   2.283   2.441  15.384  0.2347  0.5027  2.2835
 2520TIP3   OH228974   1.239   4.460  13.898 -0.3138  0.7620  0.0785
 2520TIP3    H128975   1.254   4.555  13.891 -1.5541  0.9266 -0.6045
 2520TIP3    H228976   1.272   4.437  13.985  1.8498  1.4461 -0.5066
 2521TIP3   OH228977   5.836   2.675   5.738  0.1585  0.6132 -0.7952
 2521TIP3    H128978   5.803   2.604   5.794  0.4394  2.6643  2.2261
 2521TIP3    H228979   5.877   2.630   5.664  0.0601 -2.3686  0.7922
 2522TIP3   OH228980   3.835   5.287  15.901 -0.4868 -0.6444 -0.6296
 2522TIP3    H128981   3.915   5.260  15.946 -0.5061 -0.0615 -0.2177
 2522TIP3    H228982   3.828   5.381  15.921 -0.9156 -0.5491 -1.2144
 2523TIP3   OH228983   5.017   6.706   2.437  0.2037  0.5707 -0.0343
 2523TIP3    H128984   4.971   6.715   2.354  0.5412 -0.7380 -0.3986
 2523TIP3    H228985   4.948   6.681   2.500 -0.0072  1.3034  0.0384
 2524TIP3   OH228986   0.962   2.346  15.269 -0.3254  0.7688  0.8772
 2524TIP3    H128987   1.030   2.286  15.237 -1.2342 -0.0269  0.3926
 2524TIP3    H228988   0.960   2.332  15.364 -0.7489 -0.2285  0.7342
 2525TIP3   OH228989   6.697   3.099  16.555 -0.0147 -0.0886 -0.3790
 2525TIP3    H128990   6.748   3.132  16.480 -0.1671  0.5715 -0.1988
 2525TIP3    H228991   6.752   3.030  16.593  0.6250  0.4270 -0.3549
 2526TIP3   OH228992   5.006   1.232   4.686  0.2117  0.3289 -0.3114
 2526TIP3    H128993   4.952   1.275   4.620  0.1516  1.2328  0.3070
 2526TIP3    H228994   5.078   1.293   4.702  0.8355 -0.3773 -0.3393
 2527TIP3   OH228995   4.385   0.866   1.328  1.0540  0.1288 -0.3739
 2527TIP3    H128996   4.404   0.952   1.289 -0.9941  0.1649 -1.4208
 2527TIP3    H228997   4.372   0.808   1.254 -0.6690 -0.3335  0.2286
 2528TIP3   OH228998   1.064   0.241   5.107 -0.8986 -0.4070 -0.2835
 2528TIP3    H128999   1.003   0.168   5.091 -0.1926 -1.0943  0.1283
 2528TIP3    H229000   1.007   0.312   5.137 -1.5231 -0.9896 -0.0439
 2529TIP3   OH229001   5.610   6.180  16.401  0.4391 -0.0420 -0.1891
 2529TIP3    H129002   5.634   6.177  16.494  0.0235 -1.4063 -0.1012
 2529TIP3    H229003   5.522   6.217  16.400 -0.0270 -1.1008  0.0894
 2530TIP3   OH229004   2.069   5.964   3.516  0.1266 -0.4625 -0.3406
 2530TIP3    H129005   2.072   5.923   3.429 -1.9354 -0.2109 -0.5985
 2530TIP3    H229006   2.044   6.055   3.498  0.5083 -0.1910  0.4774
 2531TIP3   OH229007   5.847   6.143   1.717  0.0051  0.4008  0.0245
 2531TIP3    H129008   5.828   6.225   1.672 -0.5943  0.4141  0.2969
 2531TIP3    H229009   5.874   6.168   1.805 -1.2049  0.2613  0.4418
 2532TIP3   OH229010   1.732   5.231  14.051 -0.1053  0.0227 -0.1101
 2532TIP3    H129011   1.820   5.252  14.021  0.4194 -2.7760 -0.7927
 2532TIP3    H229012   1.702   5.162  13.993 -1.2067 -1.8128  2.4485
 2533TIP3   OH229013   0.711   6.614   4.226  0.2776 -0.1799  0.4769
 2533TIP3    H129014   0.770   6.565   4.283  1.2433  1.2793  0.8017
 2533TIP3    H229015   0.734   6.585   4.137  1.1019 -0.0697  0.6408
 2534TIP3   OH229016   6.332   4.377  13.501 -0.0381  0.5072  0.0910
 2534TIP3    H129017   6.355   4.289  13.530 -1.0291  0.8362  2.0190
 2534TIP3    H229018   6.353   4.433  13.576  0.2861  1.8858 -0.9908
 2535TIP3   OH229019   2.798   1.087   3.748 -0.3635  0.2567 -0.2055
 2535TIP3    H129020   2.784   1.162   3.806 -0.9726  1.8092 -2.2099
 2535TIP3    H229021   2.713   1.044   3.744 -0.5659  0.6896 -0.6362
 2536TIP3   OH229022   6.568   3.746  12.474 -0.3980  0.7908  0.2146
 2536TIP3    H129023   6.580   3.673  12.535  1.7901  0.7867 -0.1212
 2536TIP3    H229024   6.474   3.764  12.475 -1.0469 -2.1252  0.2001
 2537TIP3   OH229025   6.141   0.615  11.320 -0.5680 -0.1170  0.2860
 2537TIP3    H129026   6.150   0.654  11.233  0.5448 -1.5086 -0.2586
 2537TIP3    H229027   6.062   0.561  11.314  0.6576 -1.9249 -0.6063
 2538TIP3   OH229028   6.257   3.784   2.968 -0.0972 -0.2702  0.2489
 2538TIP3    H129029   6.277   3.770   3.061 -0.0749 -0.2166  0.2523
 2538TIP3    H229030   6.313   3.723   2.921 -0.0648 -0.2549  0.2680
 2539TIP3   OH229031   3.060   2.116  12.182 -0.5229 -0.1496  0.4475
 2539TIP3    H129032   3.129   2.137  12.245  0.6892  0.6329 -1.0475
 2539TIP3    H229033   3.085   2.031  12.146  0.2257  0.5401 -0.7484
 2540TIP3   OH229034   3.648   0.955  10.689 -0.0178 -0.3115  0.7944
 2540TIP3    H129035   3.704   0.936  10.763  1.2713  2.1202  0.5461
 2540TIP3    H229036   3.707   0.989  10.622 -1.4125 -0.5158 -0.6014
 2541TIP3   OH229037   0.670   4.138   5.712  0.2528 -0.2287  0.1897
 2541TIP3    H129038   0.692   4.165   5.801  1.4813  1.6897 -0.6433
 2541TIP3    H229039   0.582   4.172   5.698  0.8663  1.3655 -0.0152
 2542TIP3   OH229040   3.556   4.674   3.005  0.4305 -0.4003  0.0304
 2542TIP3    H129041   3.526   4.699   2.918 -1.8724  0.4307  1.0080
 2542TIP3    H229042   3.485   4.698   3.063  1.4281 -1.9986  2.0298
 2543TIP3   OH229043   6.264   6.660   4.652 -0.1860  1.1208  0.1372
 2543TIP3    H129044   6.199   6.608   4.605  0.0893  0.9027 -0.0037
 2543TIP3    H229045   6.292   6.604   4.724  0.9082  0.6429 -0.6501
 2544TIP3   OH229046   6.344   2.019   3.245 -0.3253  0.2867 -0.0589
 2544TIP3    H129047   6.333   2.072   3.167  0.1024  0.1332 -0.2224
 2544TIP3    H229048   6.296   1.939   3.227 -0.4413  0.3559 -0.0600
 2545TIP3   OH229049   3.336   4.622  16.636  0.0620 -0.5006 -0.4293
 2545TIP3    H129050   3.414   4.588  16.594  0.8095 -0.8832  1.1790
 2545TIP3    H229051   3.303   4.689  16.576  2.3198  0.5494 -0.5895
 2546TIP3   OH229052   2.995   6.419   4.772 -0.4567  0.0975  0.5602
 2546TIP3    H129053   2.973   6.340   4.722  0.9410  0.4056 -0.6309
 2546TIP3    H229054   3.024   6.387   4.857  1.9514 -0.9179 -0.5302
 2547TIP3   OH229055   6.339   2.278   0.654 -0.5140 -0.6229  0.0766
 2547TIP3    H129056   6.316   2.191   0.622 -1.5194 -0.7872  1.1637
 2547TIP3    H229057   6.280   2.292   0.728  0.7388  0.3057  0.9371
 2548TIP3   OH229058   0.899   4.190  10.605  0.0548  0.0204  0.5709
 2548TIP3    H129059   0.993   4.173  10.608  0.2419  0.2712 -2.0353
 2548TIP3    H229060   0.864   4.124  10.545 -1.6823 -0.8324  2.3669
 2549TIP3   OH229061   1.738   1.402   5.615  0.2483 -0.2601  0.0937
 2549TIP3    H129062   1.762   1.323   5.567  1.3567 -0.0284  0.2455
 2549TIP3    H229063   1.660   1.434   5.570 -1.0111 -2.1199  0.8222
 2550TIP3   OH229064   1.814   6.595   3.606 -0.5231  0.0282  0.0266
 2550TIP3    H129065   1.811   6.541   3.684 -1.5086 -0.0062 -0.0171
 2550TIP3    H229066   1.739   6.654   3.615  0.1624  0.9597 -0.2294
 2551TIP3   OH229067   2.973   2.300  12.497  0.6923 -0.5119  0.2340
 2551TIP3    H129068   3.057   2.296  12.451  0.1769 -2.3470 -0.6495
 2551TIP3    H229069   2.995   2.338  12.582  1.9602  1.3438 -0.8540
 2552TIP3   OH229070   6.101   2.132  15.644  0.0731 -0.6421 -0.4198
 2552TIP3    H129071   6.030   2.166  15.699  1.3753  1.6399  0.0057
 2552TIP3    H229072   6.181   2.153  15.693  1.1444 -1.4315 -1.7490
 2553TIP3   OH229073   2.851   6.464   0.799 -0.0859 -0.2103  0.1106
 2553TIP3    H129074   2.931   6.469   0.748 -1.0819 -1.7981 -1.7917
 2553TIP3    H229075   2.849   6.374   0.832 -0.3122  0.2882  1.5152
 2554TIP3   OH229076   2.369   0.663  15.918  0.1312  0.1603 -0.3700
 2554TIP3    H129077   2.427   0.630  15.987  0.5252  1.9382  0.1971
 2554TIP3    H229078   2.396   0.754  15.906 -1.0182  0.3514 -1.7464
 2555TIP3   OH229079   2.133   5.658   3.269  0.1670 -0.4432 -0.3761
 2555TIP3    H129080   2.212   5.678   3.317  0.3380 -1.3809 -0.2417
 2555TIP3    H229081   2.162   5.602   3.196 -0.3711 -0.8713 -0.2730
 2556TIP3   OH229082   6.722   5.673  11.451 -0.4512 -0.5888 -0.7477
 2556TIP3    H129083   6.706   5.693  11.359 -0.2885 -3.8448 -1.6310
 2556TIP3    H229084   6.647   5.619  11.477  0.1266 -0.7711  0.6405
 2557TIP3   OH229085   2.447   4.923  12.182  0.2686 -0.0808 -0.1762
 2557TIP3    H129086   2.384   4.957  12.246  1.3681  2.4885 -0.3574
 2557TIP3    H229087   2.509   4.873  12.235 -0.6131 -0.6962  0.3054
 2558TIP3   OH229088   4.739   6.090   5.482 -0.2166 -0.2048  0.4312
 2558TIP3    H129089   4.664   6.106   5.425  0.5168  3.0915  0.1627
 2558TIP3    H229090   4.700   6.076   5.569 -1.1862 -1.3723 -0.1532
 2559TIP3   OH229091   3.219   5.042  15.616 -0.6347  0.0267 -0.2725
 2559TIP3    H129092   3.197   5.112  15.556 -1.5914  0.2255  0.3012
 2559TIP3    H229093   3.242   5.086  15.698  1.9817 -0.1472 -0.7992
 2560TIP3   OH229094   6.105   5.068  11.098  0.8411  0.0643 -0.1158
 2560TIP3    H129095   6.131   5.118  11.021  0.7418 -0.4248 -0.4718
 2560TIP3    H229096   6.025   5.112  11.129 -0.5259 -1.1496 -1.7149
 2561TIP3   OH229097   4.450   6.035   0.270 -0.6478 -0.0995 -0.0862
 2561TIP3    H129098   4.522   5.973   0.282 -0.5154  0.1935  0.6690
 2561TIP3    H229099   4.484   6.100   0.209 -0.5143 -0.3337 -0.2637
 2562TIP3   OH229100   6.074   4.290   3.992  0.3266  0.3883 -0.6283
 2562TIP3    H129101   6.140   4.259   4.054  0.0896  0.9593 -0.0799
 2562TIP3    H229102   6.125   4.333   3.923  0.5363  0.7423 -0.2567
 2563TIP3   OH229103   2.265   3.610   0.199 -0.5579  0.4386 -0.2674
 2563TIP3    H129104   2.338   3.669   0.217  0.0323  0.1273 -1.5426
 2563TIP3    H229105   2.230   3.588   0.285  1.0855  0.3089  0.3978
 2564TIP3   OH229106   2.696   2.115  14.270  0.1353 -0.3264  0.4779
 2564TIP3    H129107   2.685   2.093  14.362  3.2243 -0.5457  0.9036
 2564TIP3    H229108   2.639   2.054  14.224  0.6586 -2.1716  2.1332
 2565TIP3   OH229109   5.584   2.757  16.748  0.4600  0.1185 -0.1263
 2565TIP3    H129110   5.534   2.679  16.724 -0.7748  1.0075 -0.5215
 2565TIP3    H229111   5.672   2.724  16.769  0.1853 -1.2706 -1.0781
 2566TIP3   OH229112   2.471   1.803   4.733  0.0873  0.4900  0.6758
 2566TIP3    H129113   2.557   1.760   4.735  0.1576  0.5244 -0.7844
 2566TIP3    H229114   2.411   1.737   4.768  0.5404  0.0330  0.6053
 2567TIP3   OH229115   4.091   2.308   3.777  0.2174 -0.2287 -0.0741
 2567TIP3    H129116   4.155   2.295   3.707  0.4295  1.6338 -0.2613
 2567TIP3    H229117   4.006   2.295   3.735  0.3977 -1.9055 -0.0038
 2568TIP3   OH229118   4.895   2.874  12.711  0.5655 -0.7916  0.1872
 2568TIP3    H129119   4.833   2.882  12.783  1.7412 -1.4525  1.3300
 2568TIP3    H229120   4.858   2.805  12.655 -1.7925  1.6293 -1.4621
 2569TIP3   OH229121   1.733   4.674  16.127 -0.0034  0.3782 -0.0281
 2569TIP3    H129122   1.657   4.639  16.082  0.6274 -2.2068  0.7488
 2569TIP3    H229123   1.716   4.658  16.220  0.8659  1.0944  0.2769
 2570TIP3   OH229124   1.197   2.514   3.480  1.0203 -0.6254 -0.0527
 2570TIP3    H129125   1.225   2.527   3.571 -1.7803 -0.5214  0.8644
 2570TIP3    H229126   1.202   2.419   3.466 -0.8019 -0.9166  1.0496
 2571TIP3   OH229127   2.341   5.401  13.781 -0.3077  0.0965 -0.1213
 2571TIP3    H129128   2.398   5.378  13.855 -0.5797 -0.4642 -0.0828
 2571TIP3    H229129   2.333   5.320  13.731  0.0952  0.5411 -0.9226
 2572TIP3   OH229130   2.670   5.530   6.135  0.0982  0.0933  0.0176
 2572TIP3    H129131   2.719   5.449   6.128 -0.3566 -0.4367  2.2007
 2572TIP3    H229132   2.578   5.504   6.124 -0.2525 -0.1242  2.7522
 2573TIP3   OH229133   4.812   3.393  11.272  0.1004 -0.4808 -0.0458
 2573TIP3    H129134   4.729   3.350  11.294 -0.6532  1.4441  1.0543
 2573TIP3    H229135   4.787   3.483  11.251  1.7767 -0.2201 -1.0200
 2574TIP3   OH229136   2.322   2.809  10.617  0.4542 -0.8914 -0.0118
 2574TIP3    H129137   2.313   2.902  10.596 -0.0282 -0.6465  1.1794
 2574TIP3    H229138   2.238   2.771  10.592  1.4777 -1.5120 -2.7682
 2575TIP3   OH229139   6.034   6.314  11.298  0.1669  0.3919 -0.0204
 2575TIP3    H129140   6.014   6.256  11.371 -0.3679  2.0716  1.2384
 2575TIP3    H229141   5.966   6.297  11.233  0.8188 -1.3240 -0.2927
 2576TIP3   OH229142   4.600   5.720  11.532 -0.1591 -0.1741 -0.2997
 2576TIP3    H129143   4.695   5.711  11.520  0.3386  3.7538 -0.8220
 2576TIP3    H229144   4.564   5.709  11.444 -0.4362 -2.9366  0.0913
 2577TIP3   OH229145   6.016   1.979   5.488 -0.7639 -0.2987  0.3249
 2577TIP3    H129146   6.100   1.956   5.448  0.7899  1.3444  2.4423
 2577TIP3    H229147   5.959   1.906   5.465  0.6046 -0.5233 -2.8834
 2578TIP3   OH229148   4.138   3.349   0.503 -0.1305 -0.3933  0.0451
 2578TIP3    H129149   4.223   3.392   0.489 -0.4791  0.3008  0.0210
 2578TIP3    H229150   4.074   3.418   0.489 -0.7033 -0.9007  0.1296
 2579TIP3   OH229151   4.557   0.419  11.596  0.0003 -0.2179 -0.4480
 2579TIP3    H129152   4.609   0.458  11.526 -0.1043 -0.0361 -0.4233
 2579TIP3    H229153   4.548   0.327  11.571  1.0712 -0.4575 -0.0203
 2580TIP3   OH229154   1.184   1.547  17.153  0.0293  0.4787  0.0110
 2580TIP3    H129155   1.150   1.595  17.077 -1.0937 -1.3216 -0.6909
 2580TIP3    H229156   1.229   1.613  17.205  1.1512  1.7143 -2.3888
 2581TIP3   OH229157   3.335   5.016  11.921  0.4961 -0.0133 -0.0780
 2581TIP3    H129158   3.372   4.946  11.868 -0.0648  0.1966 -0.7691
 2581TIP3    H229159   3.379   5.095  11.889 -1.0235  0.3417 -1.4298
 2582TIP3   OH229160   4.183   2.576   3.781  0.1304  0.0785  0.4091
 2582TIP3    H129161   4.271   2.562   3.747  0.4045 -1.5168  1.6604
 2582TIP3    H229162   4.148   2.488   3.795 -1.1203  0.6832  1.3025
 2583TIP3   OH229163   5.334   0.287  16.905 -0.5364 -0.1613 -0.4116
 2583TIP3    H129164   5.293   0.358  16.954  0.1177  1.8878 -2.6334
 2583TIP3    H229165   5.344   0.322  16.816  1.2125 -2.4941 -1.2387
 2584TIP3   OH229166   5.059   5.755  11.831  0.1614 -0.3662  0.0864
 2584TIP3    H129167   4.997   5.739  11.901 -0.1135  1.2448  0.2419
 2584TIP3    H229168   5.134   5.796  11.874  0.5599 -0.5994 -0.3745
 2585TIP3   OH229169   1.421   1.995  12.153  0.0521 -0.2216  0.4045
 2585TIP3    H129170   1.446   2.055  12.224  0.6780 -2.0051  1.7942
 2585TIP3    H229171   1.488   1.927  12.156  1.6977  0.9438 -3.7350
 2586TIP3   OH229172   2.286   1.569  11.407  0.3524 -0.4199  0.2513
 2586TIP3    H129173   2.362   1.613  11.369  0.7557 -1.6604 -0.4437
 2586TIP3    H229174   2.267   1.618  11.487  0.4648  1.3023 -0.7324
 2587TIP3   OH229175   1.000   1.895   3.255 -0.0095  0.1797 -0.4333
 2587TIP3    H129176   1.072   1.957   3.252 -0.2540  0.4737 -0.2977
 2587TIP3    H229177   0.974   1.893   3.347 -0.8986  0.9169 -0.6587
 2588TIP3   OH229178   1.052   0.356   4.761 -0.0260  0.6900 -0.2107
 2588TIP3    H129179   1.013   0.337   4.846 -1.8957 -0.3876 -1.2327
 2588TIP3    H229180   0.989   0.320   4.698  1.7651  0.6081 -2.0264
 2589TIP3   OH229181   2.264   1.287  11.412 -0.0194 -0.4311  0.2086
 2589TIP3    H129182   2.175   1.291  11.376 -0.2689  0.1804  0.8834
 2589TIP3    H229183   2.297   1.376  11.402 -0.6879  0.2107  2.9624
 2590TIP3   OH229184   2.568   0.261   2.719 -0.1113  0.0381 -0.3087
 2590TIP3    H129185   2.602   0.183   2.676  1.8776  0.5863  0.1919
 2590TIP3    H229186   2.502   0.295   2.658  1.4310 -0.1436 -2.1490
 2591TIP3   OH229187   3.557   5.625   2.078 -0.7175  0.1850 -0.1029
 2591TIP3    H129188   3.578   5.539   2.040 -1.4700 -1.2966  2.6058
 2591TIP3    H229189   3.637   5.676   2.066 -0.7339 -0.3091 -3.1015
 2592TIP3   OH229190   0.587   2.489   4.027  0.0089  0.3055 -0.4468
 2592TIP3    H129191   0.522   2.547   4.066 -0.7481  0.4814 -1.9295
 2592TIP3    H229192   0.555   2.472   3.939  3.0034  2.0799 -2.0302
 2593TIP3   OH229193   4.351   0.691  16.279 -0.5648  0.1871 -0.1801
 2593TIP3    H129194   4.346   0.600  16.307  2.8390 -0.3276 -0.7406
 2593TIP3    H229195   4.381   0.738  16.357 -2.4062  0.8980  0.1360
 2594TIP3   OH229196   0.213   3.088  15.062  1.1577 -0.1596  0.5821
 2594TIP3    H129197   0.264   3.033  15.121 -1.7973 -0.4472  3.1351
 2594TIP3    H229198   0.165   3.147  15.120 -0.0888  1.2301 -1.7218
 2595TIP3   OH229199   4.198   5.794  16.151 -0.0479 -0.4761  0.4274
 2595TIP3    H129200   4.278   5.743  16.161  0.9810  0.9105 -0.3477
 2595TIP3    H229201   4.222   5.882  16.178 -0.7502  0.3980 -1.5819
 2596TIP3   OH229202   4.234   4.462   9.807 -0.6614  0.2196 -0.2081
 2596TIP3    H129203   4.233   4.493   9.897  0.6095 -0.1990 -0.0270
 2596TIP3    H229204   4.316   4.495   9.771 -1.2192  0.4991 -1.2625
 2597TIP3   OH229205   4.372   6.258   2.226  0.4659  0.8104  0.0494
 2597TIP3    H129206   4.336   6.329   2.280  2.1177  3.4242 -2.0106
 2597TIP3    H229207   4.340   6.178   2.267 -0.1456  2.6507  3.5667
 2598TIP3   OH229208   0.910   6.180  12.603 -0.4271  0.0348  0.2736
 2598TIP3    H129209   0.973   6.148  12.538 -0.1991  0.9156  0.0529
 2598TIP3    H229210   0.947   6.263  12.633 -0.8642 -0.0498  1.0543
 2599TIP3   OH229211   3.621   1.175  13.573 -0.3788 -0.8605  0.5797
 2599TIP3    H129212   3.543   1.159  13.625 -1.1735 -0.2089 -0.3483
 2599TIP3    H229213   3.597   1.249  13.516  0.4172 -1.5608 -0.7308
 2600TIP3   OH229214   3.289   6.598   5.019 -0.3161 -0.0611  0.0707
 2600TIP3    H129215   3.330   6.591   5.105  0.1863 -0.7408 -0.2177
 2600TIP3    H229216   3.197   6.575   5.033 -0.1426 -0.5747  0.3508
 2601TIP3   OH229217   2.583   5.695  12.726 -0.2872  0.4560  0.4785
 2601TIP3    H129218   2.634   5.731  12.798 -0.2421  0.7297  0.3105
 2601TIP3    H229219   2.500   5.668  12.766 -0.3732  0.8645  0.5838
 2602TIP3   OH229220   0.667   3.043  13.558  0.0598 -0.4022  0.0452
 2602TIP3    H129221   0.621   3.122  13.528  0.9622  0.6910  1.3996
 2602TIP3    H229222   0.688   2.996  13.477  0.9171  1.5560 -0.9505
 2603TIP3   OH229223   5.998   5.471   1.427  0.2917 -0.0160 -0.4065
 2603TIP3    H129224   6.045   5.514   1.356 -0.4261 -0.2167 -1.0051
 2603TIP3    H229225   5.991   5.539   1.495  0.6811  0.2736 -0.6475
 2604TIP3   OH229226   3.698   0.053   1.920 -0.0647 -0.3206 -0.0831
 2604TIP3    H129227   3.724   0.090   2.005 -1.8730  1.5946 -0.2596
 2604TIP3    H229228   3.767   0.081   1.860  0.0355  0.3711  0.3379
 2605TIP3   OH229229   3.116   6.311   2.367 -1.0113 -0.1913  0.4050
 2605TIP3    H129230   3.121   6.280   2.458 -2.9954 -0.6228  0.4321
 2605TIP3    H229231   3.145   6.236   2.315  0.0700  0.0348  0.6671
 2606TIP3   OH229232   2.781   0.362   0.430  0.4992 -0.4421  0.8934
 2606TIP3    H129233   2.736   0.283   0.398  0.0503  0.8157 -1.9325
 2606TIP3    H229234   2.711   0.419   0.460  0.7769 -0.8400  2.3650
 2607TIP3   OH229235   2.074   3.293   2.263 -0.2716 -1.0708  0.2669
 2607TIP3    H129236   1.993   3.290   2.213 -0.4018 -0.7490  0.4595
 2607TIP3    H229237   2.053   3.250   2.346 -0.7486  0.5704  1.0296
 2608TIP3   OH229238   6.232   5.076   2.044  0.1745  0.4453  0.1354
 2608TIP3    H129239   6.310   5.127   2.023  0.9583 -0.9207 -0.4543
 2608TIP3    H229240   6.204   5.041   1.959  0.6948 -1.4809  0.7092
 2609TIP3   OH229241   4.718   1.700  11.061  0.1978 -0.9432 -0.6272
 2609TIP3    H129242   4.773   1.624  11.080 -0.4301 -1.7959 -2.0249
 2609TIP3    H229243   4.768   1.774  11.093 -0.4313 -2.0680  3.5425
 2610TIP3   OH229244   2.531   6.731  11.172 -1.1005  0.2371 -1.3665
 2610TIP3    H129245   2.536   6.820  11.207 -1.5383  0.5435 -2.0707
 2610TIP3    H229246   2.621   6.698  11.180 -1.3769 -0.0919  0.9858
 2611TIP3   OH229247   6.389   4.013   3.989 -0.2872  0.3846  0.6995
 2611TIP3    H129248   6.455   3.961   4.034 -0.8762 -0.5932  0.4650
 2611TIP3    H229249   6.424   4.024   3.900 -0.6716 -0.5855  0.4200
 2612TIP3   OH229250   5.247   3.519  11.271  0.2331  0.1170 -0.4536
 2612TIP3    H129251   5.316   3.453  11.276  1.3227  1.0518 -2.1233
 2612TIP3    H229252   5.198   3.497  11.191  0.0792  0.8350 -0.5676
 2613TIP3   OH229253   2.174   3.622  14.273 -0.3527 -0.3751  0.8299
 2613TIP3    H129254   2.255   3.577  14.298  1.3826  2.3245  0.5598
 2613TIP3    H229255   2.193   3.715  14.289 -1.9168  0.7991 -2.9660
 2614TIP3   OH229256   1.314   2.721   2.793  0.0208  0.3599  0.0238
 2614TIP3    H129257   1.348   2.671   2.868  1.5664 -0.2485 -1.0359
 2614TIP3    H229258   1.372   2.797   2.787  0.1509  0.2053 -0.7813
 2615TIP3   OH229259   3.653   3.415  10.178 -0.0702  0.2276 -0.0281
 2615TIP3    H129260   3.722   3.382  10.119  0.8644  1.5740  0.2486
 2615TIP3    H229261   3.606   3.337  10.206  0.7819 -0.6505 -0.9318
 2616TIP3   OH229262   4.556   3.953   5.367 -0.4277 -0.2527  0.2723
 2616TIP3    H129263   4.494   3.959   5.295  0.4453 -1.0642 -0.5750
 2616TIP3    H229264   4.535   3.869   5.409 -0.0517 -0.4199  0.1250
 2617TIP3   OH229265   2.121   4.738   1.804  0.8099 -0.1510 -0.0214
 2617TIP3    H129266   2.151   4.649   1.784  0.7481 -0.1800  0.0157
 2617TIP3    H229267   2.166   4.761   1.885 -0.6493 -0.8823  1.0418
 2618TIP3   OH229268   4.034   3.687  16.614 -0.2688  0.2812  0.2642
 2618TIP3    H129269   4.073   3.712  16.531  0.1766  1.7745  0.8902
 2618TIP3    H229270   3.941   3.704  16.604 -0.5285 -1.4132 -0.5628
 2619TIP3   OH229271   1.443   6.334  14.375  0.2250 -0.0088  0.1492
 2619TIP3    H129272   1.526   6.339  14.423  0.7173 -2.0327 -0.3855
 2619TIP3    H229273   1.403   6.252  14.404 -1.1372  0.4512 -0.3314
 2620TIP3   OH229274   1.381   5.202   3.387 -0.5808  0.3574 -0.0621
 2620TIP3    H129275   1.332   5.279   3.415 -1.1018 -0.2898  0.8700
 2620TIP3    H229276   1.315   5.133   3.379 -0.0842 -0.0670 -0.6003
 2621TIP3   OH229277   6.422   0.671   4.481  0.4087 -0.5828 -0.0052
 2621TIP3    H129278   6.370   0.592   4.493 -1.0263  0.2533 -0.4692
 2621TIP3    H229279   6.406   0.697   4.391  1.7319 -0.3499 -0.1920
 2622TIP3   OH229280   4.043   4.014   3.736  0.3386  0.6320  0.3131
 2622TIP3    H129281   3.988   3.964   3.797  2.1871  0.6032  2.0658
 2622TIP3    H229282   4.128   3.970   3.739  0.7390  1.1968 -1.6414
 2623TIP3   OH229283   3.077   0.767  15.805  0.1250 -0.4755 -0.4879
 2623TIP3    H129284   2.985   0.749  15.783  0.4033 -2.4802 -0.2246
 2623TIP3    H229285   3.087   0.735  15.894  1.5632 -2.2816 -1.2373
 2624TIP3   OH229286   3.014   2.790  15.578 -0.2120 -0.1200 -0.5393
 2624TIP3    H129287   2.957   2.867  15.580 -0.5375 -0.3029 -1.8766
 2624TIP3    H229288   2.989   2.744  15.498  1.5051 -0.4492 -0.9159
 2625TIP3   OH229289   5.909   6.663   3.109 -0.1473  0.6652 -0.3185
 2625TIP3    H129290   5.946   6.750   3.093  1.2690  0.0876 -0.2451
 2625TIP3    H229291   5.912   6.620   3.024 -1.1977  0.7890 -0.4385
 2626TIP3   OH229292   3.660   3.980   0.249  0.2989  0.5004  0.7116
 2626TIP3    H129293   3.694   4.036   0.179  1.1885 -1.1582 -0.2648
 2626TIP3    H229294   3.716   3.999   0.325  0.1905  1.3560  0.5856
 2627TIP3   OH229295   2.015   1.858   2.910 -0.1978 -0.5550  0.2834
 2627TIP3    H129296   1.959   1.878   2.985  0.5059 -0.4152  0.7777
 2627TIP3    H229297   2.064   1.781   2.937  2.4617  1.3420  1.3208
 2628TIP3   OH229298   5.690   1.767   3.020 -0.1806  0.7362 -0.0986
 2628TIP3    H129299   5.743   1.791   3.096 -1.8626 -0.3448  1.5277
 2628TIP3    H229300   5.600   1.767   3.053 -1.1132  1.4723 -2.4603
 2629TIP3   OH229301   0.860   0.273   3.945 -0.0235 -0.3137  0.2774
 2629TIP3    H129302   0.893   0.362   3.930  1.3679 -0.7694  0.4343
 2629TIP3    H229303   0.843   0.239   3.857  0.1185 -0.1333  0.1777
 2630TIP3   OH229304   4.070   5.176  15.979 -0.1579 -0.2215  0.1211
 2630TIP3    H129305   4.079   5.098  16.034 -2.0825  0.3630  1.3460
 2630TIP3    H229306   4.107   5.149  15.894  0.1626 -2.1234  0.8140
 2631TIP3   OH229307   2.426   4.402  16.026  0.0371  0.1938 -0.4979
 2631TIP3    H129308   2.427   4.419  16.121  0.3524  0.1011 -0.4834
 2631TIP3    H229309   2.358   4.460  15.992 -0.8590 -0.5859 -0.0688
 2632TIP3   OH229310   4.177   0.009   0.077 -0.3377  0.1749  0.3582
 2632TIP3    H129311   4.198   0.030   0.168  2.9065  1.1682 -0.4659
 2632TIP3    H229312   4.243   0.057   0.026 -2.1347 -0.1987 -2.5522
 2633TIP3   OH229313   6.550   4.296  17.409  0.1318  0.8527 -0.0040
 2633TIP3    H129314   6.571   4.203  17.420  1.4477  1.1885  0.4275
 2633TIP3    H229315   6.612   4.341  17.465 -0.9466  1.9705  0.3153
 2634TIP3   OH229316   4.086   1.330  14.743 -0.1585  0.1956  0.0175
 2634TIP3    H129317   4.062   1.397  14.806  0.7357  0.3806  0.1734
 2634TIP3    H229318   4.177   1.349  14.720 -0.0786 -0.6037 -0.3899
 2635TIP3   OH229319   1.295   4.304   2.782 -0.1973  0.1373  0.4432
 2635TIP3    H129320   1.261   4.264   2.702 -1.4628  0.3538  0.8583
 2635TIP3    H229321   1.370   4.356   2.752  0.0700 -0.7074 -0.4202
 2636TIP3   OH229322   5.983   1.133  10.833 -0.2560 -0.1634  0.3231
 2636TIP3    H129323   5.894   1.115  10.803  0.3687 -1.7593 -0.7020
 2636TIP3    H229324   6.017   1.197  10.771  0.0546 -1.2730 -0.6765
 2637TIP3   OH229325   0.253   5.625  15.215 -0.7940 -0.0910 -0.1471
 2637TIP3    H129326   0.191   5.675  15.162  0.4355  1.5003 -0.1521
 2637TIP3    H229327   0.316   5.591  15.153 -1.4029 -1.3775 -0.0948
 2638TIP3   OH229328   2.739   4.432  11.900  0.2112  0.2698 -0.7094
 2638TIP3    H129329   2.756   4.480  11.819 -0.4270 -0.1776 -1.1208
 2638TIP3    H229330   2.776   4.487  11.969  3.6287 -0.7711 -1.5270
 2639TIP3   OH229331   4.951   0.066   4.787  0.1083 -0.0829  0.3021
 2639TIP3    H129332   4.887  -0.004   4.790  0.7325 -0.6835 -0.0478
 2639TIP3    H229333   4.914   0.131   4.728 -0.3956 -0.1984  0.4922
 2640TIP3   OH229334   2.010   5.585  11.380  0.4006  0.0292  0.4978
 2640TIP3    H129335   1.963   5.509  11.344  0.6860  0.2843 -0.4376
 2640TIP3    H229336   1.980   5.658  11.327  0.0942  0.5937  1.4253
 2641TIP3   OH229337   1.143   5.780  16.289 -0.1143 -0.0688 -0.3000
 2641TIP3    H129338   1.189   5.795  16.372  0.3883  1.1996 -0.7894
 2641TIP3    H229339   1.209   5.792  16.222 -1.2659  2.6878 -1.0692
 2642TIP3   OH229340   4.907   2.111  11.761 -0.7434 -0.4137  0.2468
 2642TIP3    H129341   4.960   2.033  11.778 -1.4088 -0.8086  0.5440
 2642TIP3    H229342   4.817   2.078  11.756 -0.8551  0.0437 -1.5130
 2643TIP3   OH229343   4.397   0.196   0.333 -0.0528 -0.2622 -0.5003
 2643TIP3    H129344   4.361   0.110   0.315  1.7093 -1.2357  0.3576
 2643TIP3    H229345   4.375   0.212   0.425  0.6100 -0.3037 -0.3340
 2644TIP3   OH229346   2.704   1.043  16.465  0.5845 -0.3244  0.1635
 2644TIP3    H129347   2.685   0.953  16.439  0.5139 -0.1607 -0.3704
 2644TIP3    H229348   2.726   1.087  16.383  0.5587  0.1582  0.4144
 2645TIP3   OH229349   1.554   2.067  11.673 -0.6634  0.4904  0.6538
 2645TIP3    H129350   1.528   2.023  11.754  1.1673  1.1513  1.6520
 2645TIP3    H229351   1.502   2.147  11.672 -1.2561  0.1143  0.7696
 2646TIP3   OH229352   4.394   4.798  15.887  0.1539  0.1532  0.1489
 2646TIP3    H129353   4.300   4.817  15.886  0.1264  0.0033 -0.1983
 2646TIP3    H229354   4.412   4.770  15.977  0.3096  2.3649  0.8649
 2647TIP3   OH229355   2.562   2.462  13.555 -0.0423 -0.2054 -0.3871
 2647TIP3    H129356   2.473   2.434  13.575 -0.3129  0.9782  0.1642
 2647TIP3    H229357   2.617   2.412  13.615 -0.3384 -0.8659 -0.6600
 2648TIP3   OH229358   5.693   4.582  12.732  0.2312 -0.5286 -0.0572
 2648TIP3    H129359   5.691   4.629  12.816  2.1039  1.5164 -1.0468
 2648TIP3    H229360   5.615   4.614  12.686  0.9192  0.8967 -0.2995
 2649TIP3   OH229361   3.864   1.502  13.143  0.5507 -0.8506  0.4895
 2649TIP3    H129362   3.920   1.426  13.129  2.1813 -0.1737  2.6556
 2649TIP3    H229363   3.827   1.489  13.230  0.6908  0.6854  0.8152
 2650TIP3   OH229364   5.837   6.262  15.566  0.8507  0.2239 -0.4861
 2650TIP3    H129365   5.790   6.293  15.489 -2.0418  0.1765  1.1024
 2650TIP3    H229366   5.840   6.338  15.625  0.8264 -0.3703  0.3060
 2651TIP3   OH229367   5.772   3.368  15.904  0.4337 -0.4644  0.5090
 2651TIP3    H129368   5.800   3.356  15.813  0.1951  2.7501 -0.0828
 2651TIP3    H229369   5.689   3.320  15.910  0.9497 -1.5610 -0.6441
 2652TIP3   OH229370   4.327   0.311   3.722 -0.6264 -0.0185  0.4023
 2652TIP3    H129371   4.278   0.333   3.801 -0.8380 -0.4746  0.4003
 2652TIP3    H229372   4.418   0.336   3.743 -1.0739  2.2915 -0.1622
 2653TIP3   OH229373   4.452   3.899  12.773  0.6942 -0.2389  0.0571
 2653TIP3    H129374   4.458   3.928  12.865  3.6288 -0.3174 -0.0172
 2653TIP3    H229375   4.542   3.902  12.741 -0.2106 -0.4512 -2.7941
 2654TIP3   OH229376   3.594   1.512   5.701  0.0453  0.2729  0.5140
 2654TIP3    H129377   3.541   1.590   5.712 -0.4684  0.0042  0.0033
 2654TIP3    H229378   3.664   1.538   5.640 -0.4278  0.2014 -0.0727
 2655TIP3   OH229379   5.840   2.968  16.154  0.3592  0.8156 -0.1847
 2655TIP3    H129380   5.896   2.893  16.172  0.5760  1.1498  0.6341
 2655TIP3    H229381   5.812   2.957  16.064  1.4326  0.4316 -0.4910
 2656TIP3   OH229382   4.314   4.737   3.634  0.3493 -0.3401  0.3991
 2656TIP3    H129383   4.255   4.662   3.630 -1.3908  1.0154 -1.5122
 2656TIP3    H229384   4.374   4.724   3.560 -0.4484  0.5036 -0.4100
 2657TIP3   OH229385   2.545   1.196   3.472  0.1123 -0.2531  0.0235
 2657TIP3    H129386   2.617   1.248   3.436  0.3400 -0.5284  0.0716
 2657TIP3    H229387   2.547   1.215   3.566 -0.7839  0.8326 -0.1545
 2658TIP3   OH229388   3.496   4.853  15.819  0.3795 -0.4239  0.6446
 2658TIP3    H129389   3.578   4.837  15.866  0.6373 -0.7044  0.1047
 2658TIP3    H229390   3.501   4.798  15.742  0.2199  0.4643 -0.0137
 2659TIP3   OH229391   5.113   4.385   2.742  0.1862 -0.0192  0.2723
 2659TIP3    H129392   5.080   4.331   2.669 -0.8386  1.3865 -0.3452
 2659TIP3    H229393   5.037   4.395   2.800  0.4379  0.5366  0.5075
 2660TIP3   OH229394   2.425   4.232   4.517 -0.8471  0.1819 -0.2515
 2660TIP3    H129395   2.452   4.323   4.528 -0.4916  0.1015 -0.4371
 2660TIP3    H229396   2.333   4.230   4.546 -0.7871  0.5490 -0.0359
 2661TIP3   OH229397   4.495   5.555  16.762 -0.2376 -0.0318 -0.3319
 2661TIP3    H129398   4.408   5.539  16.799  0.2459  0.3261  1.0343
 2661TIP3    H229399   4.550   5.487  16.800  0.3785  0.6510  0.0417
 2662TIP3   OH229400   0.138   3.408  14.064  0.4931  0.2802 -0.2545
 2662TIP3    H129401   0.216   3.436  14.113  1.7819 -1.9415 -0.8852
 2662TIP3    H229402   0.109   3.487  14.019  1.8133  1.3900  0.7390
 2663TIP3   OH229403   5.717   4.015   2.598  0.1534  0.3798  0.1213
 2663TIP3    H129404   5.631   4.002   2.558  1.1820 -1.1768 -1.7493
 2663TIP3    H229405   5.776   3.957   2.549  2.5534  2.3674  0.4213
 2664TIP3   OH229406   2.777   4.266   4.346 -0.2638  0.7055 -0.4080
 2664TIP3    H129407   2.842   4.335   4.339  2.8644 -2.0873 -1.3071
 2664TIP3    H229408   2.757   4.242   4.255 -1.6195  0.6084 -0.1155
 2665TIP3   OH229409   1.707   0.296  12.612 -0.0905  0.2448  0.4250
 2665TIP3    H129410   1.769   0.243  12.560 -0.1068 -0.5651  1.2048
 2665TIP3    H229411   1.631   0.239  12.622 -0.2945  0.6030  0.8870
 2666TIP3   OH229412   3.538   6.504   2.307 -0.5018 -1.0432 -0.6824
 2666TIP3    H129413   3.616   6.466   2.346 -0.5672 -0.3804  0.1438
 2666TIP3    H229414   3.474   6.507   2.379 -0.2130  1.3752 -0.4228
 2667TIP3   OH229415   4.010   2.440   4.125  0.2317  0.1690  0.3403
 2667TIP3    H129416   3.958   2.404   4.196  1.7507 -1.8995  0.4823
 2667TIP3    H229417   3.948   2.453   4.054 -1.0235  0.8076  1.5008
 2668TIP3   OH229418   2.945   1.125  16.640 -0.1137  0.2701 -0.7171
 2668TIP3    H129419   2.964   1.100  16.731 -0.8477  2.0129 -0.0457
 2668TIP3    H229420   2.850   1.121  16.633 -0.2816  2.6570 -0.5736
 2669TIP3   OH229421   6.055   0.838   2.461 -0.4031 -0.7754 -0.2949
 2669TIP3    H129422   6.057   0.933   2.463 -0.3781 -0.7687 -0.6134
 2669TIP3    H229423   6.147   0.812   2.456 -0.4320 -0.8053 -0.6722
 2670TIP3   OH229424   4.561   2.646  12.109  0.1284 -0.1131 -0.6092
 2670TIP3    H129425   4.491   2.598  12.154 -0.3818  1.4636  0.3408
 2670TIP3    H229426   4.629   2.657  12.174  0.7004 -0.4549 -1.1388
 2671TIP3   OH229427   5.272   1.990  14.358  0.4788  0.6515  0.1479
 2671TIP3    H129428   5.350   1.960  14.406 -0.6230  1.0726  2.3295
 2671TIP3    H229429   5.243   1.913  14.309  1.3799  0.0286  0.5562
 2672TIP3   OH229430   2.146   3.204   1.084 -0.5128 -0.6146  0.3375
 2672TIP3    H129431   2.101   3.283   1.054 -1.0442 -1.5143 -1.3411
 2672TIP3    H229432   2.239   3.222   1.068 -0.5339  0.0128  0.8537
 2673TIP3   OH229433   1.718   6.547  15.608  0.0946 -0.9113 -0.3399
 2673TIP3    H129434   1.789   6.607  15.585  0.0866 -0.1803  1.4220
 2673TIP3    H229435   1.722   6.479  15.540  0.0659  1.0465 -2.4050
 2674TIP3   OH229436   2.156   5.896   4.637 -0.0446  0.2331  0.1068
 2674TIP3    H129437   2.068   5.863   4.653 -0.0049 -1.5302 -2.6525
 2674TIP3    H229438   2.144   5.961   4.567  0.9234 -1.3461 -1.6359
 2675TIP3   OH229439   6.061   2.993   2.494 -0.2679 -0.1776 -0.3460
 2675TIP3    H129440   5.976   3.037   2.487 -1.4936 -2.3761 -0.1098
 2675TIP3    H229441   6.079   2.991   2.588  1.0551  1.9409 -0.4687
 2676TIP3   OH229442   2.404   1.640   0.990  0.1815 -0.5299  0.4494
 2676TIP3    H129443   2.406   1.735   0.978  0.1927 -0.6516 -0.6510
 2676TIP3    H229444   2.324   1.624   1.040 -0.7246 -0.0612 -0.7736
 2677TIP3   OH229445   5.216   2.800  12.029 -0.1285 -0.8435 -0.0183
 2677TIP3    H129446   5.160   2.878  12.036 -0.5175 -1.0597 -0.6914
 2677TIP3    H229447   5.159   2.727  12.053  0.2295 -0.9304  0.5827
 2678TIP3   OH229448   6.008   6.057  16.970 -0.5033 -0.2477  0.5004
 2678TIP3    H129449   6.016   6.029  16.879  0.8944  0.9246  0.2241
 2678TIP3    H229450   6.082   6.017  17.014  0.0545  0.8905  0.6377
 2679TIP3   OH229451   1.239   0.613  13.558  0.2663  0.2691 -0.3945
 2679TIP3    H129452   1.305   0.673  13.591  0.8843 -0.8665  0.4967
 2679TIP3    H229453   1.158   0.641  13.599  0.7268 -0.0777  0.8031
 2680TIP3   OH229454   1.371   1.067   2.313  0.0785 -0.2968 -0.0083
 2680TIP3    H129455   1.388   1.144   2.258  2.4044 -1.0812 -0.5164
 2680TIP3    H229456   1.389   1.097   2.402 -0.6841  0.1838 -0.0141
 2681TIP3   OH229457   0.921   0.922  12.724  0.2716 -0.4136 -0.2550
 2681TIP3    H129458   0.970   0.969  12.791 -1.5790 -1.3878  1.9148
 2681TIP3    H229459   0.956   0.833  12.727 -1.6297 -1.1549  1.4180
 2682TIP3   OH229460   0.575   2.208  16.371  0.4604 -0.4582  0.3389
 2682TIP3    H129461   0.492   2.252  16.351  0.3849 -0.3068  0.9396
 2682TIP3    H229462   0.592   2.231  16.463  1.0975 -0.6033  0.2627
 2683TIP3   OH229463   1.689   0.124  14.458 -0.5336  0.0847 -0.1541
 2683TIP3    H129464   1.778   0.099  14.486  0.4433  2.2106 -1.1107
 2683TIP3    H229465   1.641   0.041  14.454  2.0602 -1.4860 -1.9062
 2684TIP3   OH229466   3.976   0.420  15.184 -0.3443  0.2470 -0.0776
 2684TIP3    H129467   4.014   0.508  15.190  0.7717 -0.0525 -1.9013
 2684TIP3    H229468   3.906   0.428  15.120 -0.3311 -0.1532 -0.1455
 2685TIP3   OH229469   2.052   1.804   0.135  0.0572 -0.1186 -0.1603
 2685TIP3    H129470   2.034   1.791   0.042  1.4831 -2.6089 -0.1759
 2685TIP3    H229471   1.966   1.811   0.176 -0.5940  1.8291 -1.6936
 2686TIP3   OH229472   0.948   5.686   0.832 -0.4119  0.0391  0.2385
 2686TIP3    H129473   0.902   5.667   0.913  1.0951 -1.4540  0.8097
 2686TIP3    H229474   0.970   5.599   0.796  1.0721  0.6727 -0.4881
 2687TIP3   OH229475   2.063   5.908  15.975  0.2209 -0.4627 -0.4430
 2687TIP3    H129476   2.131   5.882  15.913 -1.2994 -0.7628 -2.0597
 2687TIP3    H229477   2.011   5.973  15.928 -0.7522 -0.4028  0.6658
 2688TIP3   OH229478   6.246   5.387   5.465  0.1618  0.0889 -0.0179
 2688TIP3    H129479   6.195   5.403   5.545  1.1526  3.2012  0.1341
 2688TIP3    H229480   6.335   5.372   5.496  0.5355  1.2305 -0.4749
 2689TIP3   OH229481   3.599   2.763  17.085  0.3062  0.1705 -0.1153
 2689TIP3    H129482   3.504   2.777  17.082  0.5064  1.7134  0.1543
 2689TIP3    H229483   3.617   2.738  17.176  0.1731 -0.1134 -0.1640
 2690TIP3   OH229484   0.509   2.241  14.306  0.0945  0.4188  0.2738
 2690TIP3    H129485   0.527   2.219  14.215 -0.3026  0.6038  0.1524
 2690TIP3    H229486   0.533   2.333  14.315 -1.2149  0.8120 -0.0136
 2691TIP3   OH229487   4.833   3.625  10.712 -0.0931 -0.1810  0.7624
 2691TIP3    H129488   4.806   3.715  10.724 -0.2002 -0.0015 -0.6980
 2691TIP3    H229489   4.754   3.579  10.686  0.4522 -0.1373 -1.1239
 2692TIP3   OH229490   3.425   0.504   0.583  0.4389 -0.2404  0.2371
 2692TIP3    H129491   3.504   0.544   0.618  0.3826  0.6138 -0.5606
 2692TIP3    H229492   3.455   0.425   0.538  0.6140 -0.8463  1.3922
 2693TIP3   OH229493   6.689   4.937  13.143 -0.0516  0.5084 -0.3879
 2693TIP3    H129494   6.760   4.920  13.206 -0.2104  1.4908  0.0732
 2693TIP3    H229495   6.693   4.863  13.082  0.6402 -0.0377  0.2915
 2694TIP3   OH229496   4.815   3.845   5.315  0.2409 -0.3708  0.4934
 2694TIP3    H129497   4.869   3.912   5.358  0.0626 -1.3598  2.3378
 2694TIP3    H229498   4.726   3.864   5.344 -0.1277 -0.0857 -0.7696
 2695TIP3   OH229499   6.693   3.607   2.365  0.0606  0.3007 -0.2127
 2695TIP3    H129500   6.657   3.566   2.287  2.1806  0.4381 -1.3389
 2695TIP3    H229501   6.731   3.535   2.415 -0.8056  0.2844  0.4561
 2696TIP3   OH229502   1.892   3.317  11.430 -0.3221 -0.2138 -0.1422
 2696TIP3    H129503   1.865   3.393  11.482  0.6941 -0.3637  0.6358
 2696TIP3    H229504   1.812   3.289  11.385 -1.2921 -0.2274  1.5105
 2697TIP3   OH229505   0.800   6.178   2.037 -0.3284  0.1315  0.0608
 2697TIP3    H129506   0.764   6.095   2.068 -0.8801 -0.1361 -1.2597
 2697TIP3    H229507   0.881   6.189   2.088  0.6811 -2.0932 -0.9151
 2698TIP3   OH229508   1.689   6.508  16.768  0.0060  0.2949 -0.1669
 2698TIP3    H129509   1.628   6.476  16.702  0.4627  1.0960 -1.0027
 2698TIP3    H229510   1.637   6.513  16.849 -0.9325  0.5804 -0.7686
 2699TIP3   OH229511   5.243   4.850  10.746 -0.6140  0.0958  0.5761
 2699TIP3    H129512   5.211   4.930  10.704 -0.9393 -0.8360 -1.0137
 2699TIP3    H229513   5.241   4.784  10.678  1.9648 -0.7422  1.1880
 2700TIP3   OH229514   5.276   1.003   3.940 -0.1264 -0.1677 -0.1922
 2700TIP3    H129515   5.238   0.918   3.919 -1.3370  0.4836 -0.7398
 2700TIP3    H229516   5.213   1.067   3.905  1.2235  0.9600 -0.6667
 2701TIP3   OH229517   4.558   5.096  13.217  0.2458  0.1472  0.2892
 2701TIP3    H129518   4.526   5.148  13.143 -1.5885 -0.4393  0.6086
 2701TIP3    H229519   4.593   5.016  13.177  0.9185  0.6081 -0.0503
 2702TIP3   OH229520   2.649   0.596   4.021 -0.3054  0.1573 -0.4250
 2702TIP3    H129521   2.698   0.629   4.096 -1.6650  2.5607 -0.5128
 2702TIP3    H229522   2.716   0.559   3.963  0.8035 -1.4627  1.7329
 2703TIP3   OH229523   4.314   3.524  12.564  0.0476 -0.0243 -0.4332
 2703TIP3    H129524   4.344   3.470  12.637 -0.2917  0.0306 -0.2513
 2703TIP3    H229525   4.375   3.504  12.493  1.7572  1.5457  0.4825
 2704TIP3   OH229526   5.915   5.960   4.732  0.1257 -0.3834  0.1778
 2704TIP3    H129527   5.839   5.910   4.762 -0.0072  0.0549  0.5894
 2704TIP3    H229528   5.970   5.896   4.687 -0.1439 -0.8529  0.5060
 2705TIP3   OH229529   0.684   4.612  15.945 -0.2289 -0.0770  0.1904
 2705TIP3    H129530   0.695   4.569  15.860 -0.5849 -0.3713  0.2908
 2705TIP3    H229531   0.613   4.565  15.987 -1.2307  1.1537 -0.0481
 2706TIP3   OH229532   5.792   6.270  14.855  0.5054  0.4444  0.1859
 2706TIP3    H129533   5.722   6.230  14.907 -0.8424 -0.9348 -2.4876
 2706TIP3    H229534   5.798   6.360  14.887 -0.1112 -0.3542  2.7683
 2707TIP3   OH229535   3.648   2.033  13.010 -0.7200  0.0476  0.0431
 2707TIP3    H129536   3.642   2.100  13.079  0.1819 -0.3025  0.4943
 2707TIP3    H229537   3.571   1.978  13.023 -0.2580 -0.3693  1.1901
 2708TIP3   OH229538   5.941   2.536   4.665  0.0828  0.4118 -0.0424
 2708TIP3    H129539   6.027   2.537   4.625 -0.4435  1.3730 -1.2140
 2708TIP3    H229540   5.950   2.587   4.745  1.2096 -1.7376  1.3034
 2709TIP3   OH229541   5.281   6.108   0.945  0.2197 -0.1981  0.1168
 2709TIP3    H129542   5.240   6.175   0.890 -0.6164 -0.5252  0.3363
 2709TIP3    H229543   5.340   6.157   1.003  1.3854  0.1291 -1.2787
 2710TIP3   OH229544   0.541   0.488  11.815 -0.5741 -0.4078  0.7578
 2710TIP3    H129545   0.449   0.472  11.792 -1.0074  0.4397  1.8180
 2710TIP3    H229546   0.537   0.536  11.898  0.6305  3.5629 -1.2163
 2711TIP3   OH229547   0.347   6.137   4.788 -0.0539  0.1783  0.4153
 2711TIP3    H129548   0.304   6.156   4.705  2.6638  0.2386 -1.0933
 2711TIP3    H229549   0.433   6.177   4.780  0.7832 -0.9605  2.7501
 2712TIP3   OH229550   2.978   1.465   4.681  0.9195 -0.3954 -0.2499
 2712TIP3    H129551   2.937   1.388   4.641  0.1653  0.9931 -2.3082
 2712TIP3    H229552   3.056   1.481   4.628  1.7005 -0.3628  0.8710
 2713TIP3   OH229553   4.617   3.307   0.467 -0.3479 -0.0570  0.1511
 2713TIP3    H129554   4.641   3.328   0.377  0.1568 -1.8334 -0.1775
 2713TIP3    H229555   4.696   3.327   0.518 -0.4110  0.3281  0.0983
 2714TIP3   OH229556   3.311   4.770  11.558 -0.1233 -0.1382 -0.0038
 2714TIP3    H129557   3.311   4.862  11.582 -2.3234  0.1002 -0.6508
 2714TIP3    H229558   3.360   4.766  11.476 -0.4327  0.5514 -0.2274
 2715TIP3   OH229559   4.114   2.541   1.839 -0.2343 -0.1817  0.5218
 2715TIP3    H129560   4.146   2.466   1.788  1.1216  1.4107 -1.0814
 2715TIP3    H229561   4.110   2.509   1.929  0.9255 -1.9846 -0.0227
 2716TIP3   OH229562   4.280   3.879   5.407 -0.0195 -0.3110  0.3219
 2716TIP3    H129563   4.196   3.886   5.361  1.2751 -0.8972 -2.3679
 2716TIP3    H229564   4.287   3.787   5.431  0.1798 -0.4236 -0.1593
 2717TIP3   OH229565   2.559   4.209   3.324  0.2500  0.0110 -0.7231
 2717TIP3    H129566   2.572   4.226   3.231  0.9997 -0.8347 -0.7863
 2717TIP3    H229567   2.638   4.164   3.352  0.1181  0.4238  0.3785
 2718TIP3   OH229568   5.741   5.845  16.802 -0.3784 -0.2374  0.4357
 2718TIP3    H129569   5.669   5.812  16.748 -0.7628 -0.8392  1.2851
 2718TIP3    H229570   5.808   5.778  16.795 -0.5088 -0.4190  0.8464
 2719TIP3   OH229571   0.255   2.098  13.114 -0.1354  0.3702 -0.1340
 2719TIP3    H129572   0.273   2.163  13.047 -0.5256 -0.3958 -1.0003
 2719TIP3    H229573   0.160   2.093  13.120 -0.1519 -1.0621 -1.0548
 2720TIP3   OH229574   5.494   2.955  16.562 -0.3249 -0.2635 -0.6245
 2720TIP3    H129575   5.516   2.899  16.637 -0.1262 -0.3453 -0.7414
 2720TIP3    H229576   5.403   2.980  16.576  0.1978  1.1142  0.5330
 2721TIP3   OH229577   4.477   4.212  15.375 -0.4038 -0.5699 -0.2725
 2721TIP3    H129578   4.503   4.178  15.461 -0.1488 -1.4335 -0.6812
 2721TIP3    H229579   4.552   4.197  15.319 -1.2597 -1.8512 -1.1295
 2722TIP3   OH229580   2.215   4.593   5.034  1.0622  0.5394 -0.1339
 2722TIP3    H129581   2.175   4.678   5.016  0.6348  0.3431 -0.1131
 2722TIP3    H229582   2.215   4.548   4.949  2.2451  0.9485 -0.3822
 2723TIP3   OH229583   6.635   3.698   5.220  0.0167  0.2125  0.4641
 2723TIP3    H129584   6.578   3.770   5.190 -0.1818  0.8317  2.2231
 2723TIP3    H229585   6.713   3.742   5.252 -0.3757 -0.2862  2.1770
 2724TIP3   OH229586   1.445   2.755   1.854 -0.3110 -0.2745 -0.0245
 2724TIP3    H129587   1.382   2.684   1.843  0.1088 -0.8110  0.8649
 2724TIP3    H229588   1.507   2.744   1.782 -0.7846 -0.2207 -0.4449
 2725TIP3   OH229589   5.669   0.875   1.874  0.7801 -0.3661 -0.1132
 2725TIP3    H129590   5.734   0.836   1.817 -1.1571 -3.2607 -0.5559
 2725TIP3    H229591   5.586   0.865   1.827 -0.1841  2.2870  0.8381
 2726TIP3   OH229592   6.415   1.910   4.881  0.2351  0.5933  0.2678
 2726TIP3    H129593   6.423   1.974   4.951 -0.6811 -1.1524  2.0484
 2726TIP3    H229594   6.504   1.900   4.847  0.7251  1.3198  1.3093
 2727TIP3   OH229595   1.331   3.057   5.846  0.4260 -0.1627  0.2518
 2727TIP3    H129596   1.284   3.093   5.921  1.7849 -0.8974  1.5022
 2727TIP3    H229597   1.411   3.109   5.840  0.4634 -0.2872 -0.5385
 2728TIP3   OH229598   5.053   2.783   2.102  0.0142 -0.6997  0.0545
 2728TIP3    H129599   5.146   2.781   2.127 -0.0569 -1.2394  0.2975
 2728TIP3    H229600   5.025   2.873   2.120  0.4547 -0.5718  0.1145
 2729TIP3   OH229601   5.827   0.372  16.290 -0.0102  0.2338  0.2752
 2729TIP3    H129602   5.773   0.366  16.211 -0.6750 -0.9810  0.7952
 2729TIP3    H229603   5.848   0.281  16.312  1.4286  0.6264  0.6633
 2730TIP3   OH229604   5.586   2.025  14.562 -0.2088 -0.2078 -0.0113
 2730TIP3    H129605   5.598   2.110  14.520  0.3005 -0.2237  0.0975
 2730TIP3    H229606   5.675   1.992  14.575 -0.4092 -1.3912 -1.3515
 2731TIP3   OH229607   3.053   4.532  16.994 -0.5910  0.4191  0.3859
 2731TIP3    H129608   2.981   4.566  17.047  0.5462  0.2773  2.1235
 2731TIP3    H229609   3.066   4.598  16.926 -2.1265  0.5983  0.2326
 2732TIP3   OH229610   4.373   2.987  15.733  0.0886 -0.6195  0.3831
 2732TIP3    H129611   4.468   2.977  15.722  0.2283 -2.0143  2.1985
 2732TIP3    H229612   4.364   3.030  15.818 -0.8921 -1.5188  0.7599
 2733TIP3   OH229613   1.605   1.839  15.555  0.1121 -0.0852  0.4291
 2733TIP3    H129614   1.619   1.762  15.611 -1.8153 -1.2956 -0.6322
 2733TIP3    H229615   1.562   1.902  15.612 -1.8536 -1.3105  0.3847
 2734TIP3   OH229616   4.591   1.023   4.774  0.1914  0.5435  0.1554
 2734TIP3    H129617   4.603   1.094   4.836  2.3325  0.2994  0.0950
 2734TIP3    H229618   4.625   1.057   4.691 -1.5580  0.4598 -0.6497
 2735TIP3   OH229619   1.816   3.302  14.953  0.1118 -0.4611 -0.5127
 2735TIP3    H129620   1.884   3.302  15.019 -0.4561 -1.0374  0.0804
 2735TIP3    H229621   1.856   3.346  14.877  0.8796 -0.1216  0.0773
 2736TIP3   OH229622   2.124   3.756  12.960 -0.4236  0.1837  0.2597
 2736TIP3    H129623   2.130   3.718  12.872 -0.6047 -0.0631  0.3523
 2736TIP3    H229624   2.071   3.693  13.010 -0.7238  0.5544  0.4143
 2737TIP3   OH229625   2.233   3.554   1.646  0.0774 -0.3843 -0.5221
 2737TIP3    H129626   2.150   3.568   1.601 -0.6757 -0.5272  0.7747
 2737TIP3    H229627   2.288   3.509   1.582 -0.8035 -0.1741 -1.4389
 2738TIP3   OH229628   0.446   0.106   5.346 -0.5344 -0.1504  0.3946
 2738TIP3    H129629   0.356   0.097   5.315 -0.4874  0.9450 -0.1332
 2738TIP3    H229630   0.493   0.033   5.305 -0.6964  0.6570 -1.3169
 2739TIP3   OH229631   6.295   3.770  17.275 -0.5138  0.7155 -0.2217
 2739TIP3    H129632   6.222   3.715  17.247  0.9193 -1.1064 -0.6363
 2739TIP3    H229633   6.290   3.771  17.370  0.0332 -1.1039 -0.1366
 2740TIP3   OH229634   2.332   1.826  12.530 -0.0469  0.3467  0.4841
 2740TIP3    H129635   2.348   1.865  12.444  0.6096  0.5700  0.6947
 2740TIP3    H229636   2.241   1.845  12.550  0.0434  1.0654  0.2229
 2741TIP3   OH229637   2.151   2.192  10.768  0.0012 -0.5922  0.0914
 2741TIP3    H129638   2.168   2.120  10.828  1.0142 -0.4797 -0.0292
 2741TIP3    H229639   2.144   2.151  10.682 -1.2933 -0.7369  0.2565
 2742TIP3   OH229640   2.171   5.827  13.030  0.0727  0.1795 -0.2302
 2742TIP3    H129641   2.182   5.907  12.978  1.7415 -0.1480 -0.4496
 2742TIP3    H229642   2.150   5.760  12.965 -1.3820  0.4231 -0.0402
 2743TIP3   OH229643   4.404   1.134  14.854 -0.1487 -0.2530  0.3737
 2743TIP3    H129644   4.445   1.163  14.772 -0.5583  1.0268  0.5940
 2743TIP3    H229645   4.310   1.133  14.834 -0.2115 -0.4555  0.6791
 2744TIP3   OH229646   3.163   2.096  17.166 -0.8253  0.1029  0.3070
 2744TIP3    H129647   3.142   2.156  17.095 -0.4172 -1.3631 -1.0913
 2744TIP3    H229648   3.091   2.032  17.166  1.0575 -2.1452 -1.3659
 2745TIP3   OH229649   2.236   2.414  13.112 -0.0441 -0.0833  0.2835
 2745TIP3    H129650   2.176   2.488  13.099 -0.5024 -0.7547 -1.9976
 2745TIP3    H229651   2.314   2.452  13.152  0.3663  2.0042 -2.1975
 2746TIP3   OH229652   4.657   5.744   1.841  0.1823 -0.2174  0.1823
 2746TIP3    H129653   4.692   5.813   1.785  0.6140 -0.6270 -0.0653
 2746TIP3    H229654   4.576   5.780   1.877  1.0094  0.8823  1.0244
 2747TIP3   OH229655   5.595   4.622   1.088  0.6362 -0.1583  0.3260
 2747TIP3    H129656   5.630   4.701   1.128 -0.6258  0.2684  0.6126
 2747TIP3    H229657   5.651   4.608   1.011 -0.6310  2.4752 -1.2232
 2748TIP3   OH229658   0.061   1.390   4.536 -0.0629 -0.1385 -0.4197
 2748TIP3    H129659  -0.032   1.399   4.556 -0.0933 -1.1396 -0.0916
 2748TIP3    H229660   0.088   1.309   4.578  1.5953  1.4191  1.7621
 2749TIP3   OH229661   0.227   0.426  11.769 -0.9642 -0.0917 -0.1342
 2749TIP3    H129662   0.188   0.344  11.799 -2.7803  1.0683  0.8523
 2749TIP3    H229663   0.202   0.431  11.677 -0.1827 -0.9701 -0.4178
 2750TIP3   OH229664   2.959   5.102  13.938 -0.0955  0.1094 -0.4684
 2750TIP3    H129665   2.993   5.079  14.025  0.7391  0.2352 -0.7499
 2750TIP3    H229666   2.982   5.027  13.883 -0.5511  0.0671 -0.5989
 2751TIP3   OH229667   3.786   0.318   4.778  0.9187 -0.1258 -0.1842
 2751TIP3    H129668   3.787   0.300   4.684  1.6652 -1.3811  0.0308
 2751TIP3    H229669   3.707   0.275   4.810  0.3828  0.7624 -0.3190
 2752TIP3   OH229670   2.840   0.908  15.001  0.0898 -0.0561 -0.1199
 2752TIP3    H129671   2.908   0.967  14.969 -0.2966 -0.0785 -1.0292
 2752TIP3    H229672   2.795   0.958  15.069  1.2386 -0.1816  0.7534
 2753TIP3   OH229673   4.869   6.216   3.433 -0.6666 -0.4262 -0.2922
 2753TIP3    H129674   4.885   6.284   3.499  1.1165 -0.7841 -0.3058
 2753TIP3    H229675   4.778   6.230   3.407 -0.9280  0.7528  1.0613
 2754TIP3   OH229676   2.743   1.957  15.604 -0.3478 -0.5970  0.2280
 2754TIP3    H129677   2.815   2.017  15.585  0.0006 -1.0563  0.0889
 2754TIP3    H229678   2.734   1.958  15.699  0.2144 -0.9706  0.2866
 2755TIP3   OH229679   5.169   4.495   5.482 -0.2578  0.3278  0.1898
 2755TIP3    H129680   5.192   4.559   5.550  2.4174 -0.6583  0.3291
 2755TIP3    H229681   5.185   4.541   5.400 -1.5449  0.8520  0.1988
 2756TIP3   OH229682   1.856   4.276  11.466  0.5772 -0.5811  0.0234
 2756TIP3    H129683   1.824   4.186  11.456  1.3044 -0.8089 -0.3182
 2756TIP3    H229684   1.919   4.271  11.538 -0.1107 -0.1432  0.6714
 2757TIP3   OH229685   2.560   4.624   6.344 -0.6358  0.7053  0.2658
 2757TIP3    H129686   2.580   4.679   6.268  2.5265 -0.8983 -0.2317
 2757TIP3    H229687   2.633   4.639   6.404 -2.0025  0.3384  2.1013
 2758TIP3   OH229688   0.408   5.611   0.472  0.5045  1.1002  0.4765
 2758TIP3    H129689   0.314   5.614   0.485  0.5893  1.3197  1.0628
 2758TIP3    H229690   0.430   5.697   0.437  0.3497  0.6907 -0.6726
 2759TIP3   OH229691   0.343   0.079  13.642 -0.0560 -0.1898 -0.0724
 2759TIP3    H129692   0.267   0.118  13.685 -0.3006 -1.6214  0.8434
 2759TIP3    H229693   0.317   0.070  13.550  0.0709  1.8842 -0.3648
 2760TIP3   OH229694   4.699   5.854   2.709  0.2344 -0.1951 -0.1192
 2760TIP3    H129695   4.624   5.832   2.655  0.2777 -0.1244 -0.2080
 2760TIP3    H229696   4.672   5.932   2.759  0.0253 -0.5416  0.3112
 2761TIP3   OH229697   1.214   4.651   4.990 -0.3078 -0.2747 -0.8372
 2761TIP3    H129698   1.144   4.663   5.055 -1.7107  1.3824 -2.5356
 2761TIP3    H229699   1.293   4.637   5.042 -1.5789 -0.3976  1.1852
 2762TIP3   OH229700   4.142   0.459   2.659 -0.6984  0.0769 -0.0547
 2762TIP3    H129701   4.119   0.537   2.608  2.1374  0.8703 -0.2731
 2762TIP3    H229702   4.145   0.490   2.749 -1.3201 -0.2320  0.0738
 2763TIP3   OH229703   5.585   2.207   3.943 -0.3815  0.6756 -0.4686
 2763TIP3    H129704   5.591   2.173   3.854 -0.0984 -0.5777  0.0111
 2763TIP3    H229705   5.492   2.201   3.965 -0.6460  2.1201 -1.0874
 2764TIP3   OH229706   1.529   2.100  16.182  0.0547 -0.6512  0.1155
 2764TIP3    H129707   1.555   2.161  16.251 -1.5706 -0.1498  0.3207
 2764TIP3    H229708   1.596   2.030  16.186  2.1994  1.2460 -0.4074
 2765TIP3   OH229709   1.571   0.322  11.588  0.4536 -0.3438  0.2455
 2765TIP3    H129710   1.600   0.235  11.616  3.2048  0.4501  0.2103
 2765TIP3    H229711   1.652   0.368  11.566 -1.0798  1.4672 -2.0740
 2766TIP3   OH229712   5.201   2.833   3.162 -0.1542  0.3470  0.0685
 2766TIP3    H129713   5.162   2.904   3.111 -0.8093 -1.1102 -1.5455
 2766TIP3    H229714   5.296   2.846   3.152 -0.2742  0.4610 -1.0120
 2767TIP3   OH229715   3.882   1.238  15.244  0.0798  0.4723  0.2780
 2767TIP3    H129716   3.923   1.279  15.320  1.7633  0.2751 -0.4916
 2767TIP3    H229717   3.801   1.200  15.278  0.2330  1.3827  1.7228
 2768TIP3   OH229718   2.352   3.992  15.463 -0.8671 -0.2580  0.0731
 2768TIP3    H129719   2.444   4.005  15.483 -0.3942 -0.0333 -2.0742
 2768TIP3    H229720   2.307   4.061  15.512  0.2500  0.6167 -0.0921
 2769TIP3   OH229721   0.063   6.570  16.834  0.2154  0.2102 -0.0863
 2769TIP3    H129722   0.013   6.595  16.756 -0.9062 -1.0106  0.2054
 2769TIP3    H229723   0.121   6.644  16.850  0.1699  0.6604 -1.8307
 2770TIP3   OH229724   2.078   4.274  17.229 -0.1359 -0.0373 -0.2095
 2770TIP3    H129725   2.003   4.245  17.280  0.0363 -0.5309 -0.2279
 2770TIP3    H229726   2.092   4.365  17.254  0.2976 -0.4320  1.0429
 2771TIP3   OH229727   1.483   6.217   2.359 -0.2825  0.3719 -0.3189
 2771TIP3    H129728   1.485   6.289   2.423 -2.7936  1.5497 -1.4055
 2771TIP3    H229729   1.542   6.245   2.290 -1.6076  1.7410 -0.9669
 2772TIP3   OH229730   0.293   4.943  12.000  0.6761  0.2654 -0.5612
 2772TIP3    H129731   0.334   5.021  11.964  0.6682  1.4304  1.7449
 2772TIP3    H229732   0.299   4.954  12.095  1.2207 -2.8380 -0.1101
 2773TIP3   OH229733   4.546   0.572   0.408 -0.2988  0.2381  0.5889
 2773TIP3    H129734   4.560   0.509   0.479  2.8339  1.3584  1.1683
 2773TIP3    H229735   4.544   0.657   0.452 -1.1602  0.7671 -0.4424
 2774TIP3   OH229736   1.856   4.843   0.559 -0.1771 -0.2312  0.2739
 2774TIP3    H129737   1.896   4.921   0.522 -0.9535 -0.9644 -2.2557
 2774TIP3    H229738   1.864   4.855   0.654  1.4345  1.9820 -0.0713
 2775TIP3   OH229739   2.322   3.034   4.441 -0.8676  0.1422 -0.3798
 2775TIP3    H129740   2.386   3.071   4.502 -0.0159 -2.2970  0.3248
 2775TIP3    H229741   2.254   2.996   4.498 -0.4003 -1.5692 -0.9039
 2776TIP3   OH229742   2.621   5.918   2.858  1.2545  0.1953  0.5500
 2776TIP3    H129743   2.706   5.960   2.861  0.8192  1.0409  2.6944
 2776TIP3    H229744   2.558   5.990   2.856  0.5522 -0.4169 -0.4374
 2777TIP3   OH229745   3.605   5.089   4.476  0.3081 -0.3034  0.3490
 2777TIP3    H129746   3.593   5.182   4.460 -1.0503 -0.1884  1.8041
 2777TIP3    H229747   3.679   5.084   4.537  2.4604 -0.4433 -2.1287
 2778TIP3   OH229748   4.738   5.112   4.470 -0.0146  0.5931 -0.0793
 2778TIP3    H129749   4.803   5.138   4.405  1.1237  1.3611  1.3104
 2778TIP3    H229750   4.753   5.170   4.545 -1.0804 -0.4493  1.0053
 2779TIP3   OH229751   0.619   3.765   1.867  0.0253 -0.4047  0.1577
 2779TIP3    H129752   0.564   3.843   1.859 -1.2224 -1.3063 -0.3432
 2779TIP3    H229753   0.650   3.748   1.778  0.2513 -0.5135  0.2551
 2780TIP3   OH229754   2.460   5.148  12.501  0.3830 -0.2104  0.0576
 2780TIP3    H129755   2.415   5.104  12.429  0.4715  1.0431 -0.8040
 2780TIP3    H229756   2.391   5.198  12.545  0.4389 -0.5011  0.4825
 2781TIP3   OH229757   2.354   4.842   1.644 -0.3796  0.2951 -0.2642
 2781TIP3    H129758   2.424   4.792   1.603 -0.7958  0.3525 -1.0627
 2781TIP3    H229759   2.284   4.779   1.657 -0.1389  0.2060  0.6601
 2782TIP3   OH229760   2.407   4.225   0.548 -0.0666  0.3650 -0.2768
 2782TIP3    H129761   2.401   4.231   0.453 -0.2742 -1.6828 -0.4247
 2782TIP3    H229762   2.379   4.136   0.569  1.3066  0.3190  1.5935
 2783TIP3   OH229763   0.056   1.590  11.096 -0.6373  0.0756 -0.1043
 2783TIP3    H129764  -0.001   1.526  11.053 -0.8557 -0.0841  0.4121
 2783TIP3    H229765   0.112   1.538  11.153 -1.5657  0.4113  1.1631
 2784TIP3   OH229766   0.340   1.522  13.061 -0.0871  0.5946 -0.2195
 2784TIP3    H129767   0.320   1.562  13.145  1.0421 -1.6177  1.2030
 2784TIP3    H229768   0.432   1.543  13.045 -0.3440  1.1551 -1.0094
 2785TIP3   OH229769   3.235   3.092  12.932 -0.0433 -0.0827 -0.0966
 2785TIP3    H129770   3.246   3.074  13.025 -1.7569  0.6279  0.2686
 2785TIP3    H229771   3.319   3.068  12.893  0.1508 -2.0127  1.3703
 2786TIP3   OH229772   6.735   5.105   0.644  0.1082 -0.1232 -0.5664
 2786TIP3    H129773   6.712   5.117   0.736  2.0457 -2.1384  0.2713
 2786TIP3    H229774   6.793   5.179   0.625 -1.2823  1.0027 -0.5994
 2787TIP3   OH229775   0.338   4.905   1.785 -0.9698 -0.3643 -0.0502
 2787TIP3    H129776   0.414   4.878   1.734 -0.8969 -0.1908 -0.0333
 2787TIP3    H229777   0.272   4.926   1.719 -0.0963  2.2642 -0.1960
 2788TIP3   OH229778   4.290   1.307   2.385  0.2789  0.3972  0.3119
 2788TIP3    H129779   4.350   1.347   2.448  1.0146 -0.2560  0.0378
 2788TIP3    H229780   4.340   1.235   2.346 -0.0438  0.9612 -1.2403
 2789TIP3   OH229781   0.939   0.054  13.668 -0.0663 -0.1818 -0.2813
 2789TIP3    H129782   0.916  -0.025  13.619  0.5353 -0.5004 -0.0661
 2789TIP3    H229783   0.878   0.120  13.637 -0.8653 -0.8402 -0.1602
 2790TIP3   OH229784   3.386   1.034  13.040 -0.0570  0.1751 -0.2861
 2790TIP3    H129785   3.336   1.052  12.960  0.4185 -0.3000 -0.6915
 2790TIP3    H229786   3.339   1.082  13.108 -0.2874  0.8478 -0.9019
 2791TIP3   OH229787   6.223   0.920  12.884 -0.9132  0.2708  0.1017
 2791TIP3    H129788   6.210   0.856  12.814  0.1061 -1.1742  1.1704
 2791TIP3    H229789   6.275   0.990  12.844 -0.1231 -0.6624 -0.5500
 2792TIP3   OH229790   2.190   5.767  15.155 -0.2495 -0.0893 -0.2668
 2792TIP3    H129791   2.260   5.832  15.150  0.2223 -0.6327 -1.0414
 2792TIP3    H229792   2.233   5.688  15.187 -0.6458 -0.2363 -0.0987
 2793TIP3   OH229793   4.295   3.193  16.616  0.6768  0.0963 -0.3440
 2793TIP3    H129794   4.235   3.266  16.633  1.8552  1.0204  0.0164
 2793TIP3    H229795   4.382   3.233  16.617  1.3454 -1.3003 -0.2890
 2794TIP3   OH229796   0.836   0.555  12.597 -0.7185  0.1597  0.8562
 2794TIP3    H129797   0.901   0.486  12.599 -1.6405 -0.8181 -0.7315
 2794TIP3    H229798   0.772   0.530  12.663 -0.1253  0.4851  1.5664
 2795TIP3   OH229799   0.154   1.913  13.505 -0.2532 -0.4448  0.3156
 2795TIP3    H129800   0.225   1.965  13.467 -0.6655  0.0941  0.2679
 2795TIP3    H229801   0.198   1.838  13.546  0.3451 -0.0800  0.3499
 2796TIP3   OH229802   5.326   2.936  15.030  0.1399 -0.0362 -0.1387
 2796TIP3    H129803   5.283   2.896  15.106  0.1274 -0.8560 -0.5701
 2796TIP3    H229804   5.409   2.888  15.022  1.0210  1.3213  0.5006
 2797TIP3   OH229805   6.004   6.313   0.243 -0.1185  0.3027 -0.5777
 2797TIP3    H129806   5.984   6.302   0.336 -0.3799 -0.0761 -0.6790
 2797TIP3    H229807   6.025   6.406   0.234  1.0385  0.1316  0.0805
 2798TIP3   OH229808   4.618   1.364  13.375  0.2903  0.1886 -0.1130
 2798TIP3    H129809   4.548   1.421  13.407 -0.1129 -0.4748  0.1937
 2798TIP3    H229810   4.697   1.398  13.419  0.0100  0.3482  0.2758
 2799TIP3   OH229811   5.095   2.008   0.604 -0.1568  0.5670  0.3845
 2799TIP3    H129812   5.166   1.949   0.578 -2.3195 -1.9010 -0.4056
 2799TIP3    H229813   5.091   2.073   0.535  0.6091  0.0667 -0.1431
 2800TIP3   OH229814   4.618   6.416  11.242 -0.1198 -0.1108 -0.3720
 2800TIP3    H129815   4.593   6.381  11.156 -2.4299 -0.5163  0.4065
 2800TIP3    H229816   4.541   6.403  11.297  0.0358  3.2555  0.8599
 2801TIP3   OH229817   2.739   6.668  15.625 -0.2581  0.3938 -0.6989
 2801TIP3    H129818   2.779   6.699  15.706 -0.4113 -0.3634 -0.3233
 2801TIP3    H229819   2.741   6.573  15.632 -3.0259  0.2788 -0.1842
 2802TIP3   OH229820   1.259   0.460   0.318  0.3165  0.2647  0.0801
 2802TIP3    H129821   1.274   0.474   0.225  0.9569  0.2485  0.1765
 2802TIP3    H229822   1.292   0.540   0.359  1.9909 -0.5754  0.4605
 2803TIP3   OH229823   2.110   5.076   0.771 -0.4003  0.1432  0.2027
 2803TIP3    H129824   2.138   5.156   0.816 -1.3754  0.4614  0.2630
 2803TIP3    H229825   2.017   5.088   0.755 -0.2900 -0.4090 -0.9992
 2804TIP3   OH229826   0.010   5.413   1.269  0.0068  0.0564  0.3277
 2804TIP3    H129827   0.067   5.461   1.209  0.4906 -0.4106  0.4030
 2804TIP3    H229828  -0.022   5.339   1.218  1.3946 -1.0334  0.9852
 2805TIP3   OH229829   5.863   6.409   4.025 -0.3952  0.5683 -0.1054
 2805TIP3    H129830   5.798   6.339   4.031  0.0359  0.0777 -0.9241
 2805TIP3    H229831   5.928   6.387   4.093 -0.2929  0.1998 -0.3187
 2806TIP3   OH229832   5.882   4.218  15.457  0.1760  0.1860 -0.0947
 2806TIP3    H129833   5.813   4.177  15.406  0.9080 -1.2673  0.0327
 2806TIP3    H229834   5.921   4.283  15.399 -0.8744  0.5717 -0.3752
 2807TIP3   OH229835   3.911   5.669  11.265  0.2341  0.0787 -0.0912
 2807TIP3    H129836   3.949   5.581  11.264 -0.4130 -0.2176 -1.9073
 2807TIP3    H229837   3.943   5.708  11.347  0.8736 -1.6773  0.5438
 2808TIP3   OH229838   0.143   2.492   2.086 -0.2345  0.2165 -0.3769
 2808TIP3    H129839   0.155   2.580   2.049  0.0824 -0.2186 -1.3510
 2808TIP3    H229840   0.070   2.455   2.037  0.4361 -0.5080 -0.8657
 2809TIP3   OH229841   3.327   6.430  14.827  0.0259  0.6947 -0.0122
 2809TIP3    H129842   3.269   6.451  14.900  0.7452 -0.3399  0.8927
 2809TIP3    H229843   3.275   6.374  14.769  0.1009 -0.2662  0.8151
 2810TIP3   OH229844   4.794   2.031  12.126 -0.3016 -0.2584 -0.0515
 2810TIP3    H129845   4.803   1.985  12.210 -0.3862 -0.3109 -0.0699
 2810TIP3    H229846   4.760   2.117  12.150  0.6398  0.0870  0.0529
 2811TIP3   OH229847   4.782   4.786  13.206 -0.2170 -0.0292  0.5048
 2811TIP3    H129848   4.761   4.818  13.118 -0.9291 -0.3933  0.5304
 2811TIP3    H229849   4.827   4.858  13.249 -1.9319  1.0199  0.6280
 2812TIP3   OH229850   2.512   2.729  12.117 -0.0626 -0.5337  0.8071
 2812TIP3    H129851   2.485   2.639  12.134 -2.1086 -0.0012  0.6863
 2812TIP3    H229852   2.515   2.770  12.204  1.9735 -0.9669  0.9741
 2813TIP3   OH229853   6.245   4.140   0.692 -0.0548  0.2023 -0.8098
 2813TIP3    H129854   6.248   4.186   0.776 -2.5875  0.2349 -0.6629
 2813TIP3    H229855   6.240   4.210   0.627 -2.6676  0.2627 -0.6542
 2814TIP3   OH229856   5.422   5.790  13.037  0.4450  0.0089  0.0426
 2814TIP3    H129857   5.508   5.758  13.062  0.3652 -0.2597 -0.0212
 2814TIP3    H229858   5.414   5.769  12.944  1.5654  2.8404 -0.8087
 2815TIP3   OH229859   5.967   4.642  10.618  0.6448  0.2608 -0.0441
 2815TIP3    H129860   5.970   4.610  10.528 -0.4238  0.4312 -0.1464
 2815TIP3    H229861   5.886   4.692  10.624  1.2105  1.1270  0.7302
 2816TIP3   OH229862   5.381   4.078  16.926 -0.5504  0.2084 -0.0608
 2816TIP3    H129863   5.382   3.983  16.938  0.3623  0.1518 -0.5631
 2816TIP3    H229864   5.323   4.110  16.996  0.0454 -0.6181  0.8392
 2817TIP3   OH229865   4.481   5.090   2.624  0.1198 -0.1930  0.1436
 2817TIP3    H129866   4.402   5.143   2.620 -0.2992 -0.7332  0.9066
 2817TIP3    H229867   4.475   5.045   2.709  0.7975 -0.9214 -0.1842
 2818TIP3   OH229868   0.262   1.112   4.337  0.6913 -0.7324 -0.2286
 2818TIP3    H129869   0.213   1.119   4.419  0.5437  0.4017 -0.3920
 2818TIP3    H229870   0.334   1.175   4.347  0.5381 -0.4246 -1.0586
 2819TIP3   OH229871   5.011   3.063   4.235 -0.2512  0.5286  0.8197
 2819TIP3    H129872   4.933   3.069   4.180  0.8194 -2.4079 -1.2521
 2819TIP3    H229873   4.995   2.986   4.289  1.8860 -1.3640 -1.0515
 2820TIP3   OH229874   4.711   6.470  11.797  0.0450  0.2420  0.4982
 2820TIP3    H129875   4.754   6.436  11.875 -0.7967 -2.1719 -0.0239
 2820TIP3    H229876   4.713   6.398  11.734 -0.3638  1.7201 -1.2977
 2821TIP3   OH229877   0.055   5.853   1.369  0.1749 -0.2684  0.4514
 2821TIP3    H129878   0.106   5.872   1.448 -0.5237  0.5237  0.7289
 2821TIP3    H229879  -0.012   5.921   1.367 -0.8632 -1.2663  0.0804
 2822TIP3   OH229880   5.604   4.801  15.959  0.3704 -0.1161 -0.2580
 2822TIP3    H129881   5.559   4.730  16.004 -0.4155  0.2555 -0.4431
 2822TIP3    H229882   5.602   4.777  15.866 -0.6781  0.5539 -0.4234
 2823TIP3   OH229883   3.983   6.101  12.806  0.2009 -0.5878  1.1026
 2823TIP3    H129884   4.038   6.024  12.789  0.4165 -0.2485  0.2194
 2823TIP3    H229885   3.895   6.073  12.782  0.5186 -0.0726 -0.8688
 2824TIP3   OH229886   6.517   0.478   2.302  0.5600  0.7522 -0.1682
 2824TIP3    H129887   6.573   0.552   2.325  1.2505  0.0755  0.3729
 2824TIP3    H229888   6.566   0.401   2.331 -1.2799  0.2012  1.7159
 2825TIP3   OH229889   4.751   3.099   4.132  0.5737 -0.0787  0.5975
 2825TIP3    H129890   4.694   3.116   4.207  0.0891 -0.6756  0.3734
 2825TIP3    H229891   4.706   3.029   4.083  1.0753  0.0372 -0.0382
 2826TIP3   OH229892   3.906   0.921   2.725 -0.1316 -0.4078 -0.4174
 2826TIP3    H129893   3.827   0.889   2.681 -0.1003 -0.0178 -0.7622
 2826TIP3    H229894   3.958   0.962   2.656 -1.1072  2.2483  0.2720
 2827TIP3   OH229895   2.969   4.902  12.105  0.6078 -0.6454  0.0946
 2827TIP3    H129896   3.060   4.928  12.119  0.6225 -0.4883 -0.2923
 2827TIP3    H229897   2.920   4.984  12.106  0.4000 -0.7733  0.8167
 2828TIP3   OH229898   1.878   4.857   3.633  0.9047  0.1046 -0.3013
 2828TIP3    H129899   1.905   4.768   3.614  1.1725  0.6563 -2.9229
 2828TIP3    H229900   1.787   4.862   3.602  0.7235  0.6243  0.2818
 2829TIP3   OH229901   2.270   0.090   2.260 -0.5398 -0.4204  0.6641
 2829TIP3    H129902   2.312   0.161   2.211 -3.2007  1.2840  0.6872
 2829TIP3    H229903   2.291   0.011   2.210  1.1075  0.5803 -0.3006
 2830TIP3   OH229904   3.620   5.681   0.259 -0.5067 -0.4488  0.3709
 2830TIP3    H129905   3.628   5.733   0.339  1.7395 -1.9637  1.2080
 2830TIP3    H229906   3.690   5.712   0.203 -0.1594 -1.4491  0.2326
 2831TIP3   OH229907   6.060   2.635  10.997  0.5460  0.1450 -0.5808
 2831TIP3    H129908   6.098   2.656  10.912  1.0427 -1.2142 -0.7174
 2831TIP3    H229909   5.966   2.625  10.979  0.3853  1.5180 -0.6242
 2832TIP3   OH229910   0.221   6.682  13.369 -0.3934 -0.3651 -0.5225
 2832TIP3    H129911   0.148   6.734  13.402 -0.6759  1.3769 -3.4943
 2832TIP3    H229912   0.232   6.612  13.434 -2.3414  1.3381  1.8398
 2833TIP3   OH229913   5.657   5.417   1.646  0.6343  0.0327  0.0476
 2833TIP3    H129914   5.683   5.509   1.645 -0.1847  0.2757  0.0971
 2833TIP3    H229915   5.739   5.369   1.648  1.1341  0.7009 -2.1016
 2834TIP3   OH229916   6.493   1.011   3.031  0.5235 -0.3293  0.0936
 2834TIP3    H129917   6.531   0.947   3.091  0.1157  0.8597  1.6999
 2834TIP3    H229918   6.554   1.085   3.032 -1.2913  1.2807  2.1092
 2835TIP3   OH229919   0.032   2.193   2.013  0.0663  0.1324  0.0547
 2835TIP3    H129920   0.003   2.215   2.101 -1.0847 -2.0777  0.2901
 2835TIP3    H229921  -0.018   2.252   1.956 -1.6386 -0.6120  0.7190
 2836TIP3   OH229922   4.402   0.479  15.950 -0.5383 -0.1500 -0.1323
 2836TIP3    H129923   4.424   0.479  15.857  0.9588 -1.5158  0.1680
 2836TIP3    H229924   4.442   0.398  15.984 -2.4488 -0.5220  1.3891
 2837TIP3   OH229925   3.657   1.957   0.169 -0.1013 -0.9570 -0.0325
 2837TIP3    H129926   3.606   1.930   0.092  0.3953  0.2934 -0.8393
 2837TIP3    H229927   3.622   1.904   0.241 -0.1228 -2.6436 -1.2292
 2838TIP3   OH229928   2.655   3.270  12.754  0.0180  0.4916  1.0042
 2838TIP3    H129929   2.694   3.357  12.751 -0.2775  0.6020 -0.1005
 2838TIP3    H229930   2.688   3.226  12.676 -0.7872  0.0358  0.9057
 2839TIP3   OH229931   0.940   5.209  13.560  0.0573 -0.2847 -0.4192
 2839TIP3    H129932   0.877   5.190  13.491  0.8582 -1.0556 -0.9728
 2839TIP3    H229933   0.904   5.284  13.607 -1.9276 -1.5015  0.1140
 2840TIP3   OH229934   1.069   2.584   2.684  0.5287  0.2078 -0.0810
 2840TIP3    H129935   1.125   2.646   2.731 -0.4514  1.1005 -0.0277
 2840TIP3    H229936   1.054   2.625   2.599  2.8883 -1.7428 -1.5372
 2841TIP3   OH229937   2.538   0.635  12.864  0.9165 -0.1628  0.1296
 2841TIP3    H129938   2.610   0.675  12.913  0.8295  1.7592 -1.1677
 2841TIP3    H229939   2.464   0.694  12.878  0.8202  0.3214 -2.0053
 2842TIP3   OH229940   6.266   4.304   2.775  0.1901  0.1519 -0.3379
 2842TIP3    H129941   6.271   4.211   2.754 -2.2120  0.0236 -0.6004
 2842TIP3    H229942   6.298   4.310   2.865 -0.4741 -1.0762  0.0025
 2843TIP3   OH229943   1.083   1.803   5.518  0.7005 -0.5637 -0.1945
 2843TIP3    H129944   1.008   1.833   5.466  0.8174 -1.8426 -1.1291
 2843TIP3    H229945   1.080   1.708   5.512  2.0827 -0.6505  0.2244
 2844TIP3   OH229946   6.669   4.322   0.590  0.1776 -0.1538 -0.3571
 2844TIP3    H129947   6.625   4.251   0.544  0.2961  0.0431 -0.7799
 2844TIP3    H229948   6.634   4.318   0.679 -1.1551  0.3918 -0.8402
 2845TIP3   OH229949   5.877   4.179   5.062  0.0657 -0.1538  0.0205
 2845TIP3    H129950   5.893   4.086   5.044 -0.8391 -0.0736 -1.3568
 2845TIP3    H229951   5.812   4.179   5.132 -0.0102 -0.5640 -0.0500
 2846TIP3   OH229952   4.091   3.697  12.093 -0.0226 -0.1447  0.6235
 2846TIP3    H129953   4.001   3.712  12.065  0.0958  0.1127  0.3745
 2846TIP3    H229954   4.145   3.732  12.022  0.2788  0.3166  1.0618
 2847TIP3   OH229955   0.289   3.549  16.939  0.3897  0.3132  0.1037
 2847TIP3    H129956   0.337   3.563  17.020  0.3659  0.5289  0.0820
 2847TIP3    H229957   0.356   3.535  16.872  0.4883  1.8532 -0.1683
 2848TIP3   OH229958   4.457   1.641  11.123 -0.1687  0.0464  0.8943
 2848TIP3    H129959   4.460   1.608  11.213  1.0854 -2.1732  0.1039
 2848TIP3    H229960   4.548   1.665  11.103 -0.4367  0.5351  0.2193
 2849TIP3   OH229961   3.023   5.520  15.904  0.3257 -0.4061 -0.1071
 2849TIP3    H129962   2.945   5.543  15.954 -0.5820  0.3829 -1.8363
 2849TIP3    H229963   3.023   5.579  15.829  1.5603 -1.6550 -1.1538
 2850TIP3   OH229964   3.305   1.806  16.257 -0.3541  0.3094 -0.0758
 2850TIP3    H129965   3.228   1.784  16.309 -0.6278 -1.3868 -1.1208
 2850TIP3    H229966   3.317   1.731  16.199  1.8542  0.6988 -0.2288
 2851TIP3   OH229967   0.120   5.501  12.167 -0.0372  0.5734  0.0913
 2851TIP3    H129968   0.043   5.494  12.110 -0.3334 -0.1781  0.5709
 2851TIP3    H229969   0.184   5.549  12.114  0.3177 -1.5705 -1.5500
 2852TIP3   OH229970   1.259   1.800  13.535 -0.0938  0.3605  0.0145
 2852TIP3    H129971   1.307   1.852  13.600  0.6066  0.1607 -0.3357
 2852TIP3    H229972   1.204   1.864  13.490 -0.1115  0.6067  0.3732
 2853TIP3   OH229973   2.743   2.321  15.623 -0.1081  0.6362  0.2697
 2853TIP3    H129974   2.822   2.268  15.618 -0.3240  0.3577 -0.2788
 2853TIP3    H229975   2.693   2.283  15.695 -0.0704  0.3496  0.1476
 2854TIP3   OH229976   3.905   1.675   2.340  0.3907 -0.2202  0.4665
 2854TIP3    H129977   3.913   1.766   2.371  1.1898  0.2937 -1.1738
 2854TIP3    H229978   3.952   1.624   2.406  0.1637  0.5674  1.2754
 2855TIP3   OH229979   0.988   5.208   3.142 -0.0060 -0.3408  0.6048
 2855TIP3    H129980   0.913   5.259   3.111  0.3124 -0.1861  0.0711
 2855TIP3    H229981   1.064   5.262   3.120  0.2993 -0.8065  0.5095
 2856TIP3   OH229982   3.484   6.017  14.048  0.1774  0.3431 -0.4773
 2856TIP3    H129983   3.561   6.068  14.075  0.8654 -1.3931  1.0215
 2856TIP3    H229984   3.455   5.974  14.128 -1.3540 -0.3641 -1.3790
 2857TIP3   OH229985   1.324   6.058   5.916  0.4178  0.2097 -0.2114
 2857TIP3    H129986   1.274   6.136   5.892 -0.4931  0.1067  1.2504
 2857TIP3    H229987   1.394   6.054   5.851  0.9574  2.6814  0.0908
 2858TIP3   OH229988   0.475   6.281  11.273  0.4525  0.2653  0.4311
 2858TIP3    H129989   0.523   6.277  11.190  1.3612  1.9718  0.8405
 2858TIP3    H229990   0.453   6.190  11.292  1.8097 -0.3483 -0.7656
 2859TIP3   OH229991   4.581   0.391   3.770  0.0047  0.0418  0.2876
 2859TIP3    H129992   4.634   0.346   3.836  0.4920 -0.4793 -0.4232
 2859TIP3    H229993   4.606   0.483   3.777 -1.7376  0.4123  2.4367
 2860TIP3   OH229994   4.426   5.541  11.976 -0.2186 -0.1231  0.1429
 2860TIP3    H129995   4.355   5.581  11.926 -0.4302 -2.2518 -1.3577
 2860TIP3    H229996   4.490   5.515  11.910  1.7623  1.1920  1.4006
 2861TIP3   OH229997   1.755   0.571  12.678  0.1123 -0.5108  0.4910
 2861TIP3    H129998   1.737   0.480  12.654  0.3233 -0.4596  0.1185
 2861TIP3    H229999   1.851   0.577  12.679  0.1174  0.0891 -1.0264
 2862TIP3   OH230000   0.163   4.742  11.583  0.6236 -0.4102  0.4444
 2862TIP3    H130001   0.214   4.726  11.662 -0.9446  3.5856  2.5660
 2862TIP3    H230002   0.210   4.814  11.539 -0.8077  0.3780  0.1427
 2863TIP3   OH230003   3.068   0.946  14.713 -0.4927 -0.3700  0.1457
 2863TIP3    H130004   3.011   0.871  14.697 -0.1605 -0.3382 -1.3404
 2863TIP3    H230005   3.030   1.016  14.660  1.2029 -0.5037 -1.3505
 2864TIP3   OH230006   0.659   5.421   1.361  0.3692 -0.0240  0.5212
 2864TIP3    H130007   0.666   5.401   1.268  1.4489 -1.0751  0.8044
 2864TIP3    H230008   0.635   5.514   1.364  1.7087  0.3993 -0.7810
 2865TIP3   OH230009   2.097   3.938  14.808  0.0696  0.0036 -0.1673
 2865TIP3    H130010   2.022   3.963  14.862 -0.1229 -0.1861 -0.3391
 2865TIP3    H230011   2.166   3.916  14.870 -0.3443 -0.8222  0.0248
 2866TIP3   OH230012   0.302   5.084  16.640 -0.5483  0.3298  0.0412
 2866TIP3    H130013   0.295   5.042  16.726 -1.0294  0.3151 -0.0007
 2866TIP3    H230014   0.394   5.110  16.633 -0.3014 -0.4876  0.1752
 2867TIP3   OH230015   2.928   1.890  13.239 -0.1053  0.2109  0.4046
 2867TIP3    H130016   2.842   1.859  13.210  0.2711 -1.1831  0.6764
 2867TIP3    H230017   2.955   1.825  13.305  2.5810 -1.3335 -1.9681
 2868TIP3   OH230018   2.658   3.633   3.431 -0.4295 -0.6448  0.1444
 2868TIP3    H130019   2.737   3.684   3.449 -0.5937  0.2659 -1.5141
 2868TIP3    H230020   2.602   3.647   3.507 -0.1122  0.9710  0.1187
 2869TIP3   OH230021   1.537   2.080  10.117 -0.4432  0.6810  0.3746
 2869TIP3    H130022   1.600   2.076  10.189  2.0052 -2.3154 -1.6963
 2869TIP3    H230023   1.463   2.027  10.147 -0.2468  0.9054  1.2964
 2870TIP3   OH230024   3.349   1.472  16.547 -0.1517 -0.5433 -0.5772
 2870TIP3    H130025   3.347   1.383  16.512  0.1908 -0.8430  0.1346
 2870TIP3    H230026   3.344   1.529  16.470 -0.0608 -1.1787 -1.0604
 2871TIP3   OH230027   5.198   3.473   0.867 -0.3449 -0.3983  0.2043
 2871TIP3    H130028   5.256   3.550   0.865 -0.0220 -0.6473 -1.2418
 2871TIP3    H230029   5.155   3.479   0.951  0.1506  1.0313  0.4008
 2872TIP3   OH230030   4.181   4.870   0.699 -0.5247 -0.1231 -0.3660
 2872TIP3    H130031   4.143   4.844   0.615 -0.9208  0.4083 -0.3592
 2872TIP3    H230032   4.173   4.792   0.754  0.1300 -0.6133 -0.9435
 2873TIP3   OH230033   3.679   1.250   4.107  0.6261  0.1181 -0.3349
 2873TIP3    H130034   3.667   1.213   4.020  0.3317  0.9388 -0.6490
 2873TIP3    H230035   3.620   1.325   4.110  0.9768  0.3757  0.4018
 2874TIP3   OH230036   4.297   4.116   5.187 -0.9587 -0.1697 -0.1146
 2874TIP3    H130037   4.271   4.196   5.233  0.2272  0.0572  0.1881
 2874TIP3    H230038   4.239   4.049   5.222 -1.3556  0.3760  0.3003
 2875TIP3   OH230039   0.151   2.928   5.169  0.0252 -0.1033 -0.3512
 2875TIP3    H130040   0.156   2.984   5.246  2.6582  0.9500 -1.1678
 2875TIP3    H230041   0.216   2.859   5.185 -3.1539 -3.1768  0.6534
 2876TIP3   OH230042   2.106   2.112  11.951 -0.4286  0.4303  0.0364
 2876TIP3    H130043   2.027   2.137  11.997 -0.5619 -0.8153  0.5370
 2876TIP3    H230044   2.097   2.151  11.864 -1.5854  0.3155  0.0902
 2877TIP3   OH230045   2.291   3.583  11.120  0.3753  0.0670 -0.3628
 2877TIP3    H130046   2.247   3.498  11.126 -1.2417  0.7958 -1.1729
 2877TIP3    H230047   2.249   3.636  11.188  1.9083  0.0312  0.6582
 2878TIP3   OH230048   3.569   4.099   5.462 -0.4593 -0.4585 -0.2335
 2878TIP3    H130049   3.496   4.115   5.522 -0.1498  0.0730  0.0072
 2878TIP3    H230050   3.529   4.055   5.387 -1.2267  0.7996 -0.5976
 2879TIP3   OH230051   5.746   4.423  13.596 -0.2020  0.8643 -0.2613
 2879TIP3    H130052   5.827   4.374  13.614 -1.5288 -1.4526 -0.2449
 2879TIP3    H230053   5.773   4.491  13.534  2.0868  1.3641  1.1331
 2880TIP3   OH230054   6.645   5.156   4.248 -0.0844  0.2438 -0.1441
 2880TIP3    H130055   6.696   5.234   4.227  0.3933  0.2995  1.1471
 2880TIP3    H230056   6.582   5.185   4.313 -0.5508 -0.2421 -0.3683
 2881TIP3   OH230057   1.914   4.895   1.859 -0.1716 -0.4422 -0.0330
 2881TIP3    H130058   1.988   4.843   1.829  1.8662  1.3514  1.6025
 2881TIP3    H230059   1.925   4.902   1.953 -2.9777 -0.8499  0.4175
 2882TIP3   OH230060   1.373   6.427  10.840 -0.2150  0.6517 -0.0856
 2882TIP3    H130061   1.425   6.501  10.873  1.1093  0.6844 -2.0947
 2882TIP3    H230062   1.438   6.363  10.811 -1.3478 -0.9794  0.7971
 2883TIP3   OH230063   1.786   2.597  15.545  0.1216  0.0982 -0.1008
 2883TIP3    H130064   1.724   2.621  15.476 -0.4580  0.8029  0.6355
 2883TIP3    H230065   1.740   2.531  15.597 -1.0501  2.2884  1.8441
 2884TIP3   OH230066   3.603   2.960  11.217  0.3197  0.2613  0.0856
 2884TIP3    H130067   3.584   2.875  11.178  0.3020  0.3684 -0.1419
 2884TIP3    H230068   3.525   2.980  11.269 -0.0210  0.5009 -0.4996
 2885TIP3   OH230069   2.431   0.464  16.306 -0.1123  0.0905  0.1917
 2885TIP3    H130070   2.354   0.447  16.361  0.4690 -1.6628  0.5258
 2885TIP3    H230071   2.487   0.519  16.360 -1.8675  3.0310 -0.7491
 2886TIP3   OH230072   0.170   2.243  12.847 -0.2138  0.4822 -0.3762
 2886TIP3    H130073   0.163   2.181  12.774 -1.3309  2.1555 -1.7712
 2886TIP3    H230074   0.092   2.297  12.839 -0.2658  0.8447  1.9959
 2887TIP3   OH230075   4.878   3.102   2.708 -0.3168 -1.1877  0.0583
 2887TIP3    H130076   4.973   3.089   2.715 -0.4578 -2.2239  0.2849
 2887TIP3    H230077   4.843   3.013   2.702 -1.3246 -0.8347  0.6035
 2888TIP3   OH230078   3.728   5.398  16.705  0.0263  0.0743 -0.0445
 2888TIP3    H130079   3.712   5.342  16.629 -2.1250 -0.2064  0.5703
 2888TIP3    H230080   3.752   5.483  16.668 -0.5615 -0.1772 -1.0273
 2889TIP3   OH230081   0.287   3.384   2.741 -0.2029  0.2099 -0.1582
 2889TIP3    H130082   0.247   3.461   2.781  2.2399  1.3329  0.3057
 2889TIP3    H230083   0.295   3.406   2.648  2.2719  1.4391  0.2737
 2890TIP3   OH230084   5.692   1.864   3.944  0.2672 -0.4537  0.2664
 2890TIP3    H130085   5.608   1.825   3.968 -0.4934  0.9780  0.0208
 2890TIP3    H230086   5.735   1.884   4.027  0.6527 -1.7028  0.3981
 2891TIP3   OH230087   1.772   3.516  11.615  0.3581 -0.0004  0.6248
 2891TIP3    H130088   1.778   3.561  11.700 -0.9952  1.1837  0.1415
 2891TIP3    H230089   1.683   3.481  11.613  0.5562 -0.4794 -0.0913
 2892TIP3   OH230090   5.388   3.234  16.840 -0.1238  0.0067 -0.0550
 2892TIP3    H130091   5.329   3.240  16.765 -0.5747 -1.2291  0.1788
 2892TIP3    H230092   5.338   3.185  16.906  0.8253 -0.2643  0.4802
 2893TIP3   OH230093   3.648   4.702  16.176 -0.1654 -0.5256 -0.2781
 2893TIP3    H130094   3.562   4.689  16.138 -0.4017  2.4135 -0.9785
 2893TIP3    H230095   3.632   4.718  16.269 -0.1723 -1.5712 -0.0842
 2894TIP3   OH230096   5.484   0.231   3.938 -0.0847  0.2599  0.0312
 2894TIP3    H130097   5.499   0.263   3.848  0.9921 -1.7250 -0.5422
 2894TIP3    H230098   5.548   0.162   3.950 -0.0377  0.6487  2.4777
 2895TIP3   OH230099   6.393   3.425  15.486 -0.1407  0.3630  0.1894
 2895TIP3    H130100   6.411   3.495  15.550 -0.7142 -0.0227  0.7848
 2895TIP3    H230101   6.397   3.344  15.537  1.2116 -0.1257 -0.6322
 2896TIP3   OH230102   6.009   0.710  15.802  0.5336 -0.2648 -0.6262
 2896TIP3    H130103   6.089   0.667  15.835  0.4118 -0.0664 -0.0556
 2896TIP3    H230104   6.040   0.793  15.765  0.7326 -0.6965 -1.4642
 2897TIP3   OH230105   2.469   5.161   2.483  0.0383  0.1991 -0.1532
 2897TIP3    H130106   2.409   5.233   2.504 -0.2407 -0.3598  1.0058
 2897TIP3    H230107   2.500   5.130   2.568  1.2239 -0.1655 -0.6948
 2898TIP3   OH230108   0.034   0.336  13.137 -0.0289  0.2477 -0.0240
 2898TIP3    H130109   0.117   0.289  13.148 -0.0830  0.2910  0.6474
 2898TIP3    H230110   0.060   0.424  13.109 -0.0007 -0.6554 -3.1438
 2899TIP3   OH230111   3.116   4.816   3.086  0.1648  0.3359  0.2409
 2899TIP3    H130112   3.052   4.745   3.076  0.1436  0.6345 -2.2894
 2899TIP3    H230113   3.063   4.896   3.088  0.1553  0.4160  3.4616
 2900TIP3   OH230114   4.619   3.472   0.976 -0.3712 -0.1674  0.1146
 2900TIP3    H130115   4.567   3.392   0.969  0.1142 -0.4029 -1.2503
 2900TIP3    H230116   4.635   3.498   0.885  1.2998  0.2766  0.4914
 2901TIP3   OH230117   3.483   0.961   5.290 -0.7772  0.5647 -0.1546
 2901TIP3    H130118   3.426   0.891   5.257 -0.3596 -0.0330  0.3630
 2901TIP3    H230119   3.571   0.925   5.283 -0.6796  0.3391  1.7531
 2902TIP3   OH230120   1.855   3.178  15.406 -1.0189 -0.1964 -0.4012
 2902TIP3    H130121   1.785   3.219  15.456 -2.2021 -0.0245 -2.0997
 2902TIP3    H230122   1.925   3.244  15.403 -0.5845 -0.5070  1.6128
 2903TIP3   OH230123   4.494   5.084   3.735  0.6042  0.0616  0.3314
 2903TIP3    H130124   4.547   5.044   3.666  1.4298  0.1461  0.9027
 2903TIP3    H230125   4.481   5.014   3.799  0.0032  0.0399  0.1985
 2904TIP3   OH230126   1.811   2.909   0.705 -0.0004  0.7908 -0.5130
 2904TIP3    H130127   1.780   2.995   0.732 -0.4640  0.8671 -1.2397
 2904TIP3    H230128   1.897   2.925   0.667  0.3305  0.7860  0.2157
 2905TIP3   OH230129   6.576   5.074   2.426 -0.2993 -0.6340 -0.7486
 2905TIP3    H130130   6.496   5.072   2.373 -1.1964 -1.8508  0.5772
 2905TIP3    H230131   6.557   5.017   2.500  0.9581  0.8875  0.8250
 2906TIP3   OH230132   1.837   4.902   5.013  0.6700 -0.3174 -0.2101
 2906TIP3    H130133   1.762   4.897   4.954  0.3190 -3.4742  0.2891
 2906TIP3    H230134   1.813   4.968   5.078 -1.4312 -0.8225 -0.4097
 2907TIP3   OH230135   0.093   1.772   1.418 -0.1559 -0.1685  0.6475
 2907TIP3    H130136   0.097   1.743   1.327 -2.0026  0.2415  0.3878
 2907TIP3    H230137   0.156   1.844   1.423 -0.4239  0.1623 -0.4643
 2908TIP3   OH230138   1.801   5.366   5.461  0.6317 -0.2704 -0.1858
 2908TIP3    H130139   1.744   5.418   5.517  0.1385  0.1830 -1.0926
 2908TIP3    H230140   1.779   5.276   5.480 -1.6027 -0.1188 -1.6906
 2909TIP3   OH230141   3.823   0.195  12.051  0.9229  0.6058 -0.2261
 2909TIP3    H130142   3.904   0.243  12.066  0.0730  1.9372  0.2641
 2909TIP3    H230143   3.762   0.260  12.016 -0.6018  0.2111  1.4856
 2910TIP3   OH230144   1.887   1.343  14.860  0.0230 -0.2090  0.1734
 2910TIP3    H130145   1.794   1.322  14.862  0.0541 -0.2894  1.2140
 2910TIP3    H230146   1.893   1.429  14.903  0.4660 -0.3595  0.4214
 2911TIP3   OH230147   0.903   0.370   5.886 -0.0557 -0.0858  0.1541
 2911TIP3    H130148   0.826   0.394   5.937 -0.1442  0.0555 -0.0427
 2911TIP3    H230149   0.901   0.274   5.883  0.2124 -0.1198  0.8125
 2912TIP3   OH230150   0.185   0.877  13.309 -0.1718  0.0277 -0.3511
 2912TIP3    H130151   0.141   0.961  13.316 -1.9063 -0.8119 -0.5676
 2912TIP3    H230152   0.222   0.862  13.397 -0.7936  0.5224  0.0039
 2913TIP3   OH230153   4.380   4.999   4.177 -0.2705 -0.3483  0.1410
 2913TIP3    H130154   4.378   4.997   4.272  1.4267 -1.0605  0.2033
 2913TIP3    H230155   4.470   4.972   4.154 -0.9176 -1.1475 -1.6696
 2914TIP3   OH230156   1.656   6.514   0.245 -0.4765  0.0773 -0.2151
 2914TIP3    H130157   1.656   6.474   0.333 -0.1476  1.1388  0.2769
 2914TIP3    H230158   1.612   6.449   0.190 -1.4933 -0.2339  0.9083
 2915TIP3   OH230159   0.879   6.321   1.553  0.0125 -0.6923 -0.3043
 2915TIP3    H130160   0.931   6.277   1.485  2.2099 -0.2104  0.9508
 2915TIP3    H230161   0.805   6.262   1.569  0.9979 -2.2241 -1.1094
 2916TIP3   OH230162   3.619   2.313   4.913  0.5297 -0.1490  0.7214
 2916TIP3    H130163   3.652   2.233   4.954 -0.0586  0.1700  1.8801
 2916TIP3    H230164   3.629   2.298   4.819  0.1641 -1.7123  0.8990
 2917TIP3   OH230165   0.034   4.132  14.033  0.1481 -0.0819 -0.3440
 2917TIP3    H130166   0.012   4.224  14.015  1.2420 -0.1468 -2.4031
 2917TIP3    H230167  -0.034   4.103  14.094 -0.9053  1.7700 -0.5300
 2918TIP3   OH230168   4.523   5.654   4.899 -0.7666  0.4249  0.0444
 2918TIP3    H130169   4.501   5.576   4.848 -0.1539  0.0104  0.4049
 2918TIP3    H230170   4.480   5.725   4.852 -1.4369 -0.1377 -0.2232
 2919TIP3   OH230171   3.651   2.243   0.988 -0.1140 -0.1699  0.4259
 2919TIP3    H130172   3.661   2.149   1.004  0.7785 -0.0399  0.6883
 2919TIP3    H230173   3.681   2.256   0.898 -1.9389 -0.3869 -0.2618
 2920TIP3   OH230174   0.278   3.267   0.568 -0.4366 -0.0522  0.2094
 2920TIP3    H130175   0.250   3.273   0.477 -0.6236  0.6238  0.3060
 2920TIP3    H230176   0.365   3.227   0.564 -0.3948  0.0851 -0.2745
 2921TIP3   OH230177   4.502   0.851   1.634  0.2564  0.0338  0.3842
 2921TIP3    H130178   4.554   0.931   1.627  0.8213 -0.3458  0.0164
 2921TIP3    H230179   4.568   0.781   1.636 -0.1625 -0.3496  2.2615
 2922TIP3   OH230180   1.683   4.066  15.905 -0.4913  0.2358 -0.2917
 2922TIP3    H130181   1.727   4.030  15.828 -1.0993 -1.2092  0.0151
 2922TIP3    H230182   1.622   3.998  15.932 -0.3238  0.7325  1.4509
 2923TIP3   OH230183   4.288   5.111   5.963 -0.3587 -0.1934  0.2228
 2923TIP3    H130184   4.374   5.086   5.929 -0.9145 -1.4331 -0.3472
 2923TIP3    H230185   4.307   5.171   6.035  0.9427  0.3575 -0.5438
 2924TIP3   OH230186   5.947   0.835   1.246  0.2870 -0.1080 -0.1940
 2924TIP3    H130187   5.977   0.745   1.229 -0.3338 -0.1543 -1.1139
 2924TIP3    H230188   5.868   0.824   1.299  1.8168  0.0159  2.2811
 2925TIP3   OH230189   0.531   6.370  12.139 -0.4922  0.4337 -0.0809
 2925TIP3    H130190   0.548   6.387  12.231 -0.2676  0.7930 -0.1879
 2925TIP3    H230191   0.611   6.397  12.094 -1.1115  1.5718 -0.5300
 2926TIP3   OH230192   2.805   4.364   4.842  0.2669 -0.0288  0.4091
 2926TIP3    H130193   2.790   4.303   4.769  0.7669  1.1442 -0.6940
 2926TIP3    H230194   2.719   4.371   4.885 -0.9984  1.9003 -2.1663
 2927TIP3   OH230195   1.830   2.439   5.957  0.3161 -0.2593 -0.4795
 2927TIP3    H130196   1.912   2.437   5.908  0.6132  0.7053 -0.0676
 2927TIP3    H230197   1.855   2.414   6.046  0.0890 -0.3860 -0.4520
 2928TIP3   OH230198   6.302   1.266  15.898 -0.0973 -0.3253  0.0734
 2928TIP3    H130199   6.275   1.292  15.810  0.4412 -1.4620 -0.4415
 2928TIP3    H230200   6.273   1.338  15.954  0.1606  0.7236 -1.1140
 2929TIP3   OH230201   3.747   3.782   5.341  0.1569 -0.5187 -0.3846
 2929TIP3    H130202   3.806   3.828   5.401 -1.4065  2.1329 -0.7569
 2929TIP3    H230203   3.745   3.837   5.263 -1.8195 -1.2121 -0.8632
 2930TIP3   OH230204   5.955   3.906   2.774  0.3467 -0.0723  0.2665
 2930TIP3    H130205   6.013   3.952   2.712  1.8363  0.1883  1.7853
 2930TIP3    H230206   5.871   3.900   2.728  1.3284  0.2966 -1.6875
 2931TIP3   OH230207   3.120   5.995   1.311  0.5920  0.0265  0.0242
 2931TIP3    H130208   3.080   6.063   1.257  2.3563  0.3231 -0.9967
 2931TIP3    H230209   3.202   6.035   1.342  1.0921 -1.2320  0.3783
 2932TIP3   OH230210   0.299   4.211   3.454 -0.6091  0.4063  0.1070
 2932TIP3    H130211   0.260   4.298   3.449 -0.3865  0.5372  0.5833
 2932TIP3    H230212   0.304   4.192   3.548  1.8193  1.0335  0.1765
 2933TIP3   OH230213   4.607   5.667  12.342 -0.0090  0.0962  0.4531
 2933TIP3    H130214   4.629   5.758  12.325 -1.7462  0.6405  0.9379
 2933TIP3    H230215   4.631   5.620  12.262 -0.5282  1.2428 -0.3941
 2934TIP3   OH230216   1.404   5.151  13.393  0.9212  0.6141 -0.1398
 2934TIP3    H130217   1.485   5.144  13.444  0.8514  1.0017  0.0211
 2934TIP3    H230218   1.406   5.239  13.356 -0.7195  1.6625  2.0585
 2935TIP3   OH230219   4.975   3.927   1.968 -0.0120  0.0786  0.2918
 2935TIP3    H130220   4.946   4.018   1.975  2.5398  0.9821  0.2939
 2935TIP3    H230221   5.003   3.905   2.057 -0.4718 -0.6769  0.2536
 2936TIP3   OH230222   4.703   3.038  16.417 -0.0901  0.4395  0.2049
 2936TIP3    H130223   4.680   3.096  16.489 -0.9826  0.3636 -0.0017
 2936TIP3    H230224   4.768   3.086  16.366  0.3154  0.6172  0.8830
 2937TIP3   OH230225   4.517   5.142   2.364  0.6477 -0.3283  0.8355
 2937TIP3    H130226   4.594   5.189   2.333  1.2297 -1.5209  0.4577
 2937TIP3    H230227   4.540   5.113   2.452  0.2710  0.1050  1.0850
 2938TIP3   OH230228   4.676   0.818   1.397 -0.0828  0.1589  0.7378
 2938TIP3    H130229   4.661   0.732   1.437 -1.9828  1.1789  2.3936
 2938TIP3    H230230   4.589   0.858   1.393  0.7729  2.0859  0.1367
 2939TIP3   OH230231   2.869   3.845   2.768  0.4918 -0.0001 -0.1295
 2939TIP3    H130232   2.914   3.866   2.850  0.7230  0.8644 -0.4674
 2939TIP3    H230233   2.803   3.914   2.759  0.3552 -0.1857 -0.5857
 2940TIP3   OH230234   3.702   3.924  10.699 -0.6110  0.5551  0.2811
 2940TIP3    H130235   3.649   3.931  10.620  1.0485  2.2739 -0.7824
 2940TIP3    H230236   3.696   4.010  10.739  0.4503  0.4264  0.7438
 2941TIP3   OH230237   5.013   0.241   1.490  0.3030  0.0769  0.0441
 2941TIP3    H130238   4.976   0.200   1.412  0.3584  1.1030 -0.5413
 2941TIP3    H230239   4.946   0.229   1.557  0.2997 -0.9067 -0.1228
 2942TIP3   OH230240   2.815   0.392   4.468 -0.4946 -0.0126 -0.3693
 2942TIP3    H130241   2.848   0.380   4.557 -0.6734 -0.1727 -0.3235
 2942TIP3    H230242   2.893   0.416   4.417 -0.4929  0.6760 -0.0575
 2943TIP3   OH230243   3.971   5.686   5.922 -0.8397 -0.7035  0.0209
 2943TIP3    H130244   4.030   5.635   5.978 -1.5201 -0.7190  0.7541
 2943TIP3    H230245   4.025   5.712   5.847  0.3627  0.0726  1.1079
 2944TIP3   OH230246   4.979   0.765   0.654 -0.2036  0.2714 -0.4252
 2944TIP3    H130247   5.020   0.848   0.632  0.5547  0.3373  1.0687
 2944TIP3    H230248   5.051   0.701   0.650 -0.2675  0.1040  0.6242
 2945TIP3   OH230249   0.133   1.009   6.158  0.2888  0.2959 -0.6010
 2945TIP3    H130250   0.062   0.947   6.141  1.1096 -0.9989  0.5184
 2945TIP3    H230251   0.155   0.996   6.250  1.8662  0.7705 -0.8854
 2946TIP3   OH230252   1.883   3.184   2.633  0.9272  0.0043 -0.5310
 2946TIP3    H130253   1.907   3.171   2.725  0.5324 -2.1328 -0.6781
 2946TIP3    H230254   1.906   3.275   2.615  0.6342  0.6111  1.7951
 2947TIP3   OH230255   3.453   3.760   4.405 -0.1228 -0.0031  0.4118
 2947TIP3    H130256   3.474   3.758   4.499 -0.7956  0.2477  0.5743
 2947TIP3    H230257   3.531   3.726   4.362  0.3449  0.2501  1.0423
 2948TIP3   OH230258   3.338   3.628  12.200 -0.1273 -0.4988 -0.7253
 2948TIP3    H130259   3.363   3.565  12.267  0.3667 -1.0493 -1.4241
 2948TIP3    H230260   3.247   3.650  12.221  0.5405  0.6752  1.1694
 2949TIP3   OH230261   0.952   4.861  15.652  0.1545 -0.1074  0.0511
 2949TIP3    H130262   1.043   4.891  15.644  0.1558  0.8668  2.7833
 2949TIP3    H230263   0.900   4.930  15.611  0.5270  0.6964  0.8933
 2950TIP3   OH230264   6.477   5.286  15.256  0.2307  0.8544 -0.5113
 2950TIP3    H130265   6.471   5.320  15.345 -0.3593 -0.4577 -0.0318
 2950TIP3    H230266   6.545   5.219  15.260  0.2730  0.8568 -1.0769
 2951TIP3   OH230267   2.711   0.850  16.711  0.4612 -0.0600 -0.1833
 2951TIP3    H130268   2.690   0.774  16.656  1.5828 -2.9935  3.1412
 2951TIP3    H230269   2.630   0.866  16.760  0.8407 -0.4377  0.5693
 2952TIP3   OH230270   6.442   0.024  14.749 -0.0866  0.2095  0.0427
 2952TIP3    H130271   6.468   0.045  14.839 -2.0563 -0.0175  0.7028
 2952TIP3    H230272   6.387   0.097  14.723 -0.6983 -0.4216 -0.4535
 2953TIP3   OH230273   2.604   4.206  13.928  0.0055 -0.0204  0.8582
 2953TIP3    H130274   2.697   4.230  13.918 -0.4011  1.2087 -0.2098
 2953TIP3    H230275   2.585   4.155  13.849 -0.0519 -0.9034  1.4328
 2954TIP3   OH230276   5.187   1.298   1.100 -0.5725  0.1276 -0.0097
 2954TIP3    H130277   5.215   1.371   1.157  0.8546  0.7342 -1.3935
 2954TIP3    H230278   5.221   1.220   1.144 -1.0998  0.3965  0.9012
 2955TIP3   OH230279   2.978   2.457  16.496 -0.1052 -0.4936  0.1912
 2955TIP3    H130280   3.049   2.520  16.483  1.2562 -1.5935  1.8916
 2955TIP3    H230281   3.017   2.372  16.476 -1.3134 -1.0288 -0.0181
 2956TIP3   OH230282   2.890   2.922  11.019 -0.7036 -0.1143 -0.2158
 2956TIP3    H130283   2.822   2.883  10.964 -0.2065 -0.5975 -0.4886
 2956TIP3    H230284   2.898   2.861  11.093  0.6619 -1.0136 -1.0531
 2957TIP3   OH230285   2.646   1.063  14.362  0.0020 -0.7576 -0.0883
 2957TIP3    H130286   2.640   1.134  14.425  0.5815 -0.4967 -0.3255
 2957TIP3    H230287   2.727   1.080  14.314 -0.1157 -1.2974 -0.4832
 2958TIP3   OH230288   0.732   2.796   0.822 -0.2836 -0.1190 -0.5348
 2958TIP3    H130289   0.827   2.801   0.832 -0.3932  0.9263  0.0513
 2958TIP3    H230290   0.709   2.874   0.773 -0.7796 -0.7059 -1.2565
 2959TIP3   OH230291   5.716   3.540  17.328  0.0230 -0.1040 -0.2695
 2959TIP3    H130292   5.744   3.449  17.337 -1.6179 -0.5349  0.9886
 2959TIP3    H230293   5.651   3.552  17.397 -0.7962  1.6314 -1.2783
 2960TIP3   OH230294   0.487   4.282   1.110  0.2018  0.0602  0.3042
 2960TIP3    H130295   0.444   4.242   1.186 -0.4154 -0.6044 -0.3792
 2960TIP3    H230296   0.570   4.316   1.145 -0.0116 -0.3392  1.2480
 2961TIP3   OH230297   4.232   5.940  17.126  0.5248  0.5100  0.2727
 2961TIP3    H130298   4.183   5.915  17.204 -0.8436  0.1568 -0.6662
 2961TIP3    H230299   4.204   6.029  17.106  1.6061  0.9715  0.7173
 2962TIP3   OH230300   3.162   0.967  13.860  0.3465 -0.1282  0.1219
 2962TIP3    H130301   3.177   1.056  13.893 -0.8253  0.0902  0.1146
 2962TIP3    H230302   3.109   0.925  13.928 -0.8017 -0.1658 -0.7734
 2963TIP3   OH230303   0.846   3.715  12.018  0.1862 -0.1145 -0.1051
 2963TIP3    H130304   0.923   3.768  12.035  0.8433 -0.8964 -0.5554
 2963TIP3    H230305   0.866   3.630  12.056 -0.4073 -0.3636 -0.3314
 2964TIP3   OH230306   0.776   6.453   5.726  0.3655  0.0231 -0.2167
 2964TIP3    H130307   0.729   6.401   5.661  0.4274  1.2253 -1.2465
 2964TIP3    H230308   0.708   6.482   5.788  0.1280 -0.1950 -0.3753
 2965TIP3   OH230309   5.412   1.474   2.653  0.9873  0.1918 -0.2738
 2965TIP3    H130310   5.490   1.440   2.611  1.6717 -0.4865  1.4854
 2965TIP3    H230311   5.444   1.520   2.731 -0.3310  0.0767  0.3704
 2966TIP3   OH230312   2.017   4.261   1.479  0.0805  0.5176 -0.0230
 2966TIP3    H130313   2.001   4.233   1.388 -1.1609 -0.6803  0.5241
 2966TIP3    H230314   2.102   4.223   1.501  0.5696  1.1327 -0.7901
 2967TIP3   OH230315   2.073   2.485   2.091 -0.1873 -0.2290 -0.0515
 2967TIP3    H130316   2.151   2.493   2.145  0.4552 -3.1669 -0.3506
 2967TIP3    H230317   2.024   2.566   2.106  1.3294  0.2955  2.6720
 2968TIP3   OH230318   1.568   1.545   5.451 -0.2548 -0.0288 -0.2997
 2968TIP3    H130319   1.601   1.634   5.439  2.6117 -0.9285  0.0187
 2968TIP3    H230320   1.504   1.533   5.380 -0.9411  2.3362 -0.1537
 2969TIP3   OH230321   6.392   2.258   1.066 -0.0192 -0.1555 -0.0040
 2969TIP3    H130322   6.478   2.282   1.099  0.3809 -0.5251 -0.7635
 2969TIP3    H230323   6.405   2.175   1.020 -0.9498 -0.6753  0.6237
 2970TIP3   OH230324   4.901   5.974  15.148 -0.0121 -0.4684  0.1378
 2970TIP3    H130325   4.944   5.896  15.184  0.8356 -0.8241 -1.4960
 2970TIP3    H230326   4.936   6.047  15.199  1.7231 -0.8706 -0.3945
 2971TIP3   OH230327   5.459   1.485   2.994 -0.0408  0.4815 -0.4063
 2971TIP3    H130328   5.555   1.481   2.992 -0.0741 -0.6465 -0.2853
 2971TIP3    H230329   5.436   1.460   3.083 -0.4549  0.5481 -0.4949
 2972TIP3   OH230330   3.538   3.942   2.690 -0.0748  0.1562  0.0484
 2972TIP3    H130331   3.611   3.880   2.689 -0.6097 -0.5882 -2.6488
 2972TIP3    H230332   3.480   3.911   2.620 -0.4929  3.5116 -1.2634
 2973TIP3   OH230333   4.766   6.559  15.614  0.4146 -0.4067  0.1225
 2973TIP3    H130334   4.674   6.530  15.612  1.2897 -3.4889 -1.3776
 2973TIP3    H230335   4.812   6.488  15.660  2.4515 -0.4094 -1.7675
 2974TIP3   OH230336   0.372   2.675   5.546 -0.1801 -0.7947  0.5741
 2974TIP3    H130337   0.313   2.652   5.618  1.0340 -0.8029  1.6200
 2974TIP3    H230338   0.389   2.592   5.501 -1.4918 -0.6757 -0.1820
 2975TIP3   OH230339   0.636   2.518  16.724  0.4188  0.1629  0.1778
 2975TIP3    H130340   0.688   2.483  16.651 -0.3761  1.1307 -0.8901
 2975TIP3    H230341   0.685   2.492  16.803  1.0997 -1.2357 -0.6588
 2976TIP3   OH230342   0.634   0.953  13.336 -0.0466 -0.2384 -0.3999
 2976TIP3    H130343   0.590   0.941  13.251  0.5831 -1.7409 -0.5314
 2976TIP3    H230344   0.724   0.974  13.313 -0.5317  2.5010 -0.1198
 2977TIP3   OH230345   4.267   1.401  11.020  0.9543 -0.1589 -0.1181
 2977TIP3    H130346   4.292   1.327  11.076 -1.7878 -0.2218  1.1739
 2977TIP3    H230347   4.319   1.474  11.052 -0.4212 -0.2170  2.5941
 2978TIP3   OH230348   1.980   1.201   2.484  0.0962 -0.8789 -0.2452
 2978TIP3    H130349   2.060   1.230   2.440 -0.0514 -1.0313 -0.6123
 2978TIP3    H230350   1.979   1.106   2.473 -0.5640 -0.7954 -0.9673
 2979TIP3   OH230351   2.320   1.150  16.745  0.1541 -0.1854 -0.6316
 2979TIP3    H130352   2.386   1.086  16.770  0.4220  0.7928  1.4526
 2979TIP3    H230353   2.238   1.100  16.741  0.3612 -0.7057  0.9425
 2980TIP3   OH230354   5.336   4.754   4.018  0.6589  0.0972 -0.1810
 2980TIP3    H130355   5.286   4.831   4.046 -2.0169 -1.9739  1.2173
 2980TIP3    H230356   5.283   4.714   3.950  0.0351 -2.3837  1.6089
 2981TIP3   OH230357   2.004   2.887  10.494  0.2341  0.4149  0.3241
 2981TIP3    H130358   2.092   2.901  10.458  0.0179  0.0408 -0.3542
 2981TIP3    H230359   1.982   2.797  10.470 -0.9421  0.9846 -0.8154
 2982TIP3   OH230360   1.782   6.001  12.620 -0.1286  0.2693  0.3318
 2982TIP3    H130361   1.692   6.026  12.640 -0.8640 -1.8186 -0.0680
 2982TIP3    H230362   1.774   5.948  12.540  1.2828 -0.9951  0.9897
 2983TIP3   OH230363   5.370   0.170   3.582  0.7525 -0.4626  0.1818
 2983TIP3    H130364   5.409   0.232   3.521 -2.0407  2.6388  1.2597
 2983TIP3    H230365   5.444   0.142   3.637  2.1370  2.3446 -0.0469
 2984TIP3   OH230366   0.396   6.066  13.954 -0.2689  0.0267 -0.0167
 2984TIP3    H130367   0.369   6.157  13.941  1.5548  0.8515  1.4493
 2984TIP3    H230368   0.463   6.051  13.888 -1.7217 -0.8835 -1.3775
 2985TIP3   OH230369   1.186   3.458   4.032  0.2352  0.0717  0.6259
 2985TIP3    H130370   1.143   3.392   3.977 -1.4222  0.3093  1.5599
 2985TIP3    H230371   1.229   3.516   3.970 -0.6848 -0.2763 -0.3861
 2986TIP3   OH230372   4.277   3.401   4.367  0.4982 -0.1534  0.0004
 2986TIP3    H130373   4.234   3.424   4.449  2.0958  1.8278  0.3826
 2986TIP3    H230374   4.288   3.306   4.371  1.7500  0.0163  2.7472
 2987TIP3   OH230375   3.624   1.375  14.887 -0.3533 -0.2893 -0.5967
 2987TIP3    H130376   3.544   1.336  14.852 -0.2141 -1.1569  0.0251
 2987TIP3    H230377   3.680   1.301  14.906  0.5967  0.3118 -0.9836
 2988TIP3   OH230378   4.633   4.448   3.963  0.0779  0.3237 -0.2046
 2988TIP3    H130379   4.572   4.391   4.010 -0.0996  1.0864  0.5227
 2988TIP3    H230380   4.579   4.522   3.935  0.2717  0.0649 -1.2849
 2989TIP3   OH230381   0.567   0.047  11.298  0.2521 -0.1444 -0.1602
 2989TIP3    H130382   0.506  -0.019  11.265  2.3107 -2.6442  0.6746
 2989TIP3    H230383   0.653   0.016  11.269  1.3885  1.7576  0.9781
 2990TIP3   OH230384   6.290   5.764   5.448 -0.2262  0.1108 -0.1873
 2990TIP3    H130385   6.243   5.762   5.531  0.4554 -1.0960  0.2038
 2990TIP3    H230386   6.262   5.683   5.404 -0.3900  0.6163 -1.0285
 2991TIP3   OH230387   5.575   1.207   3.643  0.4674  0.4336 -0.1654
 2991TIP3    H130388   5.631   1.265   3.695  1.0786 -0.7398  0.5317
 2991TIP3    H230389   5.549   1.137   3.704 -0.3904  0.0612 -0.9318
 2992TIP3   OH230390   3.839   4.677  15.529  0.0542  0.6362 -0.2922
 2992TIP3    H130391   3.753   4.637  15.542 -0.4805  1.7705 -0.1999
 2992TIP3    H230392   3.899   4.603  15.523 -0.6304 -0.1478  1.6981
 2993TIP3   OH230393   2.733   3.603  17.082  0.8041 -0.4004 -0.2659
 2993TIP3    H130394   2.719   3.697  17.090 -0.7973 -0.4716 -1.6248
 2993TIP3    H230395   2.745   3.588  16.989  4.2585 -1.2128  0.1887
 2994TIP3   OH230396   3.070   4.408   1.537 -0.2469  0.0745  0.4863
 2994TIP3    H130397   3.039   4.455   1.460 -1.1291 -0.7136  0.3430
 2994TIP3    H230398   3.046   4.464   1.611 -2.1146 -0.5276  0.3820
 2995TIP3   OH230399   4.006   5.853   4.404 -0.4597  0.3477 -0.4344
 2995TIP3    H130400   4.081   5.912   4.400  0.2227 -0.5274 -1.1073
 2995TIP3    H230401   4.045   5.765   4.405 -1.3707 -0.1103  2.2275
 2996TIP3   OH230402   6.568   3.473  17.206  0.0064 -0.1464 -0.5431
 2996TIP3    H130403   6.501   3.472  17.275 -0.2532  3.8849 -0.5151
 2996TIP3    H230404   6.647   3.504  17.251  0.4745  0.1821 -1.5710
 2997TIP3   OH230405   4.127   4.744   4.188  0.0833  0.4479  0.0101
 2997TIP3    H130406   4.207   4.692   4.190  0.9080  1.6626  2.8672
 2997TIP3    H230407   4.125   4.780   4.099  1.4429 -1.3986 -0.8462
 2998TIP3   OH230408   3.273   0.208   5.325 -0.1590 -0.2170  0.3634
 2998TIP3    H130409   3.261   0.265   5.250  0.8908 -2.4496 -1.6114
 2998TIP3    H230410   3.186   0.171   5.342 -0.3049 -0.0570 -0.0397
 2999TIP3   OH230411   2.149   5.472   5.946  0.2345 -0.3897 -0.5245
 2999TIP3    H130412   2.171   5.442   6.034  1.4725  1.6242 -0.0688
 2999TIP3    H230413   2.090   5.406   5.911  1.1022 -2.1328  1.1652
 3000TIP3   OH230414   4.588   1.938  15.154  0.0459  0.3096 -0.5173
 3000TIP3    H130415   4.551   1.910  15.071  1.8191  0.9168 -1.5526
 3000TIP3    H230416   4.633   2.021  15.135 -2.9285  2.7529  1.9125
 3001TIP3   OH230417   1.015   0.544   5.141 -0.3966 -0.7574  0.1564
 3001TIP3    H130418   0.956   0.587   5.080 -0.4936  0.0882  0.8210
 3001TIP3    H230419   0.957   0.497   5.201 -0.5022  0.8910  1.4258
 3002TIP3   OH230420   5.305   1.838   0.531 -0.2043 -0.2268 -0.0745
 3002TIP3    H130421   5.328   1.873   0.445 -0.6533 -0.5399 -0.3309
 3002TIP3    H230422   5.332   1.746   0.527  0.8555  0.0486  0.5474
 3003TIP3   OH230423   2.078   0.571   2.701  0.1192 -0.2056 -0.0286
 3003TIP3    H130424   2.092   0.539   2.612  0.1611  0.6003 -0.3206
 3003TIP3    H230425   2.002   0.522   2.732 -1.6982  1.4590 -1.5521
 3004TIP3   OH230426   1.291   4.762  12.474 -0.0260 -0.5234 -0.1693
 3004TIP3    H130427   1.357   4.704  12.436  1.1712  0.5187  0.2727
 3004TIP3    H230428   1.335   4.804  12.548 -0.8309  1.0301 -0.5342
 3005TIP3   OH230429   2.471   4.482  17.046  0.6135 -0.1523 -0.0690
 3005TIP3    H130430   2.519   4.452  16.968  1.2887 -0.2889  0.3902
 3005TIP3    H230431   2.420   4.406  17.073  1.5602 -0.6083  0.5101
 3006TIP3   OH230432   0.460   0.572   2.908 -0.0463  0.2928  0.1778
 3006TIP3    H130433   0.491   0.662   2.913 -1.2713  0.7181  0.4633
 3006TIP3    H230434   0.475   0.547   2.817 -2.0629  1.6996 -0.6097
 3007TIP3   OH230435   5.097   3.713  16.955  0.1342 -0.5435  0.0584
 3007TIP3    H130436   5.016   3.686  16.912  0.0199  0.6610 -0.5213
 3007TIP3    H230437   5.153   3.635  16.951 -0.1050 -0.6752 -1.7431
 3008TIP3   OH230438   0.397   0.860   4.936  0.5243  0.1180  0.1055
 3008TIP3    H130439   0.307   0.879   4.962 -0.3133 -3.2717  0.1914
 3008TIP3    H230440   0.446   0.861   5.019 -0.0683 -0.8056  0.4866
 3009TIP3   OH230441   1.832   2.990  12.299 -0.0218  0.6462  0.0019
 3009TIP3    H130442   1.856   3.004  12.391 -2.0964  0.1941  0.6619
 3009TIP3    H230443   1.790   2.904  12.299 -1.1033  1.1594 -1.1542
 3010TIP3   OH230444   5.134   1.648   4.948 -0.0808 -0.0926 -0.4840
 3010TIP3    H130445   5.088   1.696   5.016  1.8161  2.3301 -0.7596
 3010TIP3    H230446   5.065   1.613   4.892 -1.6449  2.5017 -0.3350
 3011TIP3   OH230447   5.537   3.826  16.392  0.0702  0.5288  0.1199
 3011TIP3    H130448   5.567   3.735  16.383 -1.7504  0.0095 -1.2247
 3011TIP3    H230449   5.491   3.827  16.476 -0.9640 -0.1340 -0.4228
 3012TIP3   OH230450   5.633   2.665  11.513 -0.1096  0.3556 -0.2086
 3012TIP3    H130451   5.694   2.701  11.576 -0.5586  0.7524  0.0007
 3012TIP3    H230452   5.550   2.711  11.529 -0.6247 -0.5849 -0.0958
 3013TIP3   OH230453   1.194   0.563   4.676  0.7366 -0.2548 -0.3999
 3013TIP3    H130454   1.152   0.483   4.707 -0.0705  0.3234  0.0376
 3013TIP3    H230455   1.142   0.634   4.714  0.2439  0.4898 -2.3431
 3014TIP3   OH230456   1.020   6.260   3.893  0.4813 -0.1569  0.0713
 3014TIP3    H130457   1.104   6.288   3.857  0.2196  0.2403 -0.2529
 3014TIP3    H230458   0.959   6.267   3.819 -0.0465  0.5559  0.5596
 3015TIP3   OH230459   4.172   4.393  16.383  0.2269  0.0774 -0.5672
 3015TIP3    H130460   4.100   4.380  16.445  1.0940  1.1971  0.7229
 3015TIP3    H230461   4.165   4.319  16.322 -2.0645  0.2111 -0.5519
 3016TIP3   OH230462   1.008   1.054  10.803  0.0165 -0.0473 -0.1532
 3016TIP3    H130463   0.947   1.060  10.730 -0.3502 -0.8954  0.0725
 3016TIP3    H230464   1.087   1.097  10.772 -0.9271  1.7745 -0.1855
 3017TIP3   OH230465   0.671   2.299   5.155 -0.0284 -0.0691  1.0914
 3017TIP3    H130466   0.754   2.251   5.149  0.5339  0.9970 -0.2309
 3017TIP3    H230467   0.648   2.295   5.248  0.1913 -2.5012  1.1170
 3018TIP3   OH230468   3.731   1.688  16.714 -0.6050 -0.3069 -0.4913
 3018TIP3    H130469   3.735   1.607  16.663 -0.1428 -0.3752 -0.3479
 3018TIP3    H230470   3.677   1.666  16.790 -1.3739 -0.1775 -0.9962
 3019TIP3   OH230471   6.472   2.660   1.029 -0.4236  0.1136 -0.2065
 3019TIP3    H130472   6.479   2.656   0.934 -0.4661  2.9999 -0.4204
 3019TIP3    H230473   6.551   2.706   1.057  0.2649 -1.8837  1.3399
 3020TIP3   OH230474   1.831   6.695   5.187 -0.0136 -0.9008  0.3641
 3020TIP3    H130475   1.792   6.623   5.137 -2.5629  0.3655  0.3484
 3020TIP3    H230476   1.769   6.711   5.258  0.3727  1.3530  0.2637
 3021TIP3   OH230477   2.104   2.399   4.237  0.1083  0.2906  0.1924
 3021TIP3    H130478   2.060   2.344   4.173 -0.4338  0.9217  0.0153
 3021TIP3    H230479   2.107   2.346   4.317  0.5003 -0.3719 -0.2532
 3022TIP3   OH230480   5.497   4.308  15.544 -0.0238  0.2963  0.2774
 3022TIP3    H130481   5.423   4.247  15.542  0.6907 -0.6726  1.4459
 3022TIP3    H230482   5.571   4.257  15.511  0.5218  0.6045  0.9977
 3023TIP3   OH230483   1.110   1.897   2.425  0.2846 -0.2093 -0.4025
 3023TIP3    H130484   1.127   1.816   2.376  0.0759 -0.7206  0.3425
 3023TIP3    H230485   1.109   1.966   2.359 -0.9507 -1.0040 -1.2592
 3024TIP3   OH230486   3.023   2.475   5.229  0.2920  0.0388  0.4630
 3024TIP3    H130487   3.092   2.539   5.244  0.4369  0.2655 -0.9751
 3024TIP3    H230488   3.029   2.415   5.303  1.6688  0.3770  0.6597
 3025TIP3   OH230489   1.790   0.295  13.360  0.0398  0.3408  0.1968
 3025TIP3    H130490   1.848   0.371  13.365  1.6836 -0.8286 -0.3399
 3025TIP3    H230491   1.704   0.333  13.339  0.6002  2.1062  0.8575
 3026TIP3   OH230492   1.661   5.126   5.529  0.4497 -0.4420  0.3829
 3026TIP3    H130493   1.613   5.135   5.446  1.4711 -0.8824 -0.2730
 3026TIP3    H230494   1.611   5.060   5.577  0.3153 -0.8063 -0.2385
 3027TIP3   OH230495   5.335   1.496  15.149  0.3775  0.6504  0.0524
 3027TIP3    H130496   5.396   1.564  15.122  0.7786  0.2878  0.0411
 3027TIP3    H230497   5.261   1.544  15.188  0.6490  1.0882  0.0317
 3028TIP3   OH230498   3.840   5.740   0.514 -0.2353  0.3993 -0.2086
 3028TIP3    H130499   3.847   5.740   0.609  2.0182 -1.3790 -0.2787
 3028TIP3    H230500   3.839   5.647   0.490  0.9971  0.7830 -1.9629
 3029TIP3   OH230501   3.771   0.404   4.247  0.8374  0.3095 -0.0177
 3029TIP3    H130502   3.801   0.493   4.266  0.9555  0.7887 -2.1375
 3029TIP3    H230503   3.723   0.412   4.164 -1.5595 -1.1552  1.1033
 3030TIP3   OH230504   4.521   5.391   4.104 -0.1453 -0.7940  0.1032
 3030TIP3    H130505   4.469   5.311   4.097 -1.1639 -0.1511 -0.0062
 3030TIP3    H230506   4.462   5.455   4.144  0.6812 -0.1244  0.2929
 3031TIP3   OH230507   6.295   5.869  12.059  0.3015  0.0408 -0.0189
 3031TIP3    H130508   6.330   5.875  12.148  1.7986  0.9438 -0.6336
 3031TIP3    H230509   6.242   5.949  12.049 -1.0220 -0.7374  0.4997
 3032TIP3   OH230510   3.422   4.721  14.807 -0.5359  0.0018 -0.1039
 3032TIP3    H130511   3.363   4.773  14.862 -1.1364  0.2634 -0.9822
 3032TIP3    H230512   3.425   4.768  14.724  0.4786 -0.3161 -0.2543
 3033TIP3   OH230513   1.085   6.459  11.253  0.0470  0.5198 -0.2293
 3033TIP3    H130514   1.138   6.534  11.225 -0.2163  1.1372  0.8627
 3033TIP3    H230515   1.060   6.416  11.172  0.8801  1.1490 -0.8385
 3034TIP3   OH230516   5.428   5.890   0.965 -0.2692  0.1829 -0.1890
 3034TIP3    H130517   5.365   5.961   0.971 -1.3623 -0.7684 -0.0245
 3034TIP3    H230518   5.436   5.871   0.871 -0.5379  0.0432 -0.1842
 3035TIP3   OH230519   2.707   5.661   2.848 -1.0095  0.2769  0.4835
 3035TIP3    H130520   2.653   5.608   2.790 -1.1345  1.7501 -0.8314
 3035TIP3    H230521   2.676   5.751   2.834  2.4759  1.4097 -1.3037
 3036TIP3   OH230522   2.986   0.334   0.891  0.1878 -0.0245 -0.1313
 3036TIP3    H130523   2.952   0.312   0.978  1.2554 -0.7703  0.1196
 3036TIP3    H230524   2.913   0.379   0.848 -0.5617 -0.1592  0.9338
 3037TIP3   OH230525   4.988   4.207  11.470  0.2900 -0.6461 -0.9317
 3037TIP3    H130526   4.979   4.161  11.386  0.3587 -0.8615 -0.8231
 3037TIP3    H230527   5.001   4.137  11.534  2.3904 -0.4097 -1.0290
 3038TIP3   OH230528   4.163   2.644  11.071  0.4655  0.4123  0.2218
 3038TIP3    H130529   4.108   2.694  11.131 -0.7320  0.2596 -0.7002
 3038TIP3    H230530   4.236   2.702  11.051 -0.6890  1.6714 -0.5167
 3039TIP3   OH230531   4.740   4.028  15.196 -0.1255  0.4191  0.0671
 3039TIP3    H130532   4.833   4.050  15.188  0.0493  0.2448  1.3985
 3039TIP3    H230533   4.734   3.979  15.278 -1.1198 -1.1307 -0.8772
 3040TIP3   OH230534   3.589   3.830   3.979  0.8044 -0.4648 -0.0243
 3040TIP3    H130535   3.569   3.737   3.968  0.6210 -0.6667  1.7796
 3040TIP3    H230536   3.562   3.850   4.068  3.6370  0.5932  0.6888
 3041TIP3   OH230537   0.249   5.002   1.098  0.2634  0.4417 -0.5297
 3041TIP3    H130538   0.186   5.002   1.027 -0.1234 -0.2266 -0.1990
 3041TIP3    H230539   0.195   5.000   1.178  0.5869  3.8101 -0.0791
 3042TIP3   OH230540   1.469   4.979  13.671  0.0962  0.0227 -0.0482
 3042TIP3    H130541   1.462   4.950  13.580 -0.4412 -0.1072  0.0299
 3042TIP3    H230542   1.461   4.898  13.722 -0.2832  0.1705  0.1331
 3043TIP3   OH230543   5.537   4.012  12.980 -0.1963 -0.0304  0.1954
 3043TIP3    H130544   5.537   3.964  13.063  2.9598  0.5092  0.6386
 3043TIP3    H230545   5.553   3.946  12.913 -0.5564 -0.1751  0.2495
 3044TIP3   OH230546   4.546   4.186  14.696 -0.0064 -0.1532 -0.0988
 3044TIP3    H130547   4.526   4.140  14.614 -0.3295 -2.0332  0.9718
 3044TIP3    H230548   4.574   4.117  14.755  2.8676  1.4887  0.6137
 3045TIP3   OH230549   3.503   0.325  14.508 -0.7906 -0.6510 -0.4674
 3045TIP3    H130550   3.574   0.312  14.445 -1.4069  0.4927 -1.4156
 3045TIP3    H230551   3.480   0.417  14.501 -1.2300 -0.6058  1.0735
 3046TIP3   OH230552   2.559   4.081  14.306  0.3938  0.4464 -0.0875
 3046TIP3    H130553   2.482   4.138  14.316  0.0905 -0.2395  1.9712
 3046TIP3    H230554   2.540   4.029  14.228 -1.0296  0.6328  0.1012
 3047TIP3   OH230555   0.521   1.752  15.489 -0.5238 -0.2214 -0.0518
 3047TIP3    H130556   0.570   1.685  15.536  0.0608  0.5614  0.4753
 3047TIP3    H230557   0.570   1.766  15.408  0.1127  0.5125  0.4447
 3048TIP3   OH230558   2.121   2.647   4.363  0.0998  0.2006 -0.3399
 3048TIP3    H130559   2.099   2.560   4.329  1.6537  0.0827 -1.0801
 3048TIP3    H230560   2.062   2.658   4.438 -0.8472 -1.0390 -0.8599
 3049TIP3   OH230561   0.603   4.617  12.115 -0.2287 -0.2033  0.5778
 3049TIP3    H130562   0.551   4.540  12.140 -0.0125 -0.7987 -0.7128
 3049TIP3    H230563   0.691   4.597  12.146 -0.3197 -0.1573  0.8682
 3050TIP3   OH230564   0.932   3.257  12.302 -0.3952 -0.4021  0.0942
 3050TIP3    H130565   0.924   3.251  12.207 -2.0407  0.4103  0.1511
 3050TIP3    H230566   1.015   3.304  12.316  0.9446 -2.3562 -0.8340
 3051TIP3   OH230567   2.210   3.308  16.500 -0.9241  0.4395 -0.4458
 3051TIP3    H130568   2.274   3.372  16.533 -0.8647  1.2604 -2.0730
 3051TIP3    H230569   2.204   3.243  16.570  1.7104  0.3005 -0.2535
 3052TIP3   OH230570   2.467   1.395   5.168 -0.2973 -0.3227 -0.7447
 3052TIP3    H130571   2.395   1.362   5.114 -1.1966 -0.1634  0.3298
 3052TIP3    H230572   2.441   1.484   5.191  1.5186  0.7774 -2.5578
 3053TIP3   OH230573   1.961   6.404  14.363 -0.0181  0.2799  0.3114
 3053TIP3    H130574   1.904   6.356  14.303  1.6403 -1.8729  0.2989
 3053TIP3    H230575   1.937   6.496  14.351 -1.4001 -0.2750 -1.8503
 3054TIP3   OH230576   1.745   1.894   1.831 -0.2046  0.1826 -0.0269
 3054TIP3    H130577   1.783   1.980   1.847 -2.2540  1.6803 -2.3279
 3054TIP3    H230578   1.776   1.840   1.903  2.2457  2.4709  0.7987
 3055TIP3   OH230579   3.783   2.466   3.970  0.1631  0.5837 -0.3310
 3055TIP3    H130580   3.694   2.504   3.973 -0.2488 -0.3087 -1.0345
 3055TIP3    H230581   3.779   2.401   3.901  0.7958 -0.9067  0.9731
 3056TIP3   OH230582   3.849   2.074   4.429 -0.1542 -0.5165 -0.4110
 3056TIP3    H130583   3.933   2.040   4.399  0.2397 -0.1414  0.2434
 3056TIP3    H230584   3.843   2.046   4.521  0.4751  1.6834  0.3593
 3057TIP3   OH230585   6.612   4.079   0.473 -0.0493  0.1049  0.6126
 3057TIP3    H130586   6.561   4.100   0.394  0.8299  0.0338  0.0107
 3057TIP3    H230587   6.554   4.023   0.524 -0.0294 -1.2604 -0.7811
 3058TIP3   OH230588   4.123   3.488  10.939  0.3928  0.6159  0.2158
 3058TIP3    H130589   4.055   3.430  10.903 -0.1495  1.1230  0.4076
 3058TIP3    H230590   4.198   3.476  10.880  0.1987 -0.0786  0.1000
 3059TIP3   OH230591   1.435   0.696   5.795  0.3779 -0.3294 -0.1481
 3059TIP3    H130592   1.388   0.661   5.871  0.1685 -1.1437 -0.6363
 3059TIP3    H230593   1.369   0.695   5.725  0.8733 -0.6625 -0.6187
 3060TIP3   OH230594   3.047   5.001   1.383  0.9605 -0.3151  0.1302
 3060TIP3    H130595   3.059   4.924   1.326 -0.8471 -0.2567 -0.3760
 3060TIP3    H230596   3.074   4.971   1.470 -0.1474 -1.6815  0.0299
 3061TIP3   OH230597   5.473   5.644  15.486 -0.0150 -0.1178 -0.0981
 3061TIP3    H130598   5.510   5.574  15.433 -0.8511 -0.4832 -0.2157
 3061TIP3    H230599   5.524   5.643  15.567 -0.9801 -1.8713  0.5310
 3062TIP3   OH230600   3.993   2.846  11.747  0.3391 -0.5140  0.0226
 3062TIP3    H130601   3.981   2.755  11.719  1.3115 -1.3415  2.1179
 3062TIP3    H230602   4.025   2.840  11.837  3.4599  1.8047 -0.7514
 3063TIP3   OH230603   0.514   0.739   2.587 -0.1506  0.4602  0.5726
 3063TIP3    H130604   0.532   0.828   2.555 -0.9569  0.3881 -0.1229
 3063TIP3    H230605   0.545   0.681   2.518 -0.4812  0.2400  0.6050
 3064TIP3   OH230606   5.724   0.617  15.484 -0.1122  0.4361  0.8053
 3064TIP3    H130607   5.736   0.555  15.411 -3.4754  0.9977 -0.4068
 3064TIP3    H230608   5.754   0.701  15.449 -0.8925  0.5375  0.3637
 3065TIP3   OH230609   2.719   1.423   0.654 -0.1736 -0.0712  0.5317
 3065TIP3    H130610   2.681   1.448   0.738  0.5111  0.1412  0.7771
 3065TIP3    H230611   2.756   1.336   0.668  2.4266  1.0717  1.2640
 3066TIP3   OH230612   4.095   5.193   2.830  0.2231 -0.1222 -0.2885
 3066TIP3    H130613   4.006   5.221   2.850  0.2152  0.6097 -1.2152
 3066TIP3    H230614   4.085   5.108   2.787  0.2014 -1.3813  2.0506
 3067TIP3   OH230615   3.272   5.604   0.772  0.0050  0.3138 -0.0201
 3067TIP3    H130616   3.343   5.541   0.770 -0.7189 -0.6010  1.4055
 3067TIP3    H230617   3.252   5.621   0.680  1.3987 -0.1618 -0.4245
 3068TIP3   OH230618   1.087   5.110   2.678  0.7319 -0.2802  0.4071
 3068TIP3    H130619   1.022   5.145   2.739 -0.0450  1.4918 -1.3066
 3068TIP3    H230620   1.094   5.017   2.701  0.2104  0.2167  2.8871
 3069TIP3   OH230621   3.945   3.982  14.551 -0.3232 -0.3734 -0.3175
 3069TIP3    H130622   3.900   4.048  14.499  0.9420  0.9581  0.2335
 3069TIP3    H230623   3.895   3.977  14.633 -1.2672 -1.1958 -0.9088
 3070TIP3   OH230624   4.460   1.314  17.193  0.6973  0.3748 -0.2408
 3070TIP3    H130625   4.481   1.229  17.233 -0.9849 -0.4304 -0.9698
 3070TIP3    H230626   4.420   1.292  17.109  0.8675  1.9331 -0.7694
 3071TIP3   OH230627   6.254   2.377  14.935  0.3347  0.1723 -0.0529
 3071TIP3    H130628   6.337   2.411  14.966  0.3440 -0.0642  0.1895
 3071TIP3    H230629   6.254   2.285  14.962  0.8290 -0.3587 -1.7377
 3072TIP3   OH230630   3.529   3.187  13.061 -0.2270 -0.0893  0.0574
 3072TIP3    H130631   3.570   3.149  12.984  1.2357  0.1753  0.6691
 3072TIP3    H230632   3.469   3.120  13.093  0.5338 -0.9308 -0.2559
 3073TIP3   OH230633   2.683   3.207  11.207 -0.2412  0.0536 -0.1066
 3073TIP3    H130634   2.772   3.240  11.223 -1.1398  2.5319  0.1506
 3073TIP3    H230635   2.658   3.163  11.288 -0.3412  2.0542  1.0087
 3074TIP3   OH230636   1.368   1.362   4.854 -0.2909 -0.2566 -0.0485
 3074TIP3    H130637   1.285   1.409   4.846 -0.3667 -0.5105 -0.8051
 3074TIP3    H230638   1.379   1.317   4.770  1.2648  0.8453 -0.4854
 3075TIP3   OH230639   0.029   5.197  17.148 -0.2605 -0.2927  0.0287
 3075TIP3    H130640   0.104   5.140  17.134  0.3752  0.5908 -0.2189
 3075TIP3    H230641   0.064   5.286  17.144 -1.2373  0.1318  0.3710
 3076TIP3   OH230642   0.777   0.324  11.085  0.0734  0.1689 -0.0775
 3076TIP3    H130643   0.693   0.289  11.058  0.2907  0.1727 -0.7916
 3076TIP3    H230644   0.755   0.406  11.130 -0.4315 -0.8692  1.6366
 3077TIP3   OH230645   0.398   3.818   1.166  0.1397  0.2996  0.2338
 3077TIP3    H130646   0.322   3.793   1.114  1.0945 -1.1343 -0.5628
 3077TIP3    H230647   0.427   3.736   1.207  1.7917  0.5876 -0.2606
 3078TIP3   OH230648   6.565   1.491  16.650  0.8143  0.5511 -0.2601
 3078TIP3    H130649   6.595   1.435  16.721  0.6447  0.4295 -0.2850
 3078TIP3    H230650   6.635   1.555  16.638 -0.0983  1.9553  1.5146
 3079TIP3   OH230651   5.657   4.970   5.368 -0.1294  0.2194  0.0629
 3079TIP3    H130652   5.637   5.061   5.346 -0.8879 -0.7512 -4.3576
 3079TIP3    H230653   5.749   4.959   5.345 -0.5649 -0.5211 -1.4829
 3080TIP3   OH230654   5.880   1.886   3.245  0.1359  0.3576  0.1703
 3080TIP3    H130655   5.934   1.919   3.173  0.1320 -0.3680 -0.1703
 3080TIP3    H230656   5.944   1.856   3.310  0.1376  0.7070  0.3342
 3081TIP3   OH230657   6.044   4.220  12.116  0.0711 -0.7068 -0.0364
 3081TIP3    H130658   6.043   4.280  12.041 -1.5741 -0.6735 -0.0221
 3081TIP3    H230659   5.979   4.257  12.176 -0.7291 -2.3047  0.1184
 3082TIP3   OH230660   5.000   6.002  13.149 -0.3380 -0.3787 -0.5693
 3082TIP3    H130661   5.062   5.929  13.143  0.6409  0.0146  2.7271
 3082TIP3    H230662   5.022   6.045  13.232 -2.8854  1.8308 -0.9111
 3083TIP3   OH230663   0.903   3.434   4.564  0.3688  0.5851 -0.0578
 3083TIP3    H130664   0.922   3.393   4.480  0.6580  3.8495 -1.7284
 3083TIP3    H230665   0.985   3.430   4.612  0.8107  0.5856 -0.8041
 3084TIP3   OH230666   0.731   4.664   0.613  0.0999 -0.6339  0.3006
 3084TIP3    H130667   0.726   4.643   0.520 -0.3417 -0.7557  0.3471
 3084TIP3    H230668   0.732   4.579   0.657 -1.6096 -0.5985  0.4857
 3085TIP3   OH230669   3.160   1.079   1.971  0.0515 -0.0321 -0.5282
 3085TIP3    H130670   3.108   1.018   1.919 -0.4105 -0.0993 -0.0015
 3085TIP3    H230671   3.117   1.079   2.057  0.9283 -0.0974 -0.0813
 3086TIP3   OH230672   4.299   1.192  16.199  0.2150  0.7078 -0.0244
 3086TIP3    H130673   4.329   1.135  16.270  0.8848  1.6115  0.4270
 3086TIP3    H230674   4.373   1.198  16.140 -0.1548  0.4067 -0.5265
 3087TIP3   OH230675   2.820   3.637  11.028  0.8224  0.3243 -0.1829
 3087TIP3    H130676   2.809   3.724  11.066  0.2198  1.1442 -2.0882
 3087TIP3    H230677   2.736   3.619  10.985  0.7711 -1.4281  0.5542
 3088TIP3   OH230678   1.739   1.530  14.034  0.8121 -0.7229  0.0325
 3088TIP3    H130679   1.724   1.439  14.059  0.4390 -1.1506 -1.6324
 3088TIP3    H230680   1.669   1.550  13.972  1.7024  0.2443 -0.6956
 3089TIP3   OH230681   0.298   5.384   6.336  0.8580 -0.2421 -0.1337
 3089TIP3    H130682   0.311   5.290   6.323  0.4018 -0.3521  0.2108
 3089TIP3    H230683   0.302   5.421   6.248  0.4748 -0.6515 -0.3236
 3090TIP3   OH230684   5.652   3.332  12.425 -0.0103 -0.0721  0.1488
 3090TIP3    H130685   5.650   3.329  12.329  0.6784  0.5991  0.1066
 3090TIP3    H230686   5.705   3.409  12.446  1.2744 -1.1516  1.0627
 3091TIP3   OH230687   6.520   0.090  14.989  0.0794  0.5668 -0.3110
 3091TIP3    H130688   6.499   0.146  15.064  0.6421 -0.0336  0.3009
 3091TIP3    H230689   6.616   0.087  14.988  0.0708  0.4205 -0.9519
 3092TIP3   OH230690   0.996   2.848  15.453 -0.2323  0.4848 -0.7326
 3092TIP3    H130691   0.983   2.789  15.528  0.5225 -1.6479 -2.1985
 3092TIP3    H230692   0.908   2.860  15.418 -0.1916 -1.7993 -1.8110
 3093TIP3   OH230693   2.830   4.178  11.935 -0.2105 -0.1578  0.5601
 3093TIP3    H130694   2.921   4.206  11.937 -0.2918  0.0769  1.0226
 3093TIP3    H230695   2.782   4.254  11.902 -0.2587 -0.2305  0.4615
 3094TIP3   OH230696   1.138   4.998   5.925 -0.0758 -0.0680 -0.4067
 3094TIP3    H130697   1.140   4.960   6.013  0.6858 -1.0709 -0.8446
 3094TIP3    H230698   1.045   5.000   5.902 -0.1645 -1.4183 -0.2510
 3095TIP3   OH230699   3.932   5.320  14.277 -0.6407  0.1897  0.2223
 3095TIP3    H130700   4.002   5.268  14.316 -0.6060 -1.7700 -2.2280
 3095TIP3    H230701   3.978   5.384  14.222 -0.7443  1.4143  1.5114
 3096TIP3   OH230702   6.265   3.952  16.898 -0.0436  0.0758  0.3490
 3096TIP3    H130703   6.288   3.888  16.831 -0.9869 -0.4410  0.4967
 3096TIP3    H230704   6.320   3.930  16.973 -0.6347 -0.8272  0.5333
 3097TIP3   OH230705   1.494   2.538  12.497 -0.3446  0.5962 -0.2692
 3097TIP3    H130706   1.464   2.487  12.422  0.0161 -0.1537  0.0853
 3097TIP3    H230707   1.588   2.524  12.500 -0.2481  1.2352 -0.1193
 3098TIP3   OH230708   1.849   2.627   3.460  0.5423  0.0525  0.1058
 3098TIP3    H130709   1.911   2.674   3.515 -0.4770 -0.0573  1.3863
 3098TIP3    H230710   1.783   2.593   3.520 -0.2883 -0.5942 -1.1134
 3099TIP3   OH230711   3.751   3.187  12.225 -0.4122  0.1406  0.0943
 3099TIP3    H130712   3.728   3.096  12.207 -0.2768  0.1251 -0.0097
 3099TIP3    H230713   3.818   3.182  12.293  0.6130  0.0806 -0.8906
 3100TIP3   OH230714   6.182   0.039  15.140  0.0593 -0.2712  0.1753
 3100TIP3    H130715   6.223  -0.040  15.103 -0.9197 -1.4715  1.5161
 3100TIP3    H230716   6.132   0.076  15.068  0.3137 -1.0299 -0.4129
 3101TIP3   OH230717   3.940   3.499   4.283 -0.0638  0.7917  0.7621
 3101TIP3    H130718   3.911   3.445   4.357 -0.9256  1.2759  0.7843
 3101TIP3    H230719   3.986   3.437   4.225 -0.2716  0.2109  1.2053
 3102TIP3   OH230720   1.604   6.633  14.443 -0.3381  0.4788  0.2073
 3102TIP3    H130721   1.649   6.578  14.379  1.4339  0.6638  1.2089
 3102TIP3    H230722   1.512   6.632  14.416  0.4983  1.7761 -3.1955
 3103TIP3   OH230723   4.359   3.015  13.672 -0.2393  0.0881  0.0191
 3103TIP3    H130724   4.407   3.095  13.650 -0.5758  0.6900  1.3107
 3103TIP3    H230725   4.425   2.955  13.705 -0.1922  0.5124  0.7439
 3104TIP3   OH230726   6.185   0.159   1.645  0.3066 -0.0964  0.1302
 3104TIP3    H130727   6.277   0.134   1.648  0.4261  0.3861  0.6157
 3104TIP3    H230728   6.152   0.120   1.564  0.8259 -0.6370  0.1732
 3105TIP3   OH230729   1.246   6.608  11.945  0.6849 -0.0898  0.1564
 3105TIP3    H130730   1.330   6.652  11.959  0.4720 -0.3013  2.5878
 3105TIP3    H230731   1.186   6.650  12.007 -0.9525 -0.1566 -1.3143
 3106TIP3   OH230732   6.273   1.056  13.443 -0.0804 -0.6999  0.6692
 3106TIP3    H130733   6.190   1.007  13.443  0.4786 -1.8075 -2.0080
 3106TIP3    H230734   6.295   1.066  13.350  2.5067  0.0675  1.2878
 3107TIP3   OH230735   6.215   0.114  15.460 -0.0837 -0.0239 -0.7712
 3107TIP3    H130736   6.289   0.083  15.408  1.4943  1.3599  0.5417
 3107TIP3    H230737   6.255   0.149  15.540 -2.2546 -0.2141  0.4692
 3108TIP3   OH230738   6.209   6.034  17.177 -0.0509 -0.2335  0.2951
 3108TIP3    H130739   6.299   6.058  17.155  0.3438 -1.4560  0.4550
 3108TIP3    H230740   6.180   6.102  17.238  0.9142 -0.0398  0.5590
 3109TIP3   OH230741   0.787   1.991   3.993  0.3896  0.2214 -0.1017
 3109TIP3    H130742   0.830   2.074   3.971  0.3234  0.1432 -0.5404
 3109TIP3    H230743   0.751   2.006   4.080  0.7901  0.4917  0.0258
 3110TIP3   OH230744   4.093   6.707   3.579 -0.7247 -0.0377  0.4799
 3110TIP3    H130745   4.142   6.684   3.658 -0.3809  0.1923  0.3378
 3110TIP3    H230746   4.087   6.803   3.582 -1.7960 -0.1049  0.8669
 3111TIP3   OH230747   1.554   2.470  13.391  0.3870  0.1060  0.0342
 3111TIP3    H130748   1.614   2.486  13.464  0.3940 -2.6624  0.7377
 3111TIP3    H230749   1.592   2.519  13.318  1.2647  1.6469  1.4565
 3112TIP3   OH230750   0.666   6.438  11.420 -0.1495  0.4355  1.1889
 3112TIP3    H130751   0.577   6.472  11.410 -0.2879  0.5251  2.5263
 3112TIP3    H230752   0.672   6.366  11.358 -1.2415  0.2877  1.2414
 3113TIP3   OH230753   0.656   5.253  15.250  0.0468  0.0262 -0.0138
 3113TIP3    H130754   0.736   5.276  15.296 -0.8264  0.4408  1.3380
 3113TIP3    H230755   0.585   5.274  15.311 -1.2466  1.6639 -1.9515
 3114TIP3   OH230756   5.422   6.264   1.105  0.2996 -0.4549  0.0536
 3114TIP3    H130757   5.424   6.356   1.132 -2.9855 -0.1196 -0.4331
 3114TIP3    H230758   5.442   6.215   1.184  1.1376  0.6424  0.5496
 3115TIP3   OH230759   2.848   0.177   5.634  0.5739 -0.4593  0.1802
 3115TIP3    H130760   2.755   0.197   5.640  0.5255 -0.7669  0.5102
 3115TIP3    H230761   2.892   0.261   5.650  0.3649 -0.5073  1.0828
 3116TIP3   OH230762   2.637   0.238   0.651  0.6630 -0.3184  0.2978
 3116TIP3    H130763   2.700   0.302   0.685  0.4854 -0.2616  0.5268
 3116TIP3    H230764   2.685   0.155   0.650  1.3342  0.0629 -1.3138
 3117TIP3   OH230765   5.594   0.782   0.986 -0.4523 -0.3436 -0.0254
 3117TIP3    H130766   5.523   0.720   1.003 -1.5102  0.6505 -0.6587
 3117TIP3    H230767   5.603   0.831   1.069 -1.9420  0.8932 -0.5360
 3118TIP3   OH230768   1.764   5.334   1.461 -0.4754  0.8149 -0.5699
 3118TIP3    H130769   1.685   5.295   1.425 -0.9876  0.1602  1.1664
 3118TIP3    H230770   1.788   5.276   1.534  1.9685  0.6278 -1.4167
 3119TIP3   OH230771   5.999   3.192  10.599 -0.0391  0.0347  0.3450
 3119TIP3    H130772   6.025   3.112  10.644  1.3114  0.3959  0.2507
 3119TIP3    H230773   6.054   3.260  10.637  2.1405  0.1523 -2.6666
 3120TIP3   OH230774   5.825   0.980  13.548 -0.6659  0.1620  0.1408
 3120TIP3    H130775   5.803   1.031  13.470 -0.3898 -0.3083 -0.2512
 3120TIP3    H230776   5.801   0.890  13.526 -0.0092 -0.0770  0.3627
 3121TIP3   OH230777   2.528   2.283   4.869  0.3598 -0.1073 -0.6209
 3121TIP3    H130778   2.528   2.187   4.873 -1.7950 -0.1539 -0.6821
 3121TIP3    H230779   2.518   2.310   4.961  0.5460  0.0618 -0.6496
 3122TIP3   OH230780   0.318   6.445  13.459 -0.0359 -0.1871 -0.2685
 3122TIP3    H130781   0.229   6.418  13.483  0.6008 -1.7000  0.5238
 3122TIP3    H230782   0.342   6.388  13.386  0.5973 -0.3709  0.0801
 3123TIP3   OH230783   4.107   6.246  10.475  0.0335 -0.0183  0.1534
 3123TIP3    H130784   4.016   6.263  10.501 -0.2265 -1.1055 -0.0140
 3123TIP3    H230785   4.118   6.152  10.486  1.7425  0.3267  2.0660
 3124TIP3   OH230786   3.103   0.707   3.279  0.3039  0.5958 -0.6265
 3124TIP3    H130787   3.165   0.642   3.246 -0.5995 -0.2939 -0.6575
 3124TIP3    H230788   3.125   0.717   3.372 -0.4081 -0.8244 -0.2787
 3125TIP3   OH230789   4.305   3.896   4.946  0.1109  1.2857  0.0895
 3125TIP3    H130790   4.307   3.990   4.966 -0.1355  1.8120 -2.1278
 3125TIP3    H230791   4.214   3.870   4.959 -0.5662  2.1544 -2.3395
 3126TIP3   OH230792   1.657   1.375  12.275  0.1839  0.0982  0.0214
 3126TIP3    H130793   1.574   1.404  12.237  1.4265  0.6633 -2.4635
 3126TIP3    H230794   1.638   1.288  12.310 -1.3393 -0.0063 -0.9651
 3127TIP3   OH230795   4.490   0.779  16.017  0.3392 -0.1280  0.4267
 3127TIP3    H130796   4.516   0.804  16.105  2.0326 -1.6481  0.4259
 3127TIP3    H230797   4.444   0.696  16.028 -1.9801  1.0122  0.0903
 3128TIP3   OH230798   6.079   3.714  15.996 -0.2058  0.1106  0.0635
 3128TIP3    H130799   6.060   3.806  16.013 -0.1260 -0.0868  1.3630
 3128TIP3    H230800   6.002   3.680  15.951 -1.6882  0.0610  2.4546
 3129TIP3   OH230801   1.620   5.450   4.790 -0.1068 -0.1370 -0.0344
 3129TIP3    H130802   1.672   5.420   4.865  0.2533  2.4282  0.8371
 3129TIP3    H230803   1.670   5.523   4.754 -0.8380 -0.5846 -2.1372
 3130TIP3   OH230804   5.097   5.928   4.619  0.0860  0.1556  0.1488
 3130TIP3    H130805   5.143   5.846   4.632 -0.9143 -0.3709  0.4504
 3130TIP3    H230806   5.072   5.927   4.526 -0.6913 -0.2920  0.3599
 3131TIP3   OH230807   6.169   6.137  13.991 -0.2369  0.9291 -0.2189
 3131TIP3    H130808   6.191   6.229  14.009  1.6886  0.2848  1.0749
 3131TIP3    H230809   6.173   6.130  13.895  0.9849  1.9027 -0.2711
 3132TIP3   OH230810   0.219   6.013  11.942 -0.6913  0.1449  0.1916
 3132TIP3    H130811   0.191   6.058  12.022 -0.0472  0.0038  0.5036
 3132TIP3    H230812   0.186   5.923  11.952 -0.1644 -0.0186  0.5556
 3133TIP3   OH230813   4.880   3.371   3.708  0.0879 -0.0735  0.2094
 3133TIP3    H130814   4.849   3.419   3.785 -1.8161 -1.6410  0.4949
 3133TIP3    H230815   4.801   3.354   3.657  1.0486 -0.7854 -1.0917
 3134TIP3   OH230816   2.334   1.567   0.721  0.1909  0.0589 -0.1634
 3134TIP3    H130817   2.370   1.579   0.633 -1.6187  0.3003 -0.9285
 3134TIP3    H230818   2.408   1.538   0.774  1.4310  0.3556 -1.6563
 3135TIP3   OH230819   4.234   0.010   2.273  0.0652  0.2452 -0.2761
 3135TIP3    H130820   4.256   0.099   2.300  3.1862 -0.7841  1.0359
 3135TIP3    H230821   4.303  -0.014   2.210 -0.5463 -1.3188 -0.4015
 3136TIP3   OH230822   5.065   2.777   4.290 -0.4890  0.3253 -0.3105
 3136TIP3    H130823   5.117   2.709   4.335 -0.7681 -0.0072 -0.4861
 3136TIP3    H230824   5.046   2.739   4.204  0.0977  0.9884 -0.7425
 3137TIP3   OH230825   3.858   3.534   5.431 -0.5079  0.4998  0.1835
 3137TIP3    H130826   3.906   3.586   5.496  3.0695 -0.4346 -1.4402
 3137TIP3    H230827   3.887   3.444   5.445 -2.1315 -0.2076 -0.7055
 3138TIP3   OH230828   1.229   5.575  15.811  0.2328 -0.6148  0.3607
 3138TIP3    H130829   1.290   5.548  15.742 -1.5548 -2.5276 -0.5619
 3138TIP3    H230830   1.263   5.536  15.891  1.4663  0.3153  0.3190
 3139TIP3   OH230831   6.271   5.478   6.071 -0.5067 -0.6102  0.0296
 3139TIP3    H130832   6.244   5.406   6.014  1.1841  0.3569 -2.1310
 3139TIP3    H230833   6.356   5.505   6.037 -0.7428  1.9475  1.2244
 3140TIP3   OH230834   5.430   0.863  14.929  0.3050  0.0639 -0.9218
 3140TIP3    H130835   5.425   0.823  15.016  1.8974  0.6154 -0.5575
 3140TIP3    H230836   5.523   0.877  14.913  0.0094  0.4977 -2.4877
 3141TIP3   OH230837   4.333   4.134   2.029  0.3343 -0.1988  0.1070
 3141TIP3    H130838   4.254   4.102   2.073  0.9637 -2.0058  0.0021
 3141TIP3    H230839   4.308   4.138   1.937  0.0328  0.3204  0.2085
 3142TIP3   OH230840   5.440   2.305  16.090 -0.0621 -0.4913 -0.4364
 3142TIP3    H130841   5.370   2.279  16.150 -1.4712  1.1715 -1.2704
 3142TIP3    H230842   5.419   2.258  16.008  0.2705 -0.6062 -0.4586
 3143TIP3   OH230843   1.686   3.507   2.582 -0.1072  0.2776  0.1473
 3143TIP3    H130844   1.665   3.600   2.594 -2.2175 -0.1689  0.2082
 3143TIP3    H230845   1.765   3.494   2.635  1.2144  2.3653 -1.1370
 3144TIP3   OH230846   0.495   3.077  12.185  0.0741  0.2475  0.0566
 3144TIP3    H130847   0.505   3.061  12.279  0.8738 -1.3927 -0.2687
 3144TIP3    H230848   0.406   3.048  12.166 -0.4866  1.6013  0.4641
 3145TIP3   OH230849   0.583   1.778  13.485 -0.4502 -0.5444  0.0068
 3145TIP3    H130850   0.655   1.764  13.423 -0.4448 -0.9716  0.1031
 3145TIP3    H230851   0.550   1.690  13.502 -0.4317 -0.4284  0.6397
 3146TIP3   OH230852   4.441   4.733   0.922  0.4714  1.1608 -0.6698
 3146TIP3    H130853   4.512   4.758   0.981  0.1230 -2.0582  1.3454
 3146TIP3    H230854   4.457   4.640   0.904 -3.5603  0.0762  0.4536
 3147TIP3   OH230855   4.985   4.171  13.944  0.6452  0.1906 -0.1696
 3147TIP3    H130856   4.978   4.207  14.032 -0.7742 -0.8983  0.2080
 3147TIP3    H230857   5.076   4.186  13.919  0.8676  1.2385  1.1561
 3148TIP3   OH230858   5.761   6.649   1.962  0.3983 -0.3099  0.0688
 3148TIP3    H130859   5.779   6.739   1.989 -1.0863 -0.1115  0.4335
 3148TIP3    H230860   5.812   6.595   2.023  1.0469  0.2652  0.0465
 3149TIP3   OH230861   3.967   0.729  13.099 -0.2066  0.0428 -0.2802
 3149TIP3    H130862   3.928   0.705  13.183 -0.5432 -0.6120 -0.6174
 3149TIP3    H230863   3.938   0.661  13.038  0.5760  0.1419 -0.7848
 3150TIP3   OH230864   2.640   2.938   3.601  0.1521 -0.0355 -0.0405
 3150TIP3    H130865   2.727   2.926   3.640  0.9605  2.0879 -1.0034
 3150TIP3    H230866   2.643   2.886   3.521 -0.7249 -2.6209  1.4821
 3151TIP3   OH230867   0.627   2.286  12.558  0.7881 -0.5197 -0.2022
 3151TIP3    H130868   0.639   2.338  12.479  0.6955 -0.5682 -0.2496
 3151TIP3    H230869   0.535   2.258  12.554  0.8815 -0.8184 -0.2587
 3152TIP3   OH230870   5.433   5.934  12.488 -0.3944 -0.3198  0.3252
 3152TIP3    H130871   5.458   6.015  12.532  2.7960 -0.6523 -0.6389
 3152TIP3    H230872   5.397   5.879  12.559 -0.7308  1.1684  1.3587
 3153TIP3   OH230873   6.079   5.718  11.129 -0.4646  0.1572  0.4126
 3153TIP3    H130874   6.049   5.793  11.181  0.5459  1.2829 -0.5785
 3153TIP3    H230875   6.171   5.737  11.110 -0.5947 -0.6050 -1.1205
 3154TIP3   OH230876   2.151   3.951  11.312  0.0747  0.0189 -0.7499
 3154TIP3    H130877   2.240   3.952  11.347  0.5911 -0.7808 -1.9489
 3154TIP3    H230878   2.155   4.008  11.235 -0.5237  0.2015 -0.6494
 3155TIP3   OH230879   1.147   5.617   1.917 -0.3494 -0.8657 -0.1155
 3155TIP3    H130880   1.221   5.643   1.971  0.2227  0.8465 -1.6289
 3155TIP3    H230881   1.088   5.692   1.919  0.2624 -0.1864 -2.7580
 3156TIP3   OH230882   0.334   5.853   4.098  0.1369  0.1430 -0.1401
 3156TIP3    H130883   0.254   5.825   4.054 -0.5787  1.0928  0.5258
 3156TIP3    H230884   0.322   5.827   4.189  0.0687  1.3327  0.2022
 3157TIP3   OH230885   2.763   2.305   2.670 -0.0128 -0.2214 -0.5393
 3157TIP3    H130886   2.730   2.387   2.632 -3.3526 -0.7485  0.8835
 3157TIP3    H230887   2.751   2.240   2.601  1.4162  0.1701 -1.2072
 3158TIP3   OH230888   2.545   0.472  13.573  0.0837  0.3944 -0.2890
 3158TIP3    H130889   2.613   0.453  13.637 -0.9361 -0.0160  0.7196
 3158TIP3    H230890   2.535   0.391  13.524  1.2459  0.8767 -1.3735
 3159TIP3   OH230891   1.976   4.507  15.672  0.2380  0.3856  0.3751
 3159TIP3    H130892   2.025   4.559  15.736 -1.1395  0.6837  1.2394
 3159TIP3    H230893   1.887   4.505  15.707 -0.9981  1.9853 -2.3498
 3160TIP3   OH230894   4.644   0.992   5.647 -0.9073  0.6109 -0.1930
 3160TIP3    H130895   4.638   1.024   5.737  1.8947  0.2767  0.2030
 3160TIP3    H230896   4.626   1.070   5.593  0.4076  1.5915  0.7146
 3161TIP3   OH230897   5.062   3.277  16.070  0.1082 -0.4320  0.3614
 3161TIP3    H130898   5.119   3.354  16.062 -0.2174 -0.1425  0.7314
 3161TIP3    H230899   5.066   3.235  15.985  0.7861 -0.3512  0.3477
 3162TIP3   OH230900   3.966   1.811  13.623  0.0540  0.4864 -0.1133
 3162TIP3    H130901   3.912   1.735  13.647 -0.1155 -0.0684 -2.1070
 3162TIP3    H230902   3.906   1.870  13.577  0.8316  0.4719 -1.1863
 3163TIP3   OH230903   5.490   2.929   0.554  0.1270  0.4960 -0.3085
 3163TIP3    H130904   5.434   2.983   0.499  0.5921  1.8568  0.5255
 3163TIP3    H230905   5.454   2.936   0.642 -0.1978 -1.1089 -0.2700
 3164TIP3   OH230906   2.032   6.641  17.156 -0.5302 -0.7967 -0.0472
 3164TIP3    H130907   2.106   6.595  17.116 -0.9440 -2.5837  1.1024
 3164TIP3    H230908   2.063   6.664  17.244 -0.9873 -0.6235  0.0712
 3165TIP3   OH230909   3.548   4.840   4.610  0.2262 -0.1353 -0.2946
 3165TIP3    H130910   3.459   4.810   4.593  0.6543 -2.1458  0.6942
 3165TIP3    H230911   3.552   4.927   4.570 -1.5029 -0.8575 -2.2489
 3166TIP3   OH230912   1.141   5.541   1.655  0.0089 -0.2377  0.2393
 3166TIP3    H130913   1.153   5.627   1.616 -0.2722 -0.8165 -1.1626
 3166TIP3    H230914   1.135   5.558   1.749 -0.4936  1.3133 -0.0542
 3167TIP3   OH230915   4.299   3.123   4.594 -0.5871  0.5067  0.2692
 3167TIP3    H130916   4.293   3.065   4.670  0.2590 -0.0371 -0.0629
 3167TIP3    H230917   4.212   3.163   4.587 -1.4742 -1.3804 -0.0024
 3168TIP3   OH230918   6.105   4.037   2.595 -0.2732  0.4800  0.2242
 3168TIP3    H130919   6.127   4.011   2.506 -0.3790  2.0454 -0.3006
 3168TIP3    H230920   6.188   4.034   2.643  0.0447  0.9682 -0.2927
 3169TIP3   OH230921   0.901   2.854  11.350  0.1070  0.4253  0.6534
 3169TIP3    H130922   0.968   2.890  11.291 -2.0775 -1.0137 -3.0353
 3169TIP3    H230923   0.916   2.760  11.347 -2.7445 -0.0833 -1.4167
 3170TIP3   OH230924   0.204   1.662  14.203 -0.0355  0.0515 -0.5240
 3170TIP3    H130925   0.142   1.639  14.135  0.0137 -2.2319  0.1102
 3170TIP3    H230926   0.261   1.585  14.211 -0.5503 -0.1333  2.6128
 3171TIP3   OH230927   5.791   3.017   5.189  0.2800 -0.3161  0.6770
 3171TIP3    H130928   5.875   2.976   5.210  0.6165 -0.3605 -0.6943
 3171TIP3    H230929   5.780   3.084   5.257  1.6740  0.0322  0.5932
 3172TIP3   OH230930   4.789   5.489  12.993 -0.7542  0.1114  0.4730
 3172TIP3    H130931   4.793   5.393  12.998 -1.9524 -0.0091 -0.6154
 3172TIP3    H230932   4.790   5.508  12.899  2.0614  1.3316  0.6482
 3173TIP3   OH230933   1.869   6.003  11.747 -0.2991  0.1575 -0.4001
 3173TIP3    H130934   1.900   5.933  11.804  0.7669  1.1400  0.2792
 3173TIP3    H230935   1.819   5.959  11.679 -0.9825 -1.1144  0.8867
 3174TIP3   OH230936   1.356   4.884  11.810 -0.2053 -0.4873 -0.1369
 3174TIP3    H130937   1.360   4.972  11.771  1.0273  0.7082  2.4586
 3174TIP3    H230938   1.289   4.890  11.877 -0.3224 -1.6612 -0.1279
 3175TIP3   OH230939   2.329   2.540   2.442  0.1175  0.4450 -0.0238
 3175TIP3    H130940   2.285   2.466   2.484 -0.8723  0.8548 -0.3107
 3175TIP3    H230941   2.317   2.613   2.504  0.1807  0.6155 -0.2110
 3176TIP3   OH230942   1.511   1.417  15.009  0.3808 -0.0933  0.2607
 3176TIP3    H130943   1.590   1.388  14.963  2.3212  2.9738  1.3565
 3176TIP3    H230944   1.523   1.386  15.098 -0.3731 -0.7938  0.1302
 3177TIP3   OH230945   1.652   3.668  13.812 -0.0131 -0.2853 -0.4218
 3177TIP3    H130946   1.580   3.629  13.763 -0.9306 -1.9904  2.0710
 3177TIP3    H230947   1.710   3.594  13.832  0.8579  0.5392  0.1921
 3178TIP3   OH230948   4.220   5.032  14.856 -0.2574 -0.4849 -0.4199
 3178TIP3    H130949   4.265   4.970  14.914 -0.2176 -0.5815 -0.5537
 3178TIP3    H230950   4.233   5.117  14.898  0.8910 -0.3818 -0.9583
 3179TIP3   OH230951   1.170   1.887   4.196 -0.4635  0.5897 -0.0892
 3179TIP3    H130952   1.124   1.937   4.128  1.2017 -0.2578 -1.9380
 3179TIP3    H230953   1.188   1.951   4.265  0.7183  2.3820 -1.9265
 3180TIP3   OH230954   5.729   2.109   3.282  0.3546 -0.3686 -0.1844
 3180TIP3    H130955   5.784   2.032   3.268  0.7167 -0.0433 -0.6055
 3180TIP3    H230956   5.683   2.120   3.199  1.5834  0.8569 -0.7485
 3181TIP3   OH230957   5.752   6.025   5.127  0.3050 -0.1113  0.1503
 3181TIP3    H130958   5.744   5.946   5.182 -0.9703  0.1896  0.4288
 3181TIP3    H230959   5.749   6.097   5.190  0.7973  0.1904 -0.1681
 3182TIP3   OH230960   5.019   6.339   1.692  0.4215  0.2478  0.0265
 3182TIP3    H130961   5.028   6.385   1.776 -1.0644  0.1210  0.2803
 3182TIP3    H230962   5.084   6.380   1.636  0.5793  1.2114  0.8742
 3183TIP3   OH230963   5.964   2.767   0.421  0.3327  0.1257  0.0677
 3183TIP3    H130964   5.993   2.856   0.400  0.6294 -0.5928 -3.0285
 3183TIP3    H230965   5.874   2.778   0.451 -0.4062  1.3906 -2.3111
 3184TIP3   OH230966   4.800   2.860   4.802 -0.0041  0.4916  0.1271
 3184TIP3    H130967   4.768   2.950   4.799  0.6524  0.7243 -0.0661
 3184TIP3    H230968   4.848   2.854   4.885 -1.3753 -0.1509  0.9093
 3185TIP3   OH230969   5.986   2.714  12.652  0.5968  0.4314 -0.4079
 3185TIP3    H130970   5.916   2.681  12.708  0.7373 -0.9688 -1.0100
 3185TIP3    H230971   5.982   2.809  12.662 -1.0376  0.3511 -0.0089
 3186TIP3   OH230972   6.293   1.712  16.904  0.1251  0.4224  0.3501
 3186TIP3    H130973   6.234   1.664  16.845  0.3761  0.1419  0.3241
 3186TIP3    H230974   6.257   1.695  16.991  0.5171 -0.2545  0.3869
 3187TIP3   OH230975   2.042   0.499   0.650  0.0788  0.2522  0.5823
 3187TIP3    H130976   1.955   0.522   0.681 -0.6098 -0.6812 -0.5575
 3187TIP3    H230977   2.071   0.576   0.600  0.4693  1.0644  2.0060
 3188TIP3   OH230978   2.577   2.203  11.440 -0.1592  0.3515 -0.1679
 3188TIP3    H130979   2.637   2.278  11.436 -1.5404  1.6651  1.5997
 3188TIP3    H230980   2.546   2.192  11.350  0.1623  1.8555 -0.5007
 3189TIP3   OH230981   5.687   2.099   2.774  0.1649  0.0038  0.1643
 3189TIP3    H130982   5.747   2.031   2.743 -0.6577 -0.9787  0.6679
 3189TIP3    H230983   5.678   2.081   2.868 -1.3582 -0.2348 -0.0042
 3190TIP3   OH230984   1.986   0.119   5.313 -0.2479  0.6426 -0.1038
 3190TIP3    H130985   1.948   0.047   5.263 -1.5071  0.6098  0.8364
 3190TIP3    H230986   1.932   0.124   5.393  0.2923  2.1158  0.2082
 3191TIP3   OH230987   5.067   0.735   3.928  0.4308 -0.1809  0.4327
 3191TIP3    H130988   5.119   0.742   3.848 -0.7703  1.0065 -0.2756
 3191TIP3    H230989   5.133   0.728   3.998  1.4997 -0.8380 -0.5979
 3192TIP3   OH230990   0.347   3.571   1.256 -0.6021  0.0422 -0.2135
 3192TIP3    H130991   0.337   3.585   1.350  1.6174  2.0579 -0.2152
 3192TIP3    H230992   0.260   3.540   1.228 -1.3108 -0.6648  2.4499
 3193TIP3   OH230993   5.503   0.493  10.888  0.2179  0.1446 -0.4649
 3193TIP3    H130994   5.504   0.573  10.941 -0.7488  0.2973 -0.6540
 3193TIP3    H230995   5.590   0.489  10.849  0.7197  0.3835  0.6073
 3194TIP3   OH230996   4.655   1.939  11.632 -0.2120 -0.6180 -0.3067
 3194TIP3    H130997   4.561   1.942  11.648 -0.1497  0.8839 -0.1025
 3194TIP3    H230998   4.663   1.923  11.538 -0.6757 -0.6758 -0.3347
 3195TIP3   OH230999   0.137   6.209  14.518  0.0553 -0.0101  0.4279
 3195TIP3    H131000   0.066   6.173  14.571 -0.1999 -0.3417 -0.1348
 3195TIP3    H231001   0.210   6.148  14.532  0.2105  0.2907  0.9471
 3196TIP3   OH231002   2.662   3.078  11.492 -0.2578  0.2363 -0.0044
 3196TIP3    H131003   2.635   2.989  11.516 -1.5629  0.4807 -0.4889
 3196TIP3    H231004   2.757   3.075  11.491 -0.2384 -0.7789  1.4166
 3197TIP3   OH231005   0.914   0.826  16.612 -0.2182 -0.1810 -0.2066
 3197TIP3    H131006   0.851   0.889  16.646  1.4833  1.2150  0.5344
 3197TIP3    H231007   0.897   0.821  16.518 -2.6759 -1.3805  0.2225
 3198TIP3   OH231008   5.897   0.040   4.656  0.4335 -0.0684  0.2243
 3198TIP3    H131009   5.916   0.022   4.748  0.6977 -0.2536  0.1334
 3198TIP3    H231010   5.801   0.034   4.649  0.4695 -0.7637  0.3325
 3199TIP3   OH231011   6.244   5.028   1.767 -0.1819  0.3294  0.3538
 3199TIP3    H131012   6.306   4.978   1.713  0.2199  0.6052  0.5526
 3199TIP3    H231013   6.277   5.118   1.764 -0.2729  0.3812  0.8871
 3200TIP3   OH231014   2.212   2.076   2.050 -0.1523 -0.2026 -1.0954
 3200TIP3    H131015   2.249   2.124   1.976  1.3520  0.2510 -0.0940
 3200TIP3    H231016   2.212   2.138   2.122  0.3444 -1.2182 -0.1836
 3201TIP3   OH231017   4.896   6.289   1.354  0.4497  0.4346 -0.8235
 3201TIP3    H131018   4.874   6.210   1.403 -0.9630  1.0428 -0.4275
 3201TIP3    H231019   4.991   6.285   1.343  0.3908 -1.3318 -0.8719
 3202TIP3   OH231020   4.155   0.955   5.759 -0.2970 -0.0580  0.4130
 3202TIP3    H131021   4.214   0.993   5.824 -0.5937  1.1224  0.0165
 3202TIP3    H231022   4.071   0.949   5.804  0.2197 -2.4102  1.2173
 3203TIP3   OH231023   6.243   2.323   4.948  0.0777 -0.0334 -0.3556
 3203TIP3    H131024   6.261   2.300   4.856  0.0391  0.7473 -0.5602
 3203TIP3    H231025   6.286   2.407   4.960 -0.3280  0.0929  0.2117
 3204TIP3   OH231026   5.431   5.299  17.038  0.3774 -1.0630 -0.6300
 3204TIP3    H131027   5.518   5.283  17.001  0.2176 -0.0205 -1.5200
 3204TIP3    H231028   5.389   5.359  16.976 -0.1034  0.3463  0.9783
 3205TIP3   OH231029   5.884   4.672   4.096 -0.3046  0.3555  0.0055
 3205TIP3    H131030   5.789   4.669   4.113 -0.0572  0.0099  1.5168
 3205TIP3    H231031   5.907   4.583   4.072 -0.2016  0.1928  0.6875
 3206TIP3   OH231032   2.285   5.942   0.105  0.9327 -0.0820  0.3821
 3206TIP3    H131033   2.323   5.902   0.027  1.9557  0.4774  0.5733
 3206TIP3    H231034   2.232   5.873   0.144  0.1277 -0.2559 -0.9871
 3207TIP3   OH231035   5.035   6.671  13.896  0.1506 -0.3575  0.2773
 3207TIP3    H131036   5.053   6.613  13.969 -1.5343 -1.1465  0.1091
 3207TIP3    H231037   5.052   6.618  13.818  1.2838  0.2678  0.0773
 3208TIP3   OH231038   2.332   6.255  11.644 -0.2982 -0.6418  0.3811
 3208TIP3    H131039   2.253   6.228  11.692 -0.5478 -0.8149 -0.1218
 3208TIP3    H231040   2.343   6.348  11.667 -1.5746 -0.1677 -0.7921
 3209TIP3   OH231041   4.262   5.426  11.535 -0.0140 -0.0255 -0.1403
 3209TIP3    H131042   4.339   5.383  11.498 -0.4566 -1.6539  0.7152
 3209TIP3    H231043   4.255   5.390  11.623 -1.1849  0.8530  0.1503
 3210TIP3   OH231044   3.646   4.606  11.769 -0.0132  0.1357 -0.5394
 3210TIP3    H131045   3.628   4.567  11.684 -0.3996 -0.7517 -0.0747
 3210TIP3    H231046   3.639   4.533  11.831 -0.5430  0.9052  0.3453
 3211TIP3   OH231047   2.037   4.451   2.741  0.4945 -0.2473 -0.1650
 3211TIP3    H131048   1.948   4.477   2.767  0.4483  0.0759 -0.6491
 3211TIP3    H231049   2.071   4.406   2.818  0.8919  1.9928  1.0623
 3212TIP3   OH231050   1.941   3.693   5.778  0.2014  0.1126  0.2046
 3212TIP3    H131051   2.024   3.647   5.777  0.4901  0.6333 -0.5461
 3212TIP3    H231052   1.891   3.655   5.705  0.6159  1.2750 -0.7099
 3213TIP3   OH231053   1.820   4.037   1.346 -0.5725 -0.1305  0.0241
 3213TIP3    H131054   1.793   3.969   1.408 -0.9114 -1.3963 -1.4488
 3213TIP3    H231055   1.741   4.056   1.296  0.0350 -0.2367 -1.0060
 3214TIP3   OH231056   1.869   4.422  11.202 -0.0956  0.3368  0.0211
 3214TIP3    H131057   1.950   4.379  11.176 -0.1744  0.9904 -1.3783
 3214TIP3    H231058   1.854   4.393  11.293  1.0469 -0.7439 -0.1146
 3215TIP3   OH231059   4.582   0.911  13.014 -0.0211  0.6159 -0.4973
 3215TIP3    H131060   4.620   0.895  13.101 -0.2606 -1.1496 -0.6772
 3215TIP3    H231061   4.585   0.826  12.971 -1.2430  1.1433 -1.6866
 3216TIP3   OH231062   2.554   4.289   1.806 -0.0270 -0.4603 -0.5711
 3216TIP3    H131063   2.584   4.336   1.729 -2.4550  0.0861 -1.2559
 3216TIP3    H231064   2.604   4.207   1.804  0.9110  0.0943 -1.9444
 3217TIP3   OH231065   5.311   1.768   6.097  0.5007  0.1963 -0.2883
 3217TIP3    H131066   5.321   1.761   6.002 -2.1069  1.0706 -0.7262
 3217TIP3    H231067   5.271   1.684   6.123  2.2957 -0.5279  0.2846
 3218TIP3   OH231068   1.709   6.680   2.439 -0.4619  0.3268 -0.2234
 3218TIP3    H131069   1.707   6.770   2.472  1.3165  0.3527 -0.0859
 3218TIP3    H231070   1.794   6.672   2.396 -1.1326 -0.9028 -1.4089
 3219TIP3   OH231071   4.467   2.200  15.802  0.4408  0.1956  0.2652
 3219TIP3    H131072   4.524   2.261  15.850  0.4328  0.8088 -0.4837
 3219TIP3    H231073   4.416   2.257  15.744 -2.6874 -0.0150  2.5740
 3220TIP3   OH231074   5.133   4.291  12.923 -0.2106  0.5558  0.0003
 3220TIP3    H131075   5.198   4.248  12.867  0.8067  1.7663  0.2162
 3220TIP3    H231076   5.107   4.223  12.986  1.0516  0.1133  0.0773
 3221TIP3   OH231077   2.654   3.674   5.341  0.1939 -0.2059  0.1412
 3221TIP3    H131078   2.669   3.621   5.263 -0.1999 -0.3357  0.1477
 3221TIP3    H231079   2.721   3.646   5.403  1.9695  1.4734 -0.9096
 3222TIP3   OH231080   1.466   4.937  15.538  0.0500  0.4109 -0.1842
 3222TIP3    H131081   1.545   4.989  15.521  1.6166 -0.8426  2.6188
 3222TIP3    H231082   1.488   4.849  15.509 -0.6415  0.2142 -0.1292
 3223TIP3   OH231083   1.513   2.955   2.780  0.0186 -0.2442  0.3033
 3223TIP3    H131084   1.546   3.031   2.828 -0.1699  0.3927 -0.5499
 3223TIP3    H231085   1.546   2.968   2.690 -0.2195 -1.0447  0.0950
 3224TIP3   OH231086   5.412   0.788   5.551  0.3704 -0.3377  0.0056
 3224TIP3    H131087   5.444   0.702   5.578  0.1101 -0.2962  0.4573
 3224TIP3    H231088   5.490   0.835   5.524  0.6950 -0.2560  1.0402
 3225TIP3   OH231089   2.206   6.588   2.036 -1.3196 -0.3193  0.0219
 3225TIP3    H131090   2.299   6.570   2.027 -1.6391 -1.2728 -2.2280
 3225TIP3    H231091   2.175   6.524   2.101 -0.2094  1.0210  1.9478
 3226TIP3   OH231092   6.325   3.396   2.957  0.1100  0.1367  0.0230
 3226TIP3    H131093   6.233   3.368   2.951  0.1130  0.3206 -1.1910
 3226TIP3    H231094   6.352   3.371   3.045 -1.6916  1.8790  1.1729
 3227TIP3   OH231095   5.807   1.600  15.899  0.1930  0.4275 -0.0261
 3227TIP3    H131096   5.834   1.587  15.990  0.1036  2.2642  0.2907
 3227TIP3    H231097   5.846   1.684  15.874  0.2161 -0.0505 -1.6954
 3228TIP3   OH231098   1.893   2.645   3.056 -0.0475 -0.8254  0.1359
 3228TIP3    H131099   1.808   2.674   3.089 -0.2174  0.8574 -1.6074
 3228TIP3    H231100   1.956   2.705   3.096 -0.1328  0.4399 -1.5273
 3229TIP3   OH231101   6.586   6.685  11.729 -0.3171 -0.0613  0.0350
 3229TIP3    H131102   6.605   6.776  11.752 -1.8078  0.4114 -0.4651
 3229TIP3    H231103   6.503   6.689  11.680 -1.3815 -1.8808  1.5526
 3230TIP3   OH231104   5.837   4.210  11.107 -0.0598 -0.0983 -0.4989
 3230TIP3    H131105   5.852   4.138  11.045  0.8964 -1.0912  0.8391
 3230TIP3    H231106   5.901   4.195  11.177 -2.7702 -0.5399  2.0800
 3231TIP3   OH231107   4.310   1.530   4.614 -0.5136  0.7382 -0.1412
 3231TIP3    H131108   4.290   1.494   4.528 -0.9783  0.0374  0.2520
 3231TIP3    H231109   4.401   1.559   4.607  0.2206 -1.4127 -0.2049
 3232TIP3   OH231110   2.785   0.534  11.264  0.0084 -0.2804 -0.2721
 3232TIP3    H131111   2.801   0.592  11.190 -1.0122 -0.4357 -0.6278
 3232TIP3    H231112   2.801   0.446  11.230  1.9144 -0.2311  0.3634
 3233TIP3   OH231113   2.183   2.697  14.502  0.4661  0.6492  0.0155
 3233TIP3    H131114   2.234   2.769  14.538 -2.5053  3.8978 -1.6158
 3233TIP3    H231115   2.240   2.656  14.438  2.1049  1.8870  0.6206
 3234TIP3   OH231116   0.151   1.927   5.377 -0.0471 -0.2852 -0.3974
 3234TIP3    H131117   0.076   1.896   5.326  0.7596 -0.2323 -1.6586
 3234TIP3    H231118   0.133   2.019   5.393 -0.6051 -0.4515 -0.0301
 3235TIP3   OH231119   1.527   0.690   4.242 -0.0103  0.0657  0.4323
 3235TIP3    H131120   1.573   0.620   4.196 -1.4968 -0.8322  0.2473
 3235TIP3    H231121   1.561   0.770   4.204  0.5383 -0.5947 -0.5134
 3236TIP3   OH231122   1.822   1.993  11.637  0.3042  0.3231 -0.3015
 3236TIP3    H131123   1.744   2.025  11.681  1.0052  0.8863  0.5736
 3236TIP3    H231124   1.837   2.057  11.567  0.1325  0.3566 -0.3081
 3237TIP3   OH231125   1.860   0.187   5.556  0.5616 -0.3588 -0.5546
 3237TIP3    H131126   1.887   0.195   5.647 -0.6650  0.3392 -0.2321
 3237TIP3    H231127   1.815   0.270   5.536  1.4279 -0.1965 -2.0159
 3238TIP3   OH231128   0.953   3.483   1.318 -0.0666  0.3580  0.4530
 3238TIP3    H131129   0.907   3.539   1.257 -1.6555 -0.5791  0.7335
 3238TIP3    H231130   0.976   3.405   1.267 -1.8585 -0.6590  1.0913
 3239TIP3   OH231131   5.853   6.437  10.675 -0.4758 -0.3927 -0.3557
 3239TIP3    H131132   5.934   6.413  10.722  0.4367 -1.6202 -2.4125
 3239TIP3    H231133   5.849   6.532  10.682  1.0028 -0.3342  0.0467
 3240TIP3   OH231134   6.383   6.505   5.578  0.5930  0.3580  0.8044
 3240TIP3    H131135   6.429   6.421   5.579  1.1027  0.5930  3.1004
 3240TIP3    H231136   6.406   6.546   5.662 -0.2488  2.4659  0.0754
 3241TIP3   OH231137   6.702   5.030  15.142  0.4041  0.2694 -0.7108
 3241TIP3    H131138   6.705   5.057  15.234 -1.1931 -1.8980  0.0709
 3241TIP3    H231139   6.789   4.995  15.125 -0.2439 -2.7820  1.2831
 3242TIP3   OH231140   4.863   2.527  14.138 -0.0075  0.2075  0.5011
 3242TIP3    H131141   4.876   2.445  14.186 -2.5806 -1.2968 -1.1201
 3242TIP3    H231142   4.867   2.502  14.046 -1.2621  1.8075 -0.0407
 3243TIP3   OH231143   0.384   4.403  11.741 -0.5545  0.1667  0.4897
 3243TIP3    H131144   0.320   4.464  11.777 -1.2048 -0.1079 -0.1784
 3243TIP3    H231145   0.468   4.435  11.773 -0.9892  0.7425  1.0845
 3244TIP3   OH231146   1.540   4.405  16.949 -0.2349 -0.4070 -0.7960
 3244TIP3    H131147   1.445   4.411  16.949 -0.2665 -0.7866 -1.6959
 3244TIP3    H231148   1.570   4.491  16.920 -0.2084  0.4836  1.6209
 3245TIP3   OH231149   2.584   1.141  10.860 -0.3771 -0.5366 -0.5008
 3245TIP3    H131150   2.621   1.096  10.784  1.0249  0.7174 -0.6233
 3245TIP3    H231151   2.550   1.071  10.916 -0.8012 -1.5257 -1.9428
 3246TIP3   OH231152   5.544   5.005   4.960  0.0225  0.4135 -0.2004
 3246TIP3    H131153   5.537   4.913   4.986  0.7037 -0.3033 -2.3420
 3246TIP3    H231154   5.555   5.002   4.865  0.4910  2.7023 -0.2667
 3247TIP3   OH231155   0.825   2.932   2.080  0.6110 -0.3358  0.3481
 3247TIP3    H131156   0.886   2.983   2.134  1.2792 -0.3563 -0.3885
 3247TIP3    H231157   0.745   2.928   2.133  0.4919  1.5938  0.3819
 3248TIP3   OH231158   3.544   4.477  16.532 -0.2107 -0.0772 -0.8026
 3248TIP3    H131159   3.625   4.527  16.544 -2.0062  2.5931  0.9499
 3248TIP3    H231160   3.560   4.395  16.580  1.5321  0.2240 -0.7741
 3249TIP3   OH231161   0.201   2.447   1.321  0.5648 -0.1297  0.4561
 3249TIP3    H131162   0.241   2.529   1.350 -0.5051  0.5776  0.0037
 3249TIP3    H231163   0.272   2.383   1.325  2.2260  1.4053 -1.8673
 3250TIP3   OH231164   4.026   1.687  15.559 -0.1221 -0.8061 -0.3312
 3250TIP3    H131165   3.984   1.715  15.641 -0.7608 -1.7844 -0.3137
 3250TIP3    H231166   4.119   1.682  15.581 -0.3791 -1.9286  0.6136
 3251TIP3   OH231167   3.149   1.874  12.105 -0.1841  0.3728 -0.0946
 3251TIP3    H131168   3.240   1.901  12.096  0.7148 -2.5407 -1.0401
 3251TIP3    H231169   3.148   1.817  12.182 -1.1331  0.1426 -0.2564
 3252TIP3   OH231170   3.130   5.233   3.880 -0.1929  1.0428 -0.2560
 3252TIP3    H131171   3.050   5.262   3.925 -0.2597  1.2331 -0.4953
 3252TIP3    H231172   3.201   5.265   3.936 -0.2925 -0.1263  0.5652
 3253TIP3   OH231173   4.913   2.526   3.109 -0.1716  0.8662 -0.2193
 3253TIP3    H131174   4.991   2.472   3.098 -1.7261 -1.1820 -2.0244
 3253TIP3    H231175   4.885   2.509   3.200  0.7391  0.5744  0.0161
 3254TIP3   OH231176   6.494   1.145   5.294 -0.5160  0.6800  0.3172
 3254TIP3    H131177   6.569   1.172   5.346 -0.8177  1.1455  0.5216
 3254TIP3    H231178   6.426   1.127   5.358  0.0035 -1.7162  0.2653
 3255TIP3   OH231179   4.731   5.539   1.657 -0.0210 -0.1235  0.5304
 3255TIP3    H131180   4.690   5.604   1.713  0.4867 -0.4023  1.2312
 3255TIP3    H231181   4.822   5.566   1.651 -0.3028  0.5785 -1.1445
 3256TIP3   OH231182   5.093   2.221   1.420 -0.1530  0.2204  0.3665
 3256TIP3    H131183   4.998   2.217   1.408 -0.0048 -1.3430 -0.5549
 3256TIP3    H231184   5.122   2.284   1.354 -0.3519 -1.0053 -0.9385
 3257TIP3   OH231185   5.016   0.039   5.097 -0.0262 -0.0866 -0.3664
 3257TIP3    H131186   4.978   0.034   5.009 -0.8010  0.3192 -0.0650
 3257TIP3    H231187   5.035  -0.052   5.120 -1.0490 -0.3391 -0.4463
 3258TIP3   OH231188   0.337   6.237  11.803  0.6714 -0.0022  0.1919
 3258TIP3    H131189   0.311   6.204  11.717  1.6961 -0.6906  0.1269
 3258TIP3    H231190   0.324   6.163  11.862 -0.5362  0.6284  0.7537
 3259TIP3   OH231191   6.044   5.312   4.420  0.1568  0.7392  0.0047
 3259TIP3    H131192   5.969   5.300   4.479  0.7072  0.3021  0.6275
 3259TIP3    H231193   6.109   5.357   4.474  0.9338 -0.2853 -0.0482
 3260TIP3   OH231194   2.415   3.855  11.311 -0.1554  0.1709  0.4815
 3260TIP3    H131195   2.429   3.856  11.217  2.4409 -0.1744  0.7892
 3260TIP3    H231196   2.386   3.766  11.331 -0.1502  0.0832  0.0931
 3261TIP3   OH231197   1.752   6.498  13.414 -0.0208 -0.1725  0.3269
 3261TIP3    H131198   1.769   6.418  13.462  0.3177 -0.2976 -0.0026
 3261TIP3    H231199   1.770   6.476  13.322  2.3621  0.9129  0.4706
 3262TIP3   OH231200   0.583   4.180   4.940 -0.0279 -0.2961  0.0457
 3262TIP3    H131201   0.624   4.095   4.960 -0.1922 -0.3403  0.1925
 3262TIP3    H231202   0.530   4.163   4.862 -2.7840 -1.1926  1.9814
 3263TIP3   OH231203   6.010   0.129  11.825  0.3553  0.1481 -0.2365
 3263TIP3    H131204   5.971   0.043  11.841 -0.8686  1.2370  3.7572
 3263TIP3    H231205   6.105   0.112  11.826  0.1411 -1.1795  0.2280
 3264TIP3   OH231206   3.298   5.284  15.809  0.1454 -0.5426 -0.1339
 3264TIP3    H131207   3.306   5.377  15.825  0.1940 -0.1120 -2.3089
 3264TIP3    H231208   3.388   5.254  15.798  0.1254 -0.8393  0.4807
 3265TIP3   OH231209   3.176   0.321   1.162  0.4486 -0.1532  0.3767
 3265TIP3    H131210   3.254   0.286   1.204 -0.6228 -0.7511  1.9833
 3265TIP3    H231211   3.103   0.285   1.213 -0.8754  0.5118 -0.9594
 3266TIP3   OH231212   4.182   3.595  15.256  0.7192 -0.6649  0.4183
 3266TIP3    H131213   4.202   3.583  15.164  1.4658  1.1391  0.2944
 3266TIP3    H231214   4.098   3.640  15.257  0.5475 -0.9898  0.6261
 3267TIP3   OH231215   6.556   4.067  16.560 -0.5958  0.1831  0.3418
 3267TIP3    H131216   6.502   4.146  16.556 -0.0455  0.5142 -1.3602
 3267TIP3    H231217   6.616   4.075  16.486  0.0041 -1.4564  0.6068
 3268TIP3   OH231218   3.337   2.588   3.832 -0.3288  0.4273 -0.4750
 3268TIP3    H131219   3.419   2.620   3.795 -0.1411 -0.6217 -0.9852
 3268TIP3    H231220   3.346   2.604   3.926 -0.3062  1.9795 -0.7282
 3269TIP3   OH231221   4.862   6.185   1.041  0.5388 -0.4713 -0.2832
 3269TIP3    H131222   4.904   6.119   1.096 -0.1124 -0.5313  0.1451
 3269TIP3    H231223   4.770   6.185   1.067  0.1582 -0.6816 -1.5457
 3270TIP3   OH231224   4.978   1.844   3.902  0.1389 -0.3007 -0.0440
 3270TIP3    H131225   4.953   1.861   3.993  1.2280 -0.0789  0.2368
 3270TIP3    H231226   4.900   1.865   3.851  0.1388  1.5930  0.6670
 3271TIP3   OH231227   3.485   3.168   1.920 -0.0397 -0.5351  0.3737
 3271TIP3    H131228   3.521   3.227   1.853 -0.4210 -1.3449 -0.5767
 3271TIP3    H231229   3.531   3.192   2.001 -0.7325  1.5723  0.1937
 3272TIP3   OH231230   4.730   5.675  16.117  0.0144 -0.7083 -0.7203
 3272TIP3    H131231   4.793   5.649  16.185 -0.9718 -0.7776  0.2036
 3272TIP3    H231232   4.690   5.593  16.089  0.8897 -0.7574 -1.9057
 3273TIP3   OH231233   2.643   2.750   2.479 -0.5393 -0.7649  0.2282
 3273TIP3    H131234   2.717   2.811   2.478 -1.2787  0.1740 -0.7286
 3273TIP3    H231235   2.605   2.760   2.566 -0.2378 -0.3643  0.3184
 3274TIP3   OH231236   2.134   2.046   2.749 -0.4125 -0.1817  0.3661
 3274TIP3    H131237   2.096   2.031   2.663  2.2294 -0.9919 -0.7672
 3274TIP3    H231238   2.117   1.965   2.797 -1.1166 -0.0680  0.3243
 3275TIP3   OH231239   4.488   5.783   2.558 -0.7124  0.5183 -0.6588
 3275TIP3    H131240   4.399   5.817   2.549 -0.5278  1.7320  1.4139
 3275TIP3    H231241   4.478   5.688   2.561 -1.7393  0.5570 -1.9985
 3276TIP3   OH231242   2.433   4.367  14.103 -0.3725 -0.3787 -0.1217
 3276TIP3    H131243   2.491   4.310  14.053 -1.7203 -0.5619 -1.5602
 3276TIP3    H231244   2.441   4.453  14.061 -2.0138 -0.6881 -1.1433
 3277TIP3   OH231245   6.278   6.635  17.362 -0.5603 -0.7342  0.1917
 3277TIP3    H131246   6.217   6.604  17.295 -0.8628  0.0188  0.0975
 3277TIP3    H231247   6.352   6.670  17.312 -0.7602 -0.2262  0.2395
 3278TIP3   OH231248   5.591   3.605   0.163  0.2546  0.0731 -0.5943
 3278TIP3    H131249   5.620   3.694   0.180 -0.8559  0.7637 -2.0528
 3278TIP3    H231250   5.510   3.596   0.215  0.7573 -0.3632  0.1323
 3279TIP3   OH231251   3.937   2.295  10.859  0.0078 -0.0324  0.4186
 3279TIP3    H131252   3.914   2.301  10.766 -0.8316 -0.1952  0.6054
 3279TIP3    H231253   4.027   2.264  10.859 -0.4801 -1.5682 -0.3364
 3280TIP3   OH231254   2.961   1.206   3.512 -0.1978 -0.3549 -0.0975
 3280TIP3    H131255   3.033   1.144   3.497  0.8579  1.0462 -1.0176
 3280TIP3    H231256   2.913   1.168   3.586  0.0257 -2.5880 -1.0025
 3281TIP3   OH231257   1.326   5.953  14.229 -0.0287  0.2182 -0.0171
 3281TIP3    H131258   1.300   5.872  14.274  1.8049 -0.4329 -0.0411
 3281TIP3    H231259   1.407   5.980  14.273  0.4200  0.9809 -1.2721
 3282TIP3   OH231260   0.456   4.187  16.791  0.3188 -0.4837  0.3094
 3282TIP3    H131261   0.398   4.249  16.835  0.5226  0.8829 -1.2366
 3282TIP3    H231262   0.529   4.176  16.852 -1.1919 -1.7266  1.9947
 3283TIP3   OH231263   0.785   5.435   4.364  0.0304 -0.9103 -0.0875
 3283TIP3    H131264   0.694   5.420   4.392 -0.2576 -1.0501 -1.0807
 3283TIP3    H231265   0.778   5.465   4.274  0.8414  1.4506  0.5612
 3284TIP3   OH231266   4.607   4.740   0.064 -0.5516 -0.1738  0.5541
 3284TIP3    H131267   4.559   4.822   0.048 -0.1437  0.0722  0.5714
 3284TIP3    H231268   4.650   4.753   0.148  0.3949  0.0297  0.0646
 3285TIP3   OH231269   5.651   0.959   1.331  0.5022  0.1147  0.7548
 3285TIP3    H131270   5.647   0.870   1.298 -0.0728  0.6640 -0.7716
 3285TIP3    H231271   5.563   0.976   1.366  0.6262  0.0635  1.0907
 3286TIP3   OH231272   3.638   4.259  11.603  0.7575 -0.0535  0.4590
 3286TIP3    H131273   3.680   4.215  11.529  0.5558  1.5615 -0.6701
 3286TIP3    H231274   3.609   4.343  11.568 -2.0270 -0.4202  1.6143
 3287TIP3   OH231275   1.539   3.677  11.036 -0.4637  0.5272 -0.5104
 3287TIP3    H131276   1.574   3.607  10.981 -0.6050  1.1866 -1.4708
 3287TIP3    H231277   1.447   3.683  11.011 -0.1606  1.9320 -1.4449
 3288TIP3   OH231278   1.689   6.272  14.530  0.3191 -0.7454  0.4687
 3288TIP3    H131279   1.784   6.258  14.536  0.0330 -2.1454  2.5592
 3288TIP3    H231280   1.650   6.197  14.574 -1.6443  1.5155  2.9867
 3289TIP3   OH231281   5.909   2.330  16.537  0.1483 -0.4618 -1.1302
 3289TIP3    H131282   5.904   2.421  16.567 -0.0324 -0.8811  0.1759
 3289TIP3    H231283   5.850   2.282  16.595 -0.1158 -1.3505 -2.0968
 3290TIP3   OH231284   6.078   3.020   0.437  0.2724  0.3118 -0.3400
 3290TIP3    H131285   6.173   3.008   0.442  0.3209  0.8766  0.2039
 3290TIP3    H231286   6.059   3.086   0.503 -0.5081  0.1739 -0.4205
 3291TIP3   OH231287   1.799   5.335   2.097  0.2280  0.2312  0.3675
 3291TIP3    H131288   1.724   5.382   2.134 -0.0269  0.0819  0.0448
 3291TIP3    H231289   1.855   5.317   2.173  0.4440  1.2442  0.4685
 3292TIP3   OH231290   3.441   2.874  16.008  0.4777 -0.2525 -0.2643
 3292TIP3    H131291   3.388   2.820  15.950  0.1174  0.6590 -0.8014
 3292TIP3    H231292   3.456   2.955  15.959 -1.1553  1.2040  1.4633
 3293TIP3   OH231293   1.871   1.912   3.561  0.2734 -0.2701 -0.3324
 3293TIP3    H131294   1.885   2.004   3.582  2.0978 -0.4419 -0.6934
 3293TIP3    H231295   1.957   1.878   3.538 -0.8335 -1.2581 -3.5929
 3294TIP3   OH231296   0.088   2.826  11.241  0.1315  0.6005  0.3156
 3294TIP3    H131297   0.117   2.755  11.184 -0.2042  1.7590 -1.3579
 3294TIP3    H231298  -0.007   2.830  11.228  0.0545  0.9242  0.9313
 3295TIP3   OH231299   1.994   3.333   1.326  0.3326  0.1419  0.5604
 3295TIP3    H131300   1.984   3.320   1.421 -0.5808 -0.9095  0.3400
 3295TIP3    H231301   2.045   3.258   1.297 -1.4811 -0.8772 -0.1237
 3296TIP3   OH231302   2.817   4.959   2.092 -0.7553 -0.5934  0.1326
 3296TIP3    H131303   2.863   5.010   2.025 -0.8113  1.4975  1.5813
 3296TIP3    H231304   2.757   4.904   2.043 -0.8204  0.8871 -1.5520
 3297TIP3   OH231305   5.756   5.916   3.697 -0.2100  0.3846  0.7424
 3297TIP3    H131306   5.841   5.957   3.686 -1.3155  2.3806 -1.1376
 3297TIP3    H231307   5.764   5.830   3.656 -0.1249  2.0909 -3.1916
 3298TIP3   OH231308   6.008   5.487  14.941  0.0654 -0.0962 -0.1555
 3298TIP3    H131309   6.079   5.491  15.005 -0.0432  2.5423 -0.0799
 3298TIP3    H231310   6.049   5.511  14.858 -0.1257 -1.8473 -0.7911
 3299TIP3   OH231311   3.507   0.911   2.265 -0.1701 -0.1541  0.3232
 3299TIP3    H131312   3.450   0.960   2.324 -1.3358 -0.1541 -0.7589
 3299TIP3    H231313   3.502   0.821   2.296 -0.0495 -0.0094  0.7691
 3300TIP3   OH231314   1.336   1.906  12.494  0.3936  0.0181  0.3779
 3300TIP3    H131315   1.284   1.862  12.561  0.8741 -0.2576  0.5738
 3300TIP3    H231316   1.272   1.935  12.429  0.0733 -1.0311  0.2079
 3301TIP3   OH231317   6.438   4.652   4.902 -0.3197  0.3526  0.3999
 3301TIP3    H131318   6.367   4.637   4.964  0.1784  1.8232  1.3746
 3301TIP3    H231319   6.396   4.650   4.816 -1.0599 -1.4793  0.7511
 3302TIP3   OH231320   0.495   3.937   1.403 -0.4737 -0.2165 -0.2539
 3302TIP3    H131321   0.475   3.919   1.311 -0.6750 -0.2691 -0.2011
 3302TIP3    H231322   0.579   3.982   1.401 -1.2649  1.3287 -0.6070
 3303TIP3   OH231323   5.604   2.076  16.193 -0.1448 -0.1032  0.0836
 3303TIP3    H131324   5.523   2.103  16.151 -0.3224 -1.0656 -0.2188
 3303TIP3    H231325   5.615   2.136  16.266 -0.1735  1.2021 -0.9436
 3304TIP3   OH231326   3.699   0.138  12.329 -0.8797  0.0975  0.7852
 3304TIP3    H131327   3.749   0.130  12.248 -3.3363  0.7390 -0.9104
 3304TIP3    H231328   3.665   0.050  12.346 -3.4393  0.5979 -1.1121
 3305TIP3   OH231329   2.892   4.779  13.041  0.2569  0.7363  0.2222
 3305TIP3    H131330   2.984   4.761  13.061  0.7661  3.2795  0.4553
 3305TIP3    H231331   2.855   4.810  13.124 -0.2640  1.6607 -0.3354
 3306TIP3   OH231332   1.010   5.703  11.953  0.2081  0.2199 -0.1011
 3306TIP3    H131333   1.076   5.644  11.988 -0.7967 -1.2660 -0.6070
 3306TIP3    H231334   1.013   5.688  11.858  0.0476  1.1432 -0.2687
 3307TIP3   OH231335   3.425   5.439  14.034 -0.1984 -0.2803  0.5338
 3307TIP3    H131336   3.447   5.522  14.076 -1.9105 -0.2900  1.5290
 3307TIP3    H231337   3.475   5.373  14.083 -1.4321 -0.1852  1.9833
 3308TIP3   OH231338   2.057   1.449   5.290 -0.0451  0.3918 -0.1029
 3308TIP3    H131339   1.983   1.510   5.294  1.1149  1.7682  2.1904
 3308TIP3    H231340   2.044   1.401   5.208 -3.6451  0.3166  0.3363
 3309TIP3   OH231341   4.626   2.772  10.742  0.0045 -0.1795 -0.3335
 3309TIP3    H131342   4.582   2.841  10.693 -0.3329  0.4180  0.7836
 3309TIP3    H231343   4.602   2.691  10.697 -1.1003  0.2658 -0.5683
 3310TIP3   OH231344   1.014   3.029   4.195 -0.5255  0.0513 -0.0850
 3310TIP3    H131345   0.975   3.084   4.127  0.7874  2.4240  0.9433
 3310TIP3    H231346   0.949   3.027   4.264  0.6036  3.2523  1.2563
 3311TIP3   OH231347   2.763   2.535  14.724 -0.1604 -0.1905 -0.4581
 3311TIP3    H131348   2.838   2.518  14.781  0.8610 -2.8052 -2.3911
 3311TIP3    H231349   2.800   2.537  14.636 -2.2253 -0.5514 -1.3808
 3312TIP3   OH231350   0.874   3.074   3.853  0.2814  0.3018  0.2234
 3312TIP3    H131351   0.817   3.103   3.924 -1.9039  1.5216 -1.8939
 3312TIP3    H231352   0.831   3.104   3.774  4.0757  1.5800 -1.5683
 3313TIP3   OH231353   1.075   3.450  11.204  0.5233 -0.0492 -0.1232
 3313TIP3    H131354   1.131   3.514  11.247 -0.3335  0.1590  0.7234
 3313TIP3    H231355   1.104   3.450  11.113  0.9783  1.0640  0.0051
 3314TIP3   OH231356   5.516   4.623  11.089  0.4561 -0.5043  0.2606
 3314TIP3    H131357   5.588   4.669  11.047  0.9141 -1.3449  0.1004
 3314TIP3    H231358   5.438   4.656  11.045  0.5908  1.4645  1.3977
 3315TIP3   OH231359   6.155   4.907  13.246  0.1478  0.2437 -0.3942
 3315TIP3    H131360   6.188   4.957  13.171 -0.1769  1.0712 -0.0098
 3315TIP3    H231361   6.061   4.899  13.230 -0.7054  3.7676  1.6561
 3316TIP3   OH231362   3.591   4.143   1.360 -0.2936  0.1178  0.0652
 3316TIP3    H131363   3.631   4.070   1.408 -0.7455 -1.5214 -1.8851
 3316TIP3    H231364   3.517   4.103   1.314 -2.6349  2.5091  1.4705
 3317TIP3   OH231365   5.883   3.058   1.378  0.1833  0.2042 -0.7234
 3317TIP3    H131366   5.977   3.079   1.375  0.3268 -0.3970 -0.6636
 3317TIP3    H231367   5.844   3.127   1.431  0.7384 -0.0408  0.0211
 3318TIP3   OH231368   5.590   0.628   2.618  0.2750 -0.9536 -0.6884
 3318TIP3    H131369   5.615   0.557   2.677 -0.3064 -0.0853  0.6323
 3318TIP3    H231370   5.500   0.609   2.593  0.2080 -0.8210 -0.5479
 3319TIP3   OH231371   3.985   4.058  13.823  0.0040 -0.2564  0.1658
 3319TIP3    H131372   4.029   4.131  13.867  2.5135 -0.9362 -1.0830
 3319TIP3    H231373   3.940   4.012  13.894  0.6521  0.9245  1.3880
 3320TIP3   OH231374   2.372   3.506  10.823 -0.9398  0.0944  0.2705
 3320TIP3    H131375   2.294   3.495  10.878 -1.7386  1.0947 -0.6114
 3320TIP3    H231376   2.347   3.470  10.738  0.2454 -1.3348  0.4914
 3321TIP3   OH231377   6.654   1.602  14.841 -0.0687 -0.5520 -0.0773
 3321TIP3    H131378   6.713   1.673  14.813  0.0328 -0.1758  1.0158
 3321TIP3    H231379   6.656   1.539  14.770  1.0290 -0.1494 -0.4220
 3322TIP3   OH231380   5.001   4.831   4.376 -0.2190 -0.2051  0.6996
 3322TIP3    H131381   4.911   4.806   4.395 -0.2080  0.6217  1.9662
 3322TIP3    H231382   5.054   4.764   4.420 -0.1908 -0.8713 -0.3077
 3323TIP3   OH231383   1.614   6.502  17.021  0.1664  0.1750  0.3925
 3323TIP3    H131384   1.702   6.474  16.996 -0.7647 -2.1308 -0.5906
 3323TIP3    H231385   1.577   6.426  17.067 -2.2519 -0.0278 -1.7031
 3324TIP3   OH231386   5.893   4.025  11.330  0.0230  0.3126 -0.5631
 3324TIP3    H131387   5.967   4.085  11.320  0.1768  0.3521  0.6184
 3324TIP3    H231388   5.932   3.938  11.324  0.2616  0.3297  0.5552
 3325TIP3   OH231389   6.198   0.715   0.675 -0.7391 -0.0724 -0.0093
 3325TIP3    H131390   6.106   0.740   0.685 -1.3513 -2.0213 -0.5173
 3325TIP3    H231391   6.198   0.650   0.606  1.0097 -0.2872  0.1594
 3326TIP3   OH231392   5.105   1.703  15.332 -0.1554 -0.3241  0.1045
 3326TIP3    H131393   5.090   1.765  15.262 -1.2512 -1.4799 -0.7192
 3326TIP3    H231394   5.067   1.621  15.301  1.5827 -1.5343  0.9824
 3327TIP3   OH231395   3.532   4.205   4.280  0.5764  0.0418  0.0817
 3327TIP3    H131396   3.499   4.291   4.306 -0.5376  0.1396 -1.4972
 3327TIP3    H231397   3.627   4.214   4.284  0.5601  1.9694 -1.7717
 3328TIP3   OH231398   6.624   3.125   4.891  0.0971  0.4147  0.8797
 3328TIP3    H131399   6.640   3.128   4.797  0.0048  0.7261  0.8729
 3328TIP3    H231400   6.625   3.032   4.913 -2.0255  0.1859  0.2034
 3329TIP3   OH231401   3.043   0.644  16.820 -0.2355  0.3067 -0.2114
 3329TIP3    H131402   3.111   0.670  16.882 -0.9709 -0.3252  0.8807
 3329TIP3    H231403   3.084   0.577  16.765  0.1936  0.3394  0.0691
 3330TIP3   OH231404   6.164   2.470   2.919  0.4728 -0.0687  0.4412
 3330TIP3    H131405   6.106   2.399   2.894 -0.4298  0.9385 -0.4359
 3330TIP3    H231406   6.239   2.463   2.859 -0.8701  1.2836 -1.5216
 3331TIP3   OH231407   3.162   0.417  15.643 -0.5604  0.2585 -0.3163
 3331TIP3    H131408   3.187   0.351  15.578 -2.4193 -0.7345 -0.0923
 3331TIP3    H231409   3.126   0.489  15.593 -0.4574  0.2049 -0.4680
 3332TIP3   OH231410   0.766   6.628  15.974 -1.1668  0.3329 -0.3117
 3332TIP3    H131411   0.791   6.547  16.018 -0.5521 -0.3544 -1.8581
 3332TIP3    H231412   0.835   6.690  15.996 -1.1098  0.1388  0.0611
 3333TIP3   OH231413   4.013   5.833  14.727 -0.2717 -0.2946 -0.1009
 3333TIP3    H131414   3.994   5.902  14.791 -1.2064 -0.5858 -0.0473
 3333TIP3    H231415   4.037   5.758  14.780 -0.2741 -0.3098 -0.1212
 3334TIP3   OH231416   3.101   6.241  16.222 -0.3925 -0.1723  0.2794
 3334TIP3    H131417   3.053   6.322  16.206 -1.9066 -1.3546 -1.6894
 3334TIP3    H231418   3.178   6.248  16.166 -1.0457 -0.4788 -0.6884
 3335TIP3   OH231419   2.018   0.240  10.755  0.1381  0.0824  1.1049
 3335TIP3    H131420   2.069   0.180  10.701 -0.7004  0.5187 -0.2288
 3335TIP3    H231421   1.938   0.192  10.775  0.0903  0.2303  1.2696
 3336TIP3   OH231422   5.215   3.021   5.139 -0.6607 -0.1019  0.5756
 3336TIP3    H131423   5.261   3.104   5.124 -0.4965 -0.4765 -1.2204
 3336TIP3    H231424   5.176   3.031   5.225 -0.1985  1.6422  0.6276
 3337TIP3   OH231425   5.977   1.638   2.810 -0.1606 -0.2418  0.9998
 3337TIP3    H131426   5.990   1.606   2.721 -0.0625  1.2529  0.4325
 3337TIP3    H231427   5.994   1.732   2.803 -1.7339  0.1754  2.2571
 3338TIP3   OH231428   6.090   5.527  16.092  0.6060 -0.0449  0.4402
 3338TIP3    H131429   6.018   5.544  16.152 -0.0301  0.7286 -0.4982
 3338TIP3    H231430   6.165   5.511  16.148 -0.5703 -2.4348  1.5017
 3339TIP3   OH231431   0.698   1.735   2.619 -0.1653  0.4004 -0.9044
 3339TIP3    H131432   0.701   1.783   2.536 -2.8797 -0.0003 -1.3251
 3339TIP3    H231433   0.763   1.665   2.608 -0.5625  0.2745 -2.7721
 3340TIP3   OH231434   6.134   1.394  14.271  0.3287 -0.6478 -0.3214
 3340TIP3    H131435   6.078   1.471  14.281 -1.2221 -1.7989  0.1677
 3340TIP3    H231436   6.129   1.373  14.177  2.0083  0.7030 -0.7733
 3341TIP3   OH231437   4.786   4.010   3.298 -0.3612  0.5888 -0.0320
 3341TIP3    H131438   4.771   4.092   3.251  1.0718  1.6896  1.3168
 3341TIP3    H231439   4.838   4.035   3.374 -0.5613 -1.4760  0.8559
 3342TIP3   OH231440   3.733   0.840  13.817  0.6366 -0.0971 -0.1892
 3342TIP3    H131441   3.648   0.883  13.807  1.1133  1.0118  0.2946
 3342TIP3    H231442   3.789   0.882  13.752  1.5416  1.2512  1.3799
 3343TIP3   OH231443   0.971   0.506  13.205  0.0093 -0.1320 -0.6371
 3343TIP3    H131444   0.965   0.426  13.256  0.5536  0.2959  0.1250
 3343TIP3    H231445   0.993   0.477  13.116  1.6748 -0.7568 -0.0545
 3344TIP3   OH231446   5.283   1.998   0.302  0.3862 -0.0566 -0.0307
 3344TIP3    H131447   5.377   2.020   0.296  0.1733  0.6546 -0.9433
 3344TIP3    H231448   5.242   2.052   0.235 -0.5623 -1.1211 -0.3292
 3345TIP3   OH231449   5.928   0.394  15.887  0.0593  0.1518  0.5624
 3345TIP3    H131450   5.913   0.361  15.798  0.6153 -0.6259  0.7568
 3345TIP3    H231451   6.023   0.403  15.893 -0.0693  1.9942  0.4502
 3346TIP3   OH231452   4.915   0.256  11.814  0.0948 -0.2661  0.0880
 3346TIP3    H131453   4.978   0.263  11.743 -0.3315 -1.2815 -0.4047
 3346TIP3    H231454   4.940   0.326  11.875  0.5813  0.4883 -0.9533
 3347TIP3   OH231455   2.434   6.154  10.821  0.3062 -0.1391 -0.0021
 3347TIP3    H131456   2.493   6.129  10.750  0.7044 -2.5271  1.0789
 3347TIP3    H231457   2.359   6.094  10.812 -0.0353  0.1082  1.0656
 3348TIP3   OH231458   4.661   0.836  16.253 -0.1675 -0.1056  0.5819
 3348TIP3    H131459   4.706   0.764  16.298 -0.2706 -0.3755  0.2524
 3348TIP3    H231460   4.729   0.902  16.238 -0.1414  0.0092  1.1786
 3349TIP3   OH231461   0.241   4.762   5.781 -0.2440  0.0340  0.5465
 3349TIP3    H131462   0.279   4.675   5.790 -1.1879 -0.7673 -2.1034
 3349TIP3    H231463   0.172   4.765   5.847  0.0311 -1.1051  0.9080
 3350TIP3   OH231464   1.456   4.129   2.319  0.3342 -0.1767  0.3007
 3350TIP3    H131465   1.419   4.161   2.237 -1.4382 -0.1367  1.0746
 3350TIP3    H231466   1.456   4.206   2.377  0.1803 -0.5481  0.7958
 3351TIP3   OH231467   1.966   1.340   2.735 -0.0849 -0.6079  0.4795
 3351TIP3    H131468   1.978   1.424   2.692  0.9124 -0.9973 -0.0446
 3351TIP3    H231469   1.945   1.279   2.664  0.6232 -1.0657  0.6439
 3352TIP3   OH231470   0.755   3.851   4.123 -0.1838 -0.1294  0.0613
 3352TIP3    H131471   0.797   3.847   4.038  0.6305  0.0122  0.4507
 3352TIP3    H231472   0.677   3.796   4.114 -0.6113  0.6209 -1.0454
 3353TIP3   OH231473   5.743   1.214   1.788  0.0340 -0.6843  0.2147
 3353TIP3    H131474   5.763   1.191   1.697 -1.9024  0.9527 -0.7214
 3353TIP3    H231475   5.652   1.187   1.800 -0.2274  0.5280  1.1319
 3354TIP3   OH231476   4.212   3.908   0.014  0.2220  0.3812  0.1149
 3354TIP3    H131477   4.225   3.832   0.071 -1.4051 -0.8720 -1.0978
 3354TIP3    H231478   4.281   3.901  -0.052  0.1393 -0.0146  0.0655
 3355TIP3   OH231479   1.054   3.988   3.165 -0.1430 -0.2771  0.2263
 3355TIP3    H131480   1.047   4.033   3.081  0.5907 -0.5112  0.0287
 3355TIP3    H231481   0.964   3.964   3.187 -0.3802  0.0709 -0.3325
 3356TIP3   OH231482   3.565   3.734  16.039 -0.5792  0.3383 -0.0298
 3356TIP3    H131483   3.575   3.733  16.134  1.0624  1.1695 -0.1616
 3356TIP3    H231484   3.552   3.642  16.016 -1.0460  0.1350  0.9897
 3357TIP3   OH231485   0.027   0.195   3.411 -0.3013  0.9552  0.1622
 3357TIP3    H131486   0.099   0.155   3.461 -0.2047  1.0165  0.0719
 3357TIP3    H231487   0.017   0.140   3.334  0.0538  1.2920 -0.1313
 3358TIP3   OH231488   2.633   0.982   2.518  0.2032  0.2456  0.3536
 3358TIP3    H131489   2.710   1.035   2.541  0.6145 -1.2608  2.7453
 3358TIP3    H231490   2.563   1.046   2.504  1.5244  1.5708 -0.5122
 3359TIP3   OH231491   2.208   0.432  11.107  0.2633 -0.2771  0.1374
 3359TIP3    H131492   2.225   0.518  11.068 -0.7907  0.1739  0.6359
 3359TIP3    H231493   2.290   0.409  11.150  0.9435 -0.0805 -1.0362
 3360TIP3   OH231494   4.909   5.170   4.276  0.5252  0.4958 -0.7899
 3360TIP3    H131495   4.971   5.168   4.348 -0.5784  1.7439  0.2681
 3360TIP3    H231496   4.946   5.233   4.214  0.2678  1.3969 -0.0642
 3361TIP3   OH231497   5.751   0.765   2.101  0.7077  0.4444 -0.4183
 3361TIP3    H131498   5.840   0.780   2.068  0.3443 -1.6326 -2.5903
 3361TIP3    H231499   5.694   0.803   2.035 -0.0143 -1.9574 -1.2716
 3362TIP3   OH231500   3.844   3.890  12.133  0.6898 -0.6963  0.6138
 3362TIP3    H131501   3.922   3.920  12.087 -0.8932 -0.3397 -2.0162
 3362TIP3    H231502   3.786   3.966  12.133  0.5050 -0.7473  3.1227
 3363TIP3   OH231503   1.974   5.948   5.766 -0.2694  0.1064  0.6822
 3363TIP3    H131504   2.050   5.903   5.805 -1.0420 -0.6388  1.3770
 3363TIP3    H231505   1.965   6.028   5.818  0.2839  0.4123  0.3237
 3364TIP3   OH231506   1.358   1.171  14.606  0.2269 -0.4739 -0.1007
 3364TIP3    H131507   1.304   1.210  14.536  0.0847 -1.9216 -0.8362
 3364TIP3    H231508   1.389   1.089  14.568  0.6303 -1.0065  1.3537
 3365TIP3   OH231509   4.143   4.799  15.295 -0.0692  0.3487  0.0175
 3365TIP3    H131510   4.152   4.820  15.388 -1.7415 -0.7631  0.4771
 3365TIP3    H231511   4.049   4.802  15.279 -0.0541 -2.0540 -0.9622
 3366TIP3   OH231512   6.117   3.052   2.228 -0.1629  0.4086  1.1125
 3366TIP3    H131513   6.063   3.129   2.209  2.3563  2.3528  1.1966
 3366TIP3    H231514   6.099   3.032   2.320 -1.9853 -0.1131  0.6664
 3367TIP3   OH231515   2.143   1.433   4.389  0.4265  0.2644 -0.3819
 3367TIP3    H131516   2.172   1.523   4.402  0.7499  0.1048  0.0052
 3367TIP3    H231517   2.196   1.382   4.449  0.7187 -0.2680 -1.0750
 3368TIP3   OH231518   3.804   5.294  12.616  0.4424  0.1371  1.1824
 3368TIP3    H131519   3.866   5.223  12.597 -0.8970 -1.1801  1.5334
 3368TIP3    H231520   3.786   5.334  12.531  2.1133  0.8548  1.1390
 3369TIP3   OH231521   1.154   2.524  14.824  0.2710  1.2484 -0.0138
 3369TIP3    H131522   1.128   2.529  14.732 -0.8118  0.9430  0.2685
 3369TIP3    H231523   1.082   2.478  14.868  1.8374 -0.8569  0.5624
 3370TIP3   OH231524   4.632   0.727  10.820  0.2095  0.5924  0.0411
 3370TIP3    H131525   4.586   0.647  10.793  0.5185  1.1945 -2.5296
 3370TIP3    H231526   4.585   0.798  10.776  1.5740  1.5435  0.0516
 3371TIP3   OH231527   6.700   3.140   5.678  0.0890  0.0012 -0.0898
 3371TIP3    H131528   6.717   3.158   5.770 -4.7405 -0.1499  1.1207
 3371TIP3    H231529   6.718   3.047   5.667 -1.7490 -0.5958  1.5263
 3372TIP3   OH231530   3.251   4.790   2.301 -0.1899  0.0485 -0.1023
 3372TIP3    H131531   3.295   4.707   2.283 -2.2580 -0.9852 -0.6266
 3372TIP3    H231532   3.163   4.765   2.328  0.5134  1.7904  4.8845
 3373TIP3   OH231533   1.467   5.531   5.402 -0.0865 -0.4306 -0.0626
 3373TIP3    H131534   1.517   5.520   5.483  2.1819  0.5189 -1.2682
 3373TIP3    H231535   1.482   5.622   5.377 -2.3900 -0.1299 -0.5526
 3374TIP3   OH231536   1.953   2.763   0.051  0.4791 -0.0184 -0.3783
 3374TIP3    H131537   1.879   2.705   0.033  1.2455 -0.7114 -1.3950
 3374TIP3    H231538   1.978   2.744   0.142 -0.9112  0.6168  0.1656
 3375TIP3   OH231539   3.488   0.726  13.944 -0.3461  0.1511 -0.3780
 3375TIP3    H131540   3.555   0.662  13.918 -0.8333 -0.0836 -1.0883
 3375TIP3    H231541   3.423   0.722  13.874  0.4355  2.6711 -1.3471
 3376TIP3   OH231542   2.658   5.366   3.515  0.5933 -0.2075 -0.1225
 3376TIP3    H131543   2.732   5.397   3.566  1.3660 -0.5170 -1.0219
 3376TIP3    H231544   2.587   5.358   3.578  0.7927  1.8557  0.4117
 3377TIP3   OH231545   3.509   3.573  11.360  0.4732 -0.5336  0.2198
 3377TIP3    H131546   3.587   3.517  11.356  0.1435 -1.0218  0.5494
 3377TIP3    H231547   3.452   3.531  11.424 -1.3430 -1.8331 -2.1146
 3378TIP3   OH231548   4.815   6.513   4.218 -0.0190 -0.4675 -0.7759
 3378TIP3    H131549   4.843   6.450   4.284 -0.2717 -1.0645 -1.2284
 3378TIP3    H231550   4.802   6.594   4.267 -0.8977 -1.0771  0.0457
 3379TIP3   OH231551   3.939   2.256  12.601 -0.1678  0.1359 -0.2609
 3379TIP3    H131552   3.871   2.228  12.539  0.2517 -0.1826 -0.5845
 3379TIP3    H231553   3.901   2.239  12.687  0.5316 -2.7676 -0.4006
 3380TIP3   OH231554   0.753   4.984   4.784 -0.3151 -0.0890  0.0813
 3380TIP3    H131555   0.712   4.930   4.852 -0.7481  1.6439  1.2507
 3380TIP3    H231556   0.846   4.960   4.788 -0.6604 -1.5659 -0.2255
 3381TIP3   OH231557   1.402   4.279   3.341 -0.1700  0.1544  0.6054
 3381TIP3    H131558   1.334   4.346   3.339  1.1006  1.4875 -0.9023
 3381TIP3    H231559   1.375   4.215   3.276  0.2357  0.9662 -0.3959
 3382TIP3   OH231560   5.891   3.239  15.616 -0.2063 -0.2501 -0.0247
 3382TIP3    H131561   5.821   3.280  15.566 -0.1642  0.4194  0.4457
 3382TIP3    H231562   5.969   3.252  15.562 -0.2624 -0.0509 -0.0605
 3383TIP3   OH231563   2.748   5.422  14.455  0.8613 -0.2121  0.1894
 3383TIP3    H131564   2.757   5.347  14.514 -0.9568  0.0634  0.8848
 3383TIP3    H231565   2.654   5.440  14.453  0.6515 -0.7941 -3.5848
 3384TIP3   OH231566   0.535   1.894   6.325  0.1015  0.6403 -0.0651
 3384TIP3    H131567   0.523   1.833   6.397  1.9688  1.3208  0.8734
 3384TIP3    H231568   0.562   1.976   6.367 -0.3827  1.5383 -1.4298
 3385TIP3   OH231569   3.793   1.958  16.888  0.4257 -0.1926 -0.2591
 3385TIP3    H131570   3.888   1.951  16.902  0.8957  0.8557 -2.4481
 3385TIP3    H231571   3.773   1.890  16.824 -0.4292 -0.7640  0.5970
 3386TIP3   OH231572   2.369   6.616   0.697 -0.3856  0.0870 -0.1248
 3386TIP3    H131573   2.389   6.597   0.606 -0.2052  0.5800 -0.1913
 3386TIP3    H231574   2.453   6.607   0.742 -0.4695 -0.1330 -0.0126
 3387TIP3   OH231575   3.473   2.468   2.413 -0.2165  0.2242 -0.0754
 3387TIP3    H131576   3.482   2.555   2.453  0.2161 -0.3241  1.0907
 3387TIP3    H231577   3.457   2.485   2.321  0.7583  1.5412 -0.0350
 3388TIP3   OH231578   0.869   3.655   0.501 -0.5170 -0.8118 -0.3187
 3388TIP3    H131579   0.878   3.560   0.491 -3.4680 -1.1855 -0.3928
 3388TIP3    H231580   0.949   3.691   0.462  0.4205 -3.2202 -0.8176
 3389TIP3   OH231581   5.592   4.918  11.189 -0.2499  0.4799 -0.0264
 3389TIP3    H131582   5.604   5.009  11.161  1.3764  0.7220  1.3236
 3389TIP3    H231583   5.512   4.890  11.145 -1.3279  2.8672  0.2657
 3390TIP3   OH231584   0.972   5.778   4.984 -0.5790 -0.3405 -0.2981
 3390TIP3    H131585   1.020   5.810   5.061 -1.3049 -2.0487  0.9249
 3390TIP3    H231586   1.036   5.782   4.913  0.7689 -0.6931  0.8482
 3391TIP3   OH231587   1.828   5.592  15.223  0.0610 -0.1362  0.0841
 3391TIP3    H131588   1.885   5.527  15.182 -1.1945 -1.0909 -0.1855
 3391TIP3    H231589   1.765   5.615  15.156 -2.3338 -2.0714  1.5062
 3392TIP3   OH231590   1.958   5.556   1.678  0.0206 -0.1627  0.0403
 3392TIP3    H131591   1.902   5.487   1.714  0.2028  0.4493  1.5538
 3392TIP3    H231592   1.896   5.621   1.645 -0.2019  0.4339  1.5550
 3393TIP3   OH231593   1.839   4.146   0.850  0.4943 -0.3180 -0.3478
 3393TIP3    H131594   1.750   4.170   0.827  0.1876 -1.5752 -0.5685
 3393TIP3    H231595   1.870   4.216   0.907 -0.1576  0.8011 -1.3352
 3394TIP3   OH231596   1.425   2.915  15.173 -0.1601 -0.8520  0.5500
 3394TIP3    H131597   1.421   2.831  15.220 -1.4557 -0.9541  0.2888
 3394TIP3    H231598   1.494   2.902  15.108 -0.3988 -1.7513  0.4581
 3395TIP3   OH231599   2.730   0.432  15.411  0.1820 -0.1494  0.0289
 3395TIP3    H131600   2.650   0.452  15.460  0.2214  0.4184 -0.1249
 3395TIP3    H231601   2.771   0.518  15.397  1.9112 -0.5717  1.9512
 3396TIP3   OH231602   5.510   2.986  15.421 -0.2686  0.2530 -0.5333
 3396TIP3    H131603   5.458   3.004  15.499  1.2880 -0.8217  0.8280
 3396TIP3    H231604   5.470   2.908  15.383 -0.7465  0.5036 -0.5482
 3397TIP3   OH231605   1.835   0.941   2.735 -0.1388  0.2561  0.1141
 3397TIP3    H131606   1.815   0.854   2.769 -0.6596  0.3337  0.0192
 3397TIP3    H231607   1.918   0.930   2.688 -0.8596 -0.4899 -1.0334
 3398TIP3   OH231608   2.579   3.831  13.709  0.2690  0.9542 -0.0004
 3398TIP3    H131609   2.555   3.912  13.663  0.3688  0.8365 -0.2603
 3398TIP3    H231610   2.664   3.850  13.748  0.0167  1.1782  0.4412
 3399TIP3   OH231611   2.981   2.340   1.125 -0.5393  0.2042  0.0148
 3399TIP3    H131612   3.058   2.323   1.179  0.0562  0.9007 -0.6005
 3399TIP3    H231613   3.013   2.334   1.035 -0.8621  1.9980 -0.2438
 3400TIP3   OH231614   1.174   2.009   0.697 -0.1836  0.0958  0.2511
 3400TIP3    H131615   1.230   1.962   0.635 -0.5771  3.7829 -3.3727
 3400TIP3    H231616   1.203   2.100   0.690 -0.2747  0.8663  5.8006
 3401TIP3   OH231617   2.197   6.724  15.085 -1.0900  0.6827  0.2388
 3401TIP3    H131618   2.205   6.814  15.053 -0.3914  1.2618  1.9295
 3401TIP3    H231619   2.114   6.724  15.134 -1.2535  0.3097 -0.0343
 3402TIP3   OH231620   5.879   4.192  16.220 -0.1929 -0.2716  0.1856
 3402TIP3    H131621   5.814   4.194  16.149 -1.4430 -1.7504  1.2168
 3402TIP3    H231622   5.828   4.174  16.299  1.1808  1.1723  1.4790
 3403TIP3   OH231623   0.838   4.434  12.170  0.2454  0.1571  0.4207
 3403TIP3    H131624   0.801   4.352  12.202  0.8608 -0.2687  0.0638
 3403TIP3    H231625   0.932   4.429  12.191  0.2814  0.8004  0.4594
 3404TIP3   OH231626   0.397   6.576   4.870 -0.4986 -0.4551  0.1152
 3404TIP3    H131627   0.431   6.574   4.781 -0.8753  0.1217 -0.0482
 3404TIP3    H231628   0.319   6.631   4.865  0.0288  0.4131  0.9904
 3405TIP3   OH231629   0.174   0.540  14.165  0.2466  1.2001  0.2781
 3405TIP3    H131630   0.214   0.627  14.167  0.3211  1.1536  1.0513
 3405TIP3    H231631   0.174   0.511  14.256  0.3839  0.3134  0.0092
 3406TIP3   OH231632   1.518   0.223  13.887 -0.3276 -0.5522 -0.4256
 3406TIP3    H131633   1.506   0.238  13.793  1.1607 -1.2291 -0.7577
 3406TIP3    H231634   1.430   0.218  13.922 -0.9621  2.2295 -1.3445
 3407TIP3   OH231635   4.680   1.610  16.691  0.2808 -0.0119  0.0617
 3407TIP3    H131636   4.597   1.576  16.725  0.9982 -2.0342 -0.0734
 3407TIP3    H231637   4.746   1.576  16.753  1.0985  0.6857 -0.4157
 3408TIP3   OH231638   3.165   1.414   0.541  0.5110 -0.0929 -0.0045
 3408TIP3    H131639   3.163   1.504   0.506  0.3912  0.1631  0.6415
 3408TIP3    H231640   3.163   1.358   0.463  0.1070  0.4607 -0.4040
 3409TIP3   OH231641   5.551   6.150  12.615  0.1257 -0.1480  0.1882
 3409TIP3    H131642   5.561   6.203  12.535  2.7103  0.2702  0.7320
 3409TIP3    H231643   5.544   6.214  12.685 -0.1078 -0.5409  0.5277
 3410TIP3   OH231644   0.223   1.215  14.489  0.0666 -0.3043  0.0889
 3410TIP3    H131645   0.248   1.295  14.536 -0.9734  1.0366 -1.5442
 3410TIP3    H231646   0.151   1.242  14.432 -0.0451 -2.3321 -0.7982
 3411TIP3   OH231647   0.487   3.674  12.693 -0.1368 -0.2777  0.5017
 3411TIP3    H131648   0.539   3.609  12.645 -0.2083  0.2016 -0.2373
 3411TIP3    H231649   0.547   3.708  12.760  0.3944  0.0171 -0.1178
 3412TIP3   OH231650   4.575   4.174   0.507 -0.3335 -0.0853 -0.2500
 3412TIP3    H131651   4.587   4.267   0.525  2.6257 -0.7063  1.7161
 3412TIP3    H231652   4.587   4.167   0.412 -2.2165  1.6408 -0.6908
 3413TIP3   OH231653   5.852   1.653  16.733  0.2725 -0.4628 -0.4151
 3413TIP3    H131654   5.893   1.722  16.786  3.0138 -2.3407  0.1143
 3413TIP3    H231655   5.919   1.630  16.669 -0.3910 -2.8958 -0.3117
 3414TIP3   OH231656   0.254   6.257  16.741  0.2122 -0.6708  0.0834
 3414TIP3    H131657   0.339   6.223  16.715  0.6972  1.3079 -1.0878
 3414TIP3    H231658   0.224   6.307  16.666 -0.6312  1.1468  1.5538
 3415TIP3   OH231659   3.447   0.929   0.288 -0.1610 -0.4825  0.4550
 3415TIP3    H131660   3.396   0.853   0.315 -2.8763  1.6207  1.7634
 3415TIP3    H231661   3.420   0.945   0.198  0.1078 -0.8456  0.3108
 3416TIP3   OH231662   6.243   1.331   3.895  0.8692  0.3172  0.2714
 3416TIP3    H131663   6.157   1.340   3.854  1.2528 -0.9467 -0.8814
 3416TIP3    H231664   6.305   1.356   3.826  1.4415  1.3391  1.1291
 3417TIP3   OH231665   1.867   2.182  11.168 -0.1206 -0.0498  0.1133
 3417TIP3    H131666   1.910   2.262  11.140  1.2013 -0.5368  0.6747
 3417TIP3    H231667   1.787   2.177  11.115 -0.6466  2.0317  0.6185
 3418TIP3   OH231668   5.766   1.364  16.105 -0.2735 -0.1495  0.3471
 3418TIP3    H131669   5.839   1.303  16.096 -0.3637 -0.5454  1.9349
 3418TIP3    H231670   5.799   1.434  16.161 -0.6236  0.5246 -0.2650
 3419TIP3   OH231671   0.085   1.543   3.909  0.0257 -0.4243 -0.1300
 3419TIP3    H131672   0.037   1.546   3.826 -0.3103  0.6137  0.0899
 3419TIP3    H231673   0.176   1.525   3.883 -0.3930 -2.0340 -0.5688
 3420TIP3   OH231674   6.016   2.984  11.529 -0.1495 -0.1060 -0.1933
 3420TIP3    H131675   6.038   3.032  11.449 -0.6036 -0.4079 -0.5040
 3420TIP3    H231676   6.011   3.052  11.596 -0.3072  0.2260 -0.5327
 3421TIP3   OH231677   1.034   2.972   5.471  0.4439  0.1332 -0.2054
 3421TIP3    H131678   1.110   3.018   5.509 -0.0069  0.2544  0.5761
 3421TIP3    H231679   1.070   2.922   5.398  1.1208  0.9283 -0.4267
 3422TIP3   OH231680   3.898   4.336   0.926 -0.3560  0.1401  0.7203
 3422TIP3    H131681   3.945   4.305   1.003  2.0311 -0.7051 -0.9638
 3422TIP3    H231682   3.946   4.300   0.852 -2.4367  1.0660 -1.2022
 3423TIP3   OH231683   0.514   3.106   0.606 -0.4676 -0.6101  0.3291
 3423TIP3    H131684   0.558   3.143   0.683 -0.7838  2.2872 -0.7451
 3423TIP3    H231685   0.579   3.111   0.536 -1.1890 -0.1127 -0.3302
 3424TIP3   OH231686   5.658   6.252   5.278 -0.6982 -0.5382  0.4316
 3424TIP3    H131687   5.573   6.217   5.305 -1.3559  0.2380 -0.5400
 3424TIP3    H231688   5.659   6.342   5.313 -0.6614 -0.2462 -0.2972
 3425TIP3   OH231689   5.323   3.231  13.488 -0.0417  0.3977 -0.2803
 3425TIP3    H131690   5.255   3.171  13.456  0.1167  1.1600 -2.1909
 3425TIP3    H231691   5.339   3.290  13.414  2.9080  0.0804 -0.0110
 3426TIP3   OH231692   2.545   2.198  13.152 -0.0708 -0.7812 -0.7032
 3426TIP3    H131693   2.512   2.209  13.063 -0.8786 -0.2353 -0.3510
 3426TIP3    H231694   2.528   2.282  13.195 -0.7811 -1.4024  0.2982
 3427TIP3   OH231695   6.447   4.220  17.163 -0.4770  0.1013 -0.0868
 3427TIP3    H131696   6.500   4.250  17.238 -1.8265 -1.4759  1.5886
 3427TIP3    H231697   6.455   4.125  17.164 -1.7767 -0.0405 -0.9999
 3428TIP3   OH231698   3.755   5.949  12.689  0.5631  0.2893 -0.5195
 3428TIP3    H131699   3.816   5.957  12.616  1.0734  0.1002 -0.1216
 3428TIP3    H231700   3.722   5.860  12.683  0.8659  0.1634 -0.3175
 3429TIP3   OH231701   5.796   3.251  13.344  0.0729 -0.2893  0.5500
 3429TIP3    H131702   5.887   3.264  13.370 -0.0002 -0.1550  0.7414
 3429TIP3    H231703   5.759   3.194  13.411 -0.4200  0.9655  1.3962
 3430TIP3   OH231704   3.313   2.288  13.209  0.3617 -0.1329 -0.6024
 3430TIP3    H131705   3.353   2.249  13.287 -0.6842  0.2645  0.1611
 3430TIP3    H231706   3.224   2.312  13.237 -0.2588 -0.5595 -2.0957
 3431TIP3   OH231707   4.822   1.887   4.948  0.1906 -0.0300  0.3301
 3431TIP3    H131708   4.898   1.916   4.898  0.3640 -0.8799  0.0833
 3431TIP3    H231709   4.858   1.844   5.025  0.0910 -2.6235 -0.9633
 3432TIP3   OH231710   1.731   4.605   5.101 -0.1221  0.4717  0.0963
 3432TIP3    H131711   1.769   4.661   5.169  1.3968 -0.0464 -0.2775
 3432TIP3    H231712   1.796   4.606   5.030  0.4098 -2.3998  0.4091
 3433TIP3   OH231713   0.280   2.094  17.265  0.3700  0.0213 -0.2156
 3433TIP3    H131714   0.326   2.169  17.303  0.5923 -0.4788  0.5183
 3433TIP3    H231715   0.303   2.020  17.322 -1.8996 -0.1090  0.6632
 3434TIP3   OH231716   4.370   1.941   5.644  0.5797  0.2171  0.2633
 3434TIP3    H131717   4.292   1.919   5.593  2.1837 -0.7086 -1.9530
 3434TIP3    H231718   4.351   1.908   5.732 -1.0051 -1.1525 -0.5352
 3435TIP3   OH231719   5.221   2.876   3.496 -0.1905 -0.0261 -0.1544
 3435TIP3    H131720   5.242   2.960   3.536 -2.7740 -0.4104  2.2812
 3435TIP3    H231721   5.144   2.894   3.442  0.5552 -0.4507 -1.4110
 3436TIP3   OH231722   0.361   3.952  15.468  0.9349  0.1844 -0.5525
 3436TIP3    H131723   0.342   3.915  15.555 -1.8884 -0.9601 -1.5165
 3436TIP3    H231724   0.401   4.037  15.486  1.3135 -0.4228  1.8517
 3437TIP3   OH231725   2.159   3.159  12.398  0.3204 -0.1747  0.9747
 3437TIP3    H131726   2.216   3.231  12.374  1.7090 -1.0334  1.5701
 3437TIP3    H231727   2.146   3.110  12.317 -0.1661  0.4034  0.6930
 3438TIP3   OH231728   0.644   4.746   3.601 -0.0586 -0.6582 -0.0916
 3438TIP3    H131729   0.635   4.839   3.620  1.0431 -0.5891  0.1719
 3438TIP3    H231730   0.555   4.716   3.584 -0.5336  0.2518  0.7115
 3439TIP3   OH231731   1.192   3.415  13.655 -0.2845 -0.0474 -0.0706
 3439TIP3    H131732   1.098   3.412  13.670 -0.6039  0.2681 -1.8197
 3439TIP3    H231733   1.212   3.332  13.611 -0.2759  1.0533 -2.2713
 3440TIP3   OH231734   1.899   3.482  11.190 -0.3769  0.2492  0.1270
 3440TIP3    H131735   1.847   3.403  11.177  0.5642  0.0006 -2.8690
 3440TIP3    H231736   1.984   3.450  11.221 -0.3528  0.1907  0.0004
 3441TIP3   OH231737   4.374   4.609  14.995  0.6687 -0.2580  0.1705
 3441TIP3    H131738   4.467   4.629  14.996  1.2322 -2.5992  0.1390
 3441TIP3    H231739   4.367   4.527  14.946 -1.4260 -0.1290  0.1317
 3442TIP3   OH231740   2.702   1.374  16.270  0.0158 -0.0594  0.0858
 3442TIP3    H131741   2.696   1.456  16.319  1.0379  0.0946 -0.0188
 3442TIP3    H231742   2.612   1.355  16.245 -0.1697  1.3781 -0.4547
 3443TIP3   OH231743   2.122   6.630   2.419 -0.4647  0.1074  0.7176
 3443TIP3    H131744   2.113   6.550   2.368  2.7292  0.1198 -0.0235
 3443TIP3    H231745   2.193   6.612   2.480  0.6218  2.4658  0.2692
 3444TIP3   OH231746   1.779   5.558  11.566  0.2251 -0.2750  0.2440
 3444TIP3    H131747   1.719   5.543  11.493 -0.9349 -1.5730  1.3961
 3444TIP3    H231748   1.866   5.549  11.528 -0.3603 -1.6432 -0.8605
 3445TIP3   OH231749   5.078   2.647   4.049 -0.3385 -0.1217 -0.2188
 3445TIP3    H131750   5.108   2.733   4.022  0.0151 -0.1145  0.1842
 3445TIP3    H231751   5.158   2.596   4.063 -0.4877 -0.0667  0.9793
 3446TIP3   OH231752   3.968   2.692  15.271 -0.3464 -0.2720 -0.3787
 3446TIP3    H131753   3.953   2.680  15.365  0.6210 -1.4987 -0.3511
 3446TIP3    H231754   4.043   2.751  15.267 -0.9579  0.5163 -0.4086
 3447TIP3   OH231755   1.942   0.745  14.318  0.2823 -0.4960  0.8647
 3447TIP3    H131756   1.883   0.802  14.367 -0.0295 -0.1695  0.1140
 3447TIP3    H231757   2.008   0.804  14.281 -0.1966 -0.5818 -0.1392
 3448TIP3   OH231758   1.570   3.329  12.150  0.2917  0.5643 -0.2698
 3448TIP3    H131759   1.583   3.424  12.151  1.4006  0.4229 -0.5147
 3448TIP3    H231760   1.655   3.292  12.172 -0.0388 -0.3902 -0.5221
 3449TIP3   OH231761   6.443   5.843   6.662  0.4316 -0.3043 -0.1915
 3449TIP3    H131762   6.511   5.826   6.597 -0.2425 -0.7011 -0.8088
 3449TIP3    H231763   6.462   5.930   6.696 -0.3714  0.7922 -2.3952
 3450TIP3   OH231764   2.717   4.521   5.235 -0.4123  0.1509  0.1108
 3450TIP3    H131765   2.645   4.517   5.298 -0.5433 -0.1116 -0.0559
 3450TIP3    H231766   2.729   4.431   5.206 -1.1598  0.4204 -1.1398
 3451TIP3   OH231767   0.335   1.420   4.902 -0.4074  0.1629 -1.0825
 3451TIP3    H131768   0.375   1.485   4.959 -1.2887  0.2436 -0.5424
 3451TIP3    H231769   0.333   1.462   4.816 -1.1325  0.9448 -0.7025
 3452TIP3   OH231770   0.555   4.161  14.596  0.2074  0.0617  0.3469
 3452TIP3    H131771   0.527   4.070  14.597  2.3402 -0.7021 -1.5602
 3452TIP3    H231772   0.493   4.204  14.536  0.0889 -0.4616  0.0884
 3453TIP3   OH231773   5.410   4.158  12.335  0.1437  0.3226  0.3784
 3453TIP3    H131774   5.372   4.242  12.360 -0.8110  0.2827 -0.8494
 3453TIP3    H231775   5.388   4.148  12.242 -0.5055 -1.6531  0.6844
 3454TIP3   OH231776   5.165   3.375   0.161 -0.2229 -0.2667 -0.2150
 3454TIP3    H131777   5.222   3.429   0.105 -2.3331  1.4959 -0.8018
 3454TIP3    H231778   5.089   3.356   0.106 -1.5393 -0.0548  1.4721
 3455TIP3   OH231779   4.939   4.577  15.135  0.0028  0.1842  0.1136
 3455TIP3    H131780   4.965   4.533  15.217  1.0137 -0.1435 -0.3632
 3455TIP3    H231781   4.847   4.599  15.148  0.3287  0.8184  1.6474
 3456TIP3   OH231782   3.724   3.234  13.766  0.1413 -0.0892 -0.3767
 3456TIP3    H131783   3.763   3.210  13.851  1.2956  1.9991 -0.2562
 3456TIP3    H231784   3.790   3.208  13.702  0.2168  0.3047 -0.4584
 3457TIP3   OH231785   3.167   5.190   4.849 -0.2687 -0.2890 -0.7163
 3457TIP3    H131786   3.128   5.114   4.893 -1.4661  1.1247  0.8204
 3457TIP3    H231787   3.105   5.212   4.780 -0.6658  0.1441 -0.2270
 3458TIP3   OH231788   6.004   2.015   5.184 -0.1659  0.2616  0.0243
 3458TIP3    H131789   6.038   2.104   5.191  0.2121  0.1694 -0.5554
 3458TIP3    H231790   6.080   1.959   5.194 -0.5894 -0.0494  1.6860
 3459TIP3   OH231791   0.981   3.120  16.393 -0.3485  0.0610  0.3054
 3459TIP3    H131792   0.901   3.104  16.443  1.1217 -0.9421  2.4797
 3459TIP3    H231793   0.990   3.045  16.336 -0.4571 -0.3220  0.7860
 3460TIP3   OH231794   5.581   3.149  16.151  0.3616  0.6509 -0.3808
 3460TIP3    H131795   5.532   3.158  16.233  0.1753 -1.8602 -0.1356
 3460TIP3    H231796   5.655   3.209  16.160 -0.2002  1.1419  1.2047
 3461TIP3   OH231797   4.973   3.765  11.130  0.1548 -0.2638  0.1764
 3461TIP3    H131798   4.927   3.692  11.089 -0.9814  0.3766  0.2794
 3461TIP3    H231799   4.943   3.842  11.081  0.0810  0.3165  1.1279
 3462TIP3   OH231800   0.821   5.358  13.062 -0.3800 -0.4987 -0.3341
 3462TIP3    H131801   0.845   5.266  13.078 -1.2326 -0.8153 -0.7872
 3462TIP3    H231802   0.871   5.382  12.984  1.7771  0.2352  1.1833
 3463TIP3   OH231803   5.029   0.512   5.089  0.2126  1.0551  0.3684
 3463TIP3    H131804   5.020   0.594   5.041  2.1381  1.7272  1.0998
 3463TIP3    H231805   5.091   0.461   5.039  0.0039  0.5608  0.6046
 3464TIP3   OH231806   3.500   5.284  15.306  0.3353 -0.1865  0.8049
 3464TIP3    H131807   3.527   5.197  15.276 -0.2487  0.0486 -0.4870
 3464TIP3    H231808   3.581   5.335  15.307  0.7115 -0.7743  1.7357
 3465TIP3   OH231809   5.685   2.254  14.474  0.5757 -1.1059 -0.5918
 3465TIP3    H131810   5.775   2.247  14.441  0.6529 -1.7122 -0.2804
 3465TIP3    H231811   5.639   2.305  14.408  1.0004 -1.3353 -1.0781
 3466TIP3   OH231812   1.809   0.803  14.831 -0.2021 -0.5421 -0.2458
 3466TIP3    H131813   1.801   0.725  14.886 -1.5992 -1.3778 -1.5335
 3466TIP3    H231814   1.779   0.774  14.745  0.5570  1.0850 -1.1091
 3467TIP3   OH231815   5.273   1.843   3.858 -0.1136  0.0805 -0.2938
 3467TIP3    H131816   5.185   1.857   3.893 -0.1781  2.2919 -1.1341
 3467TIP3    H231817   5.328   1.832   3.935 -0.5146  3.1225  0.5555
 3468TIP3   OH231818   5.174   2.269  11.547  0.6846 -0.0485  0.7605
 3468TIP3    H131819   5.230   2.317  11.607  1.9116 -1.3144  0.6813
 3468TIP3    H231820   5.212   2.181  11.543 -0.4316 -0.5214 -0.4640
 3469TIP3   OH231821   1.171   6.605  13.931 -0.2295  0.1102 -0.6297
 3469TIP3    H131822   1.261   6.595  13.961 -0.0362 -2.4171 -1.7679
 3469TIP3    H231823   1.171   6.687  13.881  1.9556 -0.7713 -2.2242
 3470TIP3   OH231824   3.566   4.716  15.087 -0.0099  0.0443  0.1382
 3470TIP3    H131825   3.489   4.768  15.061 -1.7827 -2.8970 -1.0172
 3470TIP3    H231826   3.550   4.695  15.179 -1.5640 -1.9043 -0.5036
 3471TIP3   OH231827   6.456   4.170   5.140 -0.2340 -0.2679  0.0039
 3471TIP3    H131828   6.388   4.192   5.204 -1.1285  0.2630 -1.0948
 3471TIP3    H231829   6.455   4.244   5.078  1.2810 -0.2991 -0.0913
 3472TIP3   OH231830   4.354   4.218  12.034  0.3716  0.0645 -1.2491
 3472TIP3    H131831   4.282   4.234  11.974 -1.1600 -0.1181  0.4682
 3472TIP3    H231832   4.384   4.305  12.060 -0.8148  0.1714 -0.1718
 3473TIP3   OH231833   4.482   4.999   0.052 -0.0814  0.1184  0.1621
 3473TIP3    H131834   4.417   5.065   0.029  0.4574  0.1094 -1.5234
 3473TIP3    H231835   4.520   5.029   0.135 -2.3883 -0.0374  1.3550
 3474TIP3   OH231836   5.465   1.938   1.714  0.3152 -0.0602  0.4917
 3474TIP3    H131837   5.437   1.975   1.631 -0.1888  1.7317  1.4176
 3474TIP3    H231838   5.536   1.878   1.691 -0.7495 -0.6886 -1.3524
 3475TIP3   OH231839   1.159   0.220  11.833 -0.1658 -0.4747 -0.1653
 3475TIP3    H131840   1.244   0.199  11.871 -0.3585  0.0496  0.5600
 3475TIP3    H231841   1.143   0.311  11.857 -1.1864 -0.7368  0.1881
 3476TIP3   OH231842   4.236   1.368   0.686  0.5645 -0.0129  0.1981
 3476TIP3    H131843   4.285   1.295   0.725  0.1758  0.7163  2.1783
 3476TIP3    H231844   4.304   1.426   0.652  1.0505  0.2933  1.6275
 3477TIP3   OH231845   3.337   5.252  12.831 -0.1603 -0.2106 -0.3950
 3477TIP3    H131846   3.431   5.262  12.817 -0.4357  1.5814 -1.2035
 3477TIP3    H231847   3.331   5.209  12.917  1.3818 -0.1783 -0.2318
 3478TIP3   OH231848   1.413   4.875   5.339 -1.0002  0.1676  0.1807
 3478TIP3    H131849   1.340   4.910   5.391 -0.5830 -0.3922  1.1716
 3478TIP3    H231850   1.384   4.884   5.248 -2.3490 -0.1435  0.5594
 3479TIP3   OH231851   3.666   5.095  13.509  0.7518  0.0798  0.2476
 3479TIP3    H131852   3.678   5.184  13.475  2.1057  0.3619  1.4127
 3479TIP3    H231853   3.648   5.106  13.602 -1.3701 -0.7736  0.0006
 3480TIP3   OH231854   0.530   1.246  11.864 -0.3243 -0.1278  0.0535
 3480TIP3    H131855   0.466   1.304  11.906  1.9019  2.3108  0.2936
 3480TIP3    H231856   0.546   1.285  11.779  0.9662 -0.6113  0.0597
 3481TIP3   OH231857   6.465   3.780   2.530 -0.2253  0.3792 -0.7177
 3481TIP3    H131858   6.389   3.733   2.497 -0.5245 -0.2648  0.8374
 3481TIP3    H231859   6.539   3.743   2.481 -0.4648 -1.6444  0.3403
 3482TIP3   OH231860   0.938   4.859  14.893  0.0176  0.8210 -0.1003
 3482TIP3    H131861   1.015   4.912  14.875  0.5654  0.0119 -0.2127
 3482TIP3    H231862   0.953   4.778  14.844  0.0114 -0.1314  1.4045
 3483TIP3   OH231863   5.792   5.405   0.762 -0.2814  0.7100 -0.3631
 3483TIP3    H131864   5.819   5.314   0.750 -0.3066  0.5896  0.4943
 3483TIP3    H231865   5.865   5.446   0.808 -1.0056  0.6883  0.8389
 3484TIP3   OH231866   6.408   0.661  14.871 -0.6412 -0.5017 -0.2512
 3484TIP3    H131867   6.474   0.599  14.841 -0.0316  0.4844 -1.0320
 3484TIP3    H231868   6.342   0.662  14.800 -0.4940 -0.0474 -0.3858
 3485TIP3   OH231869   3.372   1.318  10.647 -0.0910 -0.1704  0.0744
 3485TIP3    H131870   3.389   1.247  10.584  0.6557 -0.2210  0.3137
 3485TIP3    H231871   3.411   1.286  10.728  0.7543  0.7388  0.0518
 3486TIP3   OH231872   3.423   4.801   6.327 -0.8220 -0.3444 -0.1702
 3486TIP3    H131873   3.486   4.763   6.265  1.2563  0.2202  1.4608
 3486TIP3    H231874   3.440   4.896   6.322  1.6408 -0.4091  3.2969
 3487TIP3   OH231875   0.400   2.623  12.113  0.2412  0.5455 -0.4029
 3487TIP3    H131876   0.334   2.668  12.167  0.2026 -0.0184  0.0308
 3487TIP3    H231877   0.467   2.689  12.098  0.1659  0.7698  0.1899
 3488TIP3   OH231878   2.128   5.344   0.279  0.2008  0.7476 -0.5255
 3488TIP3    H131879   2.094   5.321   0.193 -0.7150 -0.0993  0.0448
 3488TIP3    H231880   2.223   5.352   0.266 -0.0698  2.0852 -1.9004
 3489TIP3   OH231881   6.476   2.622  12.892 -0.2052  0.5425  0.4248
 3489TIP3    H131882   6.463   2.717  12.893 -2.3300  0.3017  1.3329
 3489TIP3    H231883   6.473   2.598  12.799 -2.3745  1.1123  0.2841
 3490TIP3   OH231884   0.063   0.332   0.218  0.1752 -0.0909 -0.1897
 3490TIP3    H131885   0.102   0.266   0.275 -0.8234  0.3163  0.9875
 3490TIP3    H231886   0.056   0.288   0.133  0.9974 -0.9527  0.1628
 3491TIP3   OH231887   0.233   1.102  11.087 -0.0661 -0.3730 -0.8596
 3491TIP3    H131888   0.297   1.095  11.158  0.4908 -0.7316 -1.3853
 3491TIP3    H231889   0.246   1.023  11.036 -0.7975 -0.3473 -1.0943
 3492TIP3   OH231890   0.335   3.906  14.449  0.2750  0.1725 -0.0696
 3492TIP3    H131891   0.307   3.992  14.416 -1.4081 -1.0089 -1.9737
 3492TIP3    H231892   0.416   3.888  14.403  0.1158  0.3252 -0.4132
 3493TIP3   OH231893   2.066   3.815  13.839  0.0478  0.0045  0.4767
 3493TIP3    H131894   2.011   3.887  13.870 -0.3013  0.2286 -0.6085
 3493TIP3    H231895   2.154   3.851  13.837 -0.1632  0.5169 -0.3273
 3494TIP3   OH231896   4.399   2.888   5.429  0.4405  0.5696 -0.2352
 3494TIP3    H131897   4.430   2.885   5.520 -0.1838  0.0438 -0.0273
 3494TIP3    H231898   4.392   2.796   5.404 -2.4604  0.5356  0.2900
 3495TIP3   OH231899   4.094   1.287  10.219  0.1446 -0.1806  0.7325
 3495TIP3    H131900   4.051   1.204  10.242  0.5274 -0.5333  0.2107
 3495TIP3    H231901   4.178   1.285  10.265  0.4360 -0.3866  0.2007
 3496TIP3   OH231902   3.239   1.321   4.091 -0.2546 -0.1961  0.0215
 3496TIP3    H131903   3.213   1.409   4.119  0.3459 -0.3293  1.0520
 3496TIP3    H231904   3.174   1.263   4.132  0.0455 -0.3189  0.3254
 3497TIP3   OH231905   6.522   2.777   2.167 -0.0584 -0.3893 -0.2322
 3497TIP3    H131906   6.476   2.733   2.096 -1.5701  0.6062  0.0839
 3497TIP3    H231907   6.459   2.841   2.201  1.4438  0.7843  0.4686
 3498TIP3   OH231908   2.761   4.433   6.255  0.2344 -0.0321 -0.9233
 3498TIP3    H131909   2.811   4.512   6.233 -1.2707  1.7462  1.5562
 3498TIP3    H231910   2.670   4.457   6.244 -0.3192 -0.9798  1.1366
 3499TIP3   OH231911   2.668   2.891  13.672 -0.6642  0.4793  0.1916
 3499TIP3    H131912   2.657   2.979  13.637  0.6595  0.0410 -1.4782
 3499TIP3    H231913   2.648   2.833  13.599 -0.2117 -0.5642  0.8645
 3500TIP3   OH231914   3.903   2.195  14.739  0.0381 -0.2242 -0.1728
 3500TIP3    H131915   3.929   2.105  14.719  0.2134  0.0717 -1.3600
 3500TIP3    H231916   3.985   2.244  14.735  0.2788 -0.2738  2.3589
 3501TIP3   OH231917   0.694   5.586   5.592 -0.0567 -0.3277 -0.3254
 3501TIP3    H131918   0.765   5.639   5.555 -0.8273  0.9262 -0.0916
 3501TIP3    H231919   0.666   5.635   5.670 -1.3223 -0.6809 -0.5389
 3502TIP3   OH231920   4.401   3.703   0.797  0.1159 -0.3891  0.0198
 3502TIP3    H131921   4.423   3.614   0.767  0.8355  0.0440 -0.7751
 3502TIP3    H231922   4.309   3.714   0.774  0.4458 -0.3535 -1.3422
 3503TIP3   OH231923   2.228   0.570   1.764  0.0488 -0.1451 -0.6427
 3503TIP3    H131924   2.320   0.573   1.793 -0.1740 -1.2254  0.2386
 3503TIP3    H231925   2.198   0.483   1.789 -1.1103  0.0539 -1.2951
 3504TIP3   OH231926   5.204   3.686  11.966 -0.9022 -0.4314 -0.0810
 3504TIP3    H131927   5.144   3.760  11.960 -0.7439 -0.3407 -0.6082
 3504TIP3    H231928   5.288   3.721  11.934 -0.6534 -0.6487  0.3263
 3505TIP3   OH231929   1.695   4.682   0.381  0.0649  0.0400  0.1018
 3505TIP3    H131930   1.739   4.739   0.444  1.5926  0.1502 -1.0279
 3505TIP3    H231931   1.630   4.635   0.434 -0.9919  2.4717  1.1500
 3506TIP3   OH231932   3.448   0.775   3.437 -0.4186  0.1731 -0.2851
 3506TIP3    H131933   3.397   0.791   3.516  3.0218  1.2166  1.9866
 3506TIP3    H231934   3.475   0.684   3.443 -0.4261  0.1615 -0.4174
 3507TIP3   OH231935   4.847   4.980   5.562 -0.2695 -0.2994 -0.0890
 3507TIP3    H131936   4.774   4.920   5.579 -0.7348 -0.1309 -1.3528
 3507TIP3    H231937   4.897   4.982   5.644 -2.8018  1.1883  1.5452
 3508TIP3   OH231938   4.505   0.718   6.350  0.1990  0.3584  0.2254
 3508TIP3    H131939   4.593   0.749   6.374  0.2110  0.5775 -0.1115
 3508TIP3    H231940   4.506   0.625   6.373  0.9943  0.0181 -1.0800
 3509TIP3   OH231941   5.798   4.862  14.995 -0.1543  0.2406  0.3494
 3509TIP3    H131942   5.885   4.860  15.034 -0.4343 -2.2833  1.0369
 3509TIP3    H231943   5.754   4.785  15.031 -2.0361  0.4056 -1.4132
 3510TIP3   OH231944   4.490   2.169   1.811  0.3365  0.5893 -0.1073
 3510TIP3    H131945   4.470   2.144   1.721 -1.0299  0.2471  0.2674
 3510TIP3    H231946   4.472   2.263   1.814  1.4415  0.8279 -0.4508
 3511TIP3   OH231947   3.068   2.596  16.024 -0.2856  0.1053  0.2474
 3511TIP3    H131948   3.111   2.644  15.953 -0.9351 -2.1719 -1.7936
 3511TIP3    H231949   3.138   2.580  16.088  0.9848 -0.1689 -1.1701
 3512TIP3   OH231950   1.949   5.373   0.475 -0.0778  0.6220  1.0347
 3512TIP3    H131951   1.933   5.468   0.478 -1.6806  0.3882  0.7830
 3512TIP3    H231952   2.001   5.360   0.396 -0.4721  1.2202  0.6710
 3513TIP3   OH231953   4.237   6.710  16.092  0.4840  0.2448  0.3170
 3513TIP3    H131954   4.257   6.775  16.024  2.6334 -0.6593 -0.0177
 3513TIP3    H231955   4.279   6.630  16.061 -0.0281 -0.6697  1.8758
 3514TIP3   OH231956   4.995   3.870   2.253 -0.6852  0.5720 -0.1735
 3514TIP3    H131957   5.058   3.798   2.257 -0.2549  0.8692 -1.2789
 3514TIP3    H231958   5.048   3.946   2.225 -1.3195  1.0867  0.0008
 3515TIP3   OH231959   1.274   0.355  11.568  0.3084 -0.0209 -0.0946
 3515TIP3    H131960   1.270   0.450  11.559  0.6053 -0.1523 -1.8422
 3515TIP3    H231961   1.367   0.336  11.584  0.6796 -0.1605 -2.1580
 3516TIP3   OH231962   3.228   6.559  16.766 -0.5921 -0.1640  0.1485
 3516TIP3    H131963   3.232   6.617  16.690  0.5902  1.0491  1.0847
 3516TIP3    H231964   3.312   6.512  16.764 -0.4828 -0.0006  0.7825
 3517TIP3   OH231965   6.290   6.437   6.349 -0.0454  0.4570 -0.6388
 3517TIP3    H131966   6.239   6.374   6.298 -0.3482  1.1607 -1.2119
 3517TIP3    H231967   6.381   6.419   6.324 -0.0893 -0.0325 -0.4723
 3518TIP3   OH231968   2.341   3.294   4.084  0.0334 -0.5283 -0.3368
 3518TIP3    H131969   2.280   3.365   4.103  0.6521  0.1744 -0.8910
 3518TIP3    H231970   2.422   3.338   4.056  0.2638 -1.4422 -1.2039
 3519TIP3   OH231971   5.084   3.803  14.037  0.4499 -0.6249 -0.6349
 3519TIP3    H131972   5.075   3.711  14.064  1.4350 -0.3797  0.6157
 3519TIP3    H231973   5.116   3.847  14.115 -1.7350  1.1466 -0.6465
 3520TIP3   OH231974   6.085   6.195  13.142 -0.0965  0.4874  0.2243
 3520TIP3    H131975   6.061   6.258  13.073  0.5859 -0.9488 -1.4088
 3520TIP3    H231976   6.034   6.117  13.121  0.4555 -0.1178  1.0993
 3521TIP3   OH231977   2.392   1.373   2.631  0.5295 -0.6453 -0.5166
 3521TIP3    H131978   2.459   1.399   2.568 -1.1573  1.3196 -1.6317
 3521TIP3    H231979   2.323   1.332   2.577 -1.0037  1.1903 -0.0613
 3522TIP3   OH231980   0.498   0.830   0.455  0.7529 -0.2292 -0.3898
 3522TIP3    H131981   0.445   0.857   0.381 -0.2010 -1.1710 -0.0857
 3522TIP3    H231982   0.576   0.886   0.452 -0.2443  1.1698 -0.8630
 3523TIP3   OH231983   3.285   1.645   3.228 -0.3953  0.0608  0.4645
 3523TIP3    H131984   3.351   1.709   3.256  0.1079 -0.1419 -0.2196
 3523TIP3    H231985   3.332   1.588   3.168 -1.3036  0.1535 -0.3562
 3524TIP3   OH231986   3.309   1.570  10.907  0.2107  0.4023 -0.0829
 3524TIP3    H131987   3.242   1.580  10.840  1.5482  2.1090 -1.2637
 3524TIP3    H231988   3.358   1.652  10.904  1.7149 -0.3794  1.4425
 3525TIP3   OH231989   4.300   4.038   0.773  0.1177 -0.0346  0.0993
 3525TIP3    H131990   4.364   4.048   0.843  0.5599  0.1744 -0.3334
 3525TIP3    H231991   4.312   3.949   0.741  1.1093  0.4348 -0.8715
 3526TIP3   OH231992   0.258   6.593   5.655 -0.3791  0.1903  0.1367
 3526TIP3    H131993   0.212   6.585   5.571  0.5068  0.3586 -0.3748
 3526TIP3    H231994   0.193   6.629   5.715 -1.0941 -0.1640 -0.4186
 3527TIP3   OH231995   2.477   6.547  14.291  0.2793 -0.4749 -0.0289
 3527TIP3    H131996   2.469   6.572  14.199 -0.4026  3.6353  0.9367
 3527TIP3    H231997   2.410   6.480  14.303 -1.3573  0.6504 -2.0750
 3528TIP3   OH231998   1.833   1.119   5.625  0.1935 -0.0485  1.1288
 3528TIP3    H131999   1.856   1.058   5.695  1.4274 -1.9541 -0.8221
 3528TIP3    H232000   1.754   1.081   5.586  1.4490 -0.9748 -0.6412
 3529TIP3   OH232001   6.705   0.660   4.066  0.2067 -0.3442 -0.3607
 3529TIP3    H132002   6.766   0.591   4.040 -0.3326 -0.3260 -1.7663
 3529TIP3    H232003   6.620   0.631   4.031 -0.2375  0.4963 -0.0054
 3530TIP3   OH232004   6.394   1.924   0.379 -0.3468  0.6829 -0.6771
 3530TIP3    H132005   6.377   1.990   0.312 -0.3578  1.5647  0.1782
 3530TIP3    H232006   6.362   1.963   0.461 -1.6090 -0.9196 -0.3471
 3531TIP3   OH232007   1.180   4.479   3.296  0.4017 -0.5082 -1.1112
 3531TIP3    H132008   1.167   4.469   3.202  0.2860 -1.2881 -1.0267
 3531TIP3    H232009   1.145   4.397   3.333  0.9124 -0.4282 -0.4403
 3532TIP3   OH232010   5.730   4.951   5.682 -0.1581  0.3915  0.2560
 3532TIP3    H132011   5.640   4.983   5.671 -0.1264  0.2388 -0.4880
 3532TIP3    H232012   5.720   4.858   5.699 -0.0950 -0.0020 -1.5728
 3533TIP3   OH232013   4.023   5.772  11.527 -0.0974  0.0891 -0.2191
 3533TIP3    H132014   3.992   5.837  11.590 -1.1933  0.5978 -1.2348
 3533TIP3    H232015   4.115   5.793  11.514  0.4088 -0.6172  1.8812
 3534TIP3   OH232016   6.308   4.372  13.109  0.1747 -0.0658 -0.1990
 3534TIP3    H132017   6.312   4.277  13.116  0.4777 -0.1130 -0.9370
 3534TIP3    H232018   6.310   4.390  13.015 -1.3724  0.6130 -0.1372
 3535TIP3   OH232019   1.094   3.710  10.789 -0.0355  1.1272 -0.6136
 3535TIP3    H132020   1.106   3.640  10.853  2.5635  2.9467  1.0784
 3535TIP3    H232021   1.145   3.683  10.713  1.1033  1.2344  0.0998
 3536TIP3   OH232022   5.005   3.866  11.988  0.2531  0.3016 -0.4865
 3536TIP3    H132023   4.983   3.921  12.063 -0.3859 -0.1799 -0.3080
 3536TIP3    H232024   4.920   3.838  11.953  0.4799 -2.8215  1.1038
 3537TIP3   OH232025   2.321   6.297   5.326  0.0986 -0.2073 -0.2738
 3537TIP3    H132026   2.309   6.319   5.234  0.6059  0.2730 -0.2321
 3537TIP3    H232027   2.319   6.202   5.329  0.1438 -0.2266 -0.7895
 3538TIP3   OH232028   6.266   5.542  15.732 -0.2432 -0.2798  0.5137
 3538TIP3    H132029   6.208   5.617  15.732 -0.4731 -0.4223 -1.3789
 3538TIP3    H232030   6.208   5.466  15.731 -0.0044 -0.4822  1.0965
 3539TIP3   OH232031   4.658   2.049  14.480 -0.6873  1.0937  0.1417
 3539TIP3    H132032   4.716   1.980  14.447  0.4857  2.5797 -0.9830
 3539TIP3    H232033   4.573   2.029  14.440 -0.7159 -0.4281  0.8802
 3540TIP3   OH232034   0.321   5.215   4.185  0.2144  0.2190  0.0298
 3540TIP3    H132035   0.291   5.234   4.274  1.0174  2.2651 -0.0640
 3540TIP3    H232036   0.365   5.130   4.191 -0.7190 -0.1891  1.3327
 3541TIP3   OH232037   0.656   5.390  15.017 -0.1015  0.0763 -0.2859
 3541TIP3    H132038   0.747   5.406  14.994 -0.4565 -0.1773 -2.0018
 3541TIP3    H232039   0.660   5.342  15.099  1.2444  1.3166  0.4249
 3542TIP3   OH232040   2.442   5.841  17.029 -0.5803 -0.5540 -0.3421
 3542TIP3    H132041   2.468   5.752  17.004  0.2701  0.1020 -1.9001
 3542TIP3    H232042   2.459   5.894  16.952 -2.9518  0.6551 -0.1069
 3543TIP3   OH232043   2.925   3.950  14.173  0.4206 -0.7397  0.2338
 3543TIP3    H132044   2.896   3.862  14.200 -0.2877 -0.7411 -0.5244
 3543TIP3    H232045   2.991   3.933  14.106  0.0890 -0.6948 -0.1071
 3544TIP3   OH232046   5.585   3.969  16.154 -1.3452  0.0652  0.2795
 3544TIP3    H132047   5.553   3.914  16.226  0.3544  0.1073  1.1095
 3544TIP3    H232048   5.657   3.919  16.116 -0.1437  1.4300  0.6735
 3545TIP3   OH232049   5.445   3.036   4.474  0.4281 -0.4511  0.3131
 3545TIP3    H132050   5.487   3.116   4.505 -0.7135  0.0821  0.5264
 3545TIP3    H232051   5.392   3.063   4.400 -0.3498 -0.9071  0.6858
 3546TIP3   OH232052   4.353   1.420  13.918  0.2255 -0.3173 -1.1041
 3546TIP3    H132053   4.329   1.512  13.928  3.6687  0.6100  0.0567
 3546TIP3    H232054   4.304   1.374  13.986  1.0626  1.2766  0.6526
 3547TIP3   OH232055   5.166   6.055  11.195 -0.7590 -0.2438 -0.2238
 3547TIP3    H132056   5.203   6.113  11.128 -0.6577 -0.8186 -0.6791
 3547TIP3    H232057   5.203   6.086  11.277  1.1522 -1.0892 -0.7047
 3548TIP3   OH232058   3.199   2.700   6.127  0.7984 -0.5556  0.7670
 3548TIP3    H132059   3.280   2.737   6.090  0.2915  0.4679  0.6494
 3548TIP3    H232060   3.137   2.773   6.127 -0.7084 -1.7747 -0.8129
 3549TIP3   OH232061   6.498   4.330   0.874 -0.3139  0.4827 -0.0609
 3549TIP3    H132062   6.553   4.326   0.953 -0.0514  1.2356 -0.1966
 3549TIP3    H232063   6.416   4.288   0.900  0.5880 -1.3972 -0.0995
 3550TIP3   OH232064   0.618   5.460   0.577 -0.2621  0.4999  0.7991
 3550TIP3    H132065   0.555   5.498   0.516 -0.3817  1.2645  1.3919
 3550TIP3    H232066   0.650   5.381   0.532 -0.7573  0.7479 -0.0061
 3551TIP3   OH232067   5.104   3.428  13.079  0.1472  0.0101  0.0345
 3551TIP3    H132068   5.077   3.515  13.051  4.3632  1.2503 -0.8364
 3551TIP3    H232069   5.132   3.385  12.998  1.2986 -0.8440  0.8535
 3552TIP3   OH232070   3.029   0.649   1.997 -0.0522  0.2454  0.3108
 3552TIP3    H132071   2.988   0.706   2.062  0.1684  1.5906 -0.6921
 3552TIP3    H232072   3.046   0.567   2.044  1.2053  1.5730  2.3145
 3553TIP3   OH232073   5.701   6.137   4.765 -0.3510 -0.1768  0.2330
 3553TIP3    H132074   5.783   6.091   4.747  0.3042  1.5298 -1.5177
 3553TIP3    H232075   5.712   6.170   4.854  1.2625  0.7080 -0.2466
 3554TIP3   OH232076   1.877   0.719   1.988 -0.2389 -0.2600 -0.2183
 3554TIP3    H132077   1.928   0.667   2.049 -1.0121 -1.5034 -0.6064
 3554TIP3    H232078   1.821   0.656   1.942 -1.3087  0.9141 -0.5993
 3555TIP3   OH232079   0.216   1.738  16.843  0.2435  0.4596 -0.0106
 3555TIP3    H132080   0.298   1.727  16.795 -0.1563  3.6825 -1.7259
 3555TIP3    H232081   0.240   1.792  16.918  0.1302 -1.1058  1.2047
 3556TIP3   OH232082   2.273   5.993  13.853 -0.0642  0.1537 -0.0194
 3556TIP3    H132083   2.192   5.946  13.871 -1.0233  1.1541 -1.4593
 3556TIP3    H232084   2.342   5.929  13.866 -1.1824 -1.0839 -0.0086
 3557TIP3   OH232085   2.006   6.072   2.655  0.5010  0.1534 -0.0107
 3557TIP3    H132086   1.967   6.005   2.599  0.6692 -0.0138  0.0716
 3557TIP3    H232087   1.944   6.082   2.727 -0.2184  1.1036 -0.7478
 3558TIP3   OH232088   5.344   2.524  11.394 -0.2033  0.5317 -0.0376
 3558TIP3    H132089   5.259   2.526  11.438 -0.6727  0.3122 -0.9049
 3558TIP3    H232090   5.407   2.511  11.464 -0.8005  1.6213  0.7362
 3559TIP3   OH232091   4.734   4.356  14.855 -0.0750 -0.2649  0.3532
 3559TIP3    H132092   4.681   4.288  14.895 -0.5079  0.1357  0.4711
 3559TIP3    H232093   4.695   4.438  14.885  0.9779  0.0459  0.9248
 3560TIP3   OH232094   1.222   0.909  12.420 -0.5641 -0.0421  0.1790
 3560TIP3    H132095   1.306   0.866  12.404 -1.0799 -1.2482  0.5871
 3560TIP3    H232096   1.162   0.837  12.438 -1.3356  0.8840  1.4351
 3561TIP3   OH232097   1.064   6.231  15.374 -1.0767  0.8572 -0.8478
 3561TIP3    H132098   1.072   6.140  15.343 -0.2066 -0.6469  3.1251
 3561TIP3    H232099   1.136   6.277  15.331  1.4767 -1.5891  0.4323
 3562TIP3   OH232100   4.794   1.527  17.187  0.1883  0.0606  0.1066
 3562TIP3    H132101   4.889   1.523  17.181  0.2479  0.5239  0.7077
 3562TIP3    H232102   4.769   1.607  17.141  0.1441  0.2894  0.5243
 3563TIP3   OH232103   5.653   1.835  13.983 -0.2645  0.0617  0.3533
 3563TIP3    H132104   5.567   1.874  13.964 -0.0479  0.5264  0.3204
 3563TIP3    H232105   5.653   1.753  13.933 -0.5321  0.2517  0.0331
 3564TIP3   OH232106   1.203   4.048   0.773  0.1183  0.1918  0.0724
 3564TIP3    H132107   1.242   4.109   0.836  1.2154 -2.3928  2.0575
 3564TIP3    H232108   1.111   4.073   0.770  0.3758  1.4548  1.3916
 3565TIP3   OH232109   0.035   6.040  15.212  0.1845  0.4728  0.1219
 3565TIP3    H132110  -0.023   6.109  15.245 -0.6582 -0.1112 -0.1279
 3565TIP3    H232111   0.050   5.983  15.288 -1.2469 -0.5178 -0.2896
 3566TIP3   OH232112   4.457   0.559   1.769  0.8073  0.0512 -0.2409
 3566TIP3    H132113   4.530   0.506   1.800  0.1890 -0.1291  0.9816
 3566TIP3    H232114   4.473   0.646   1.806 -1.0610 -0.6835  2.6073
 3567TIP3   OH232115   0.537   1.056   4.477  0.2588  0.2064 -0.4902
 3567TIP3    H132116   0.600   1.074   4.547  0.3336  1.2897 -0.8141
 3567TIP3    H232117   0.521   1.142   4.437 -1.2945 -0.0744 -0.5207
 3568TIP3   OH232118   5.972   1.949  11.155  0.0717 -0.3460 -0.5976
 3568TIP3    H132119   5.935   2.018  11.211 -1.9899 -2.3395  0.6218
 3568TIP3    H232120   6.063   1.940  11.186 -0.5844 -0.3760  1.4802
 3569TIP3   OH232121   4.831   4.123   3.592  0.1587  0.3372 -0.0466
 3569TIP3    H132122   4.856   4.056   3.655 -0.2708 -1.1850 -1.4121
 3569TIP3    H232123   4.736   4.127   3.597  0.0641 -0.2873 -1.0308
 3570TIP3   OH232124   3.908   4.380  16.541 -0.1241  0.0247  0.2889
 3570TIP3    H132125   3.846   4.434  16.590 -1.0316  0.7355 -1.5355
 3570TIP3    H232126   3.872   4.378  16.452  1.9153 -0.4464 -0.5739
 3571TIP3   OH232127   6.284   6.531   2.535  0.1635 -1.3098 -0.4508
 3571TIP3    H132128   6.250   6.559   2.450  1.4152  0.8579 -0.3345
 3571TIP3    H232129   6.256   6.440   2.545 -2.0763 -0.8554 -2.0715
 3572TIP3   OH232130   3.872   6.036   0.610 -0.2639 -0.3583  0.4375
 3572TIP3    H132131   3.922   6.093   0.668  0.7282  0.0863 -0.8128
 3572TIP3    H232132   3.937   5.996   0.553 -0.9911 -2.3244  0.8905
 3573TIP3   OH232133   5.749   1.853   4.630  0.5426  0.3751  0.6196
 3573TIP3    H132134   5.799   1.841   4.710  0.1643  2.3642  1.2008
 3573TIP3    H232135   5.658   1.857   4.659  0.2681 -0.3674 -0.1003
 3574TIP3   OH232136   3.989   0.300  16.486  0.1205 -0.1440 -0.2175
 3574TIP3    H132137   3.897   0.273  16.490 -0.0487  0.0415 -2.0353
 3574TIP3    H232138   3.988   0.393  16.510  0.4490 -1.0082  3.9882
 3575TIP3   OH232139   4.142   5.077  13.253 -0.3425  0.2811  0.3362
 3575TIP3    H132140   4.211   5.106  13.313 -0.4990  1.5367 -0.0560
 3575TIP3    H232141   4.061   5.094  13.301 -0.4519  0.8678 -0.0555
 3576TIP3   OH232142   2.219   2.896   3.752  0.0300  0.3465  0.0831
 3576TIP3    H132143   2.302   2.848   3.757 -0.5864 -0.8782 -0.7777
 3576TIP3    H232144   2.204   2.928   3.841  0.5700 -0.9264  0.6571
 3577TIP3   OH232145   5.664   1.195  14.443 -0.8167 -0.4778 -0.5454
 3577TIP3    H132146   5.686   1.282  14.474  0.5063 -0.8060 -0.4694
 3577TIP3    H232147   5.736   1.173  14.383 -1.4101 -1.3020 -0.9774
 3578TIP3   OH232148   5.977   5.448   3.849 -0.0751 -0.0076  0.4444
 3578TIP3    H132149   6.025   5.365   3.845  0.4179  0.2325  1.1435
 3578TIP3    H232150   5.922   5.448   3.771 -0.1492 -1.0311  0.4939
 3579TIP3   OH232151   6.429   1.318  11.120  0.4221  0.2458 -0.2445
 3579TIP3    H132152   6.401   1.410  11.124  0.3681  0.1875  1.0633
 3579TIP3    H232153   6.350   1.268  11.140  0.9315  0.0033  1.2598
 3580TIP3   OH232154   0.545   3.636   3.992 -0.1853 -0.3063  0.1771
 3580TIP3    H132155   0.463   3.684   4.004 -1.9109 -3.1461  0.5731
 3580TIP3    H232156   0.532   3.586   3.911  1.7206  0.1751 -0.4854
 3581TIP3   OH232157   2.724   5.908   2.539  0.4752  0.1157  0.2020
 3581TIP3    H132158   2.696   5.992   2.574 -1.3360  0.2329 -1.3197
 3581TIP3    H232159   2.647   5.852   2.548 -0.3063  0.2545 -3.6370
 3582TIP3   OH232160   3.403   2.961   6.092 -0.2333 -0.1707  0.6774
 3582TIP3    H132161   3.408   3.008   6.176  1.9818  0.2310  0.3702
 3582TIP3    H232162   3.321   2.991   6.053  0.9671  3.4317  0.5693
 3583TIP3   OH232163   6.516   6.006  15.677 -0.0019 -0.1495 -0.7263
 3583TIP3    H132164   6.507   5.951  15.755  1.1707 -1.1099 -1.2493
 3583TIP3    H232165   6.494   5.949  15.604 -1.2017  0.7802 -1.1314
 3584TIP3   OH232166   1.419   4.734  13.799 -0.1837  0.1985 -0.2069
 3584TIP3    H132167   1.438   4.645  13.771 -0.6130 -0.3370  1.1410
 3584TIP3    H232168   1.324   4.739  13.802 -0.1610  0.2722  0.9670
 3585TIP3   OH232169   2.733   4.313  15.121 -0.2716 -0.1906  0.0713
 3585TIP3    H132170   2.805   4.297  15.182  0.6000 -0.6817 -1.0520
 3585TIP3    H232171   2.685   4.230  15.117  0.7635 -0.7726 -1.2640
 3586TIP3   OH232172   0.281   3.564  12.885 -0.6097  0.0706 -0.3634
 3586TIP3    H132173   0.320   3.623  12.821 -0.0849  1.6828  1.3569
 3586TIP3    H232174   0.355   3.523  12.929 -0.9661 -1.2148 -0.8941
 3587TIP3   OH232175   2.906   1.349   4.922 -0.6943  0.2343  0.2842
 3587TIP3    H132176   2.966   1.362   4.996 -0.7119 -1.2977  0.6021
 3587TIP3    H232177   2.946   1.397   4.850  1.5416 -1.6068  0.1949
 3588TIP3   OH232178   5.476   4.716   3.683  0.1262 -0.2827  0.0329
 3588TIP3    H132179   5.459   4.810   3.683 -0.2250 -0.3419  0.8192
 3588TIP3    H232180   5.389   4.676   3.683  0.1992 -0.5963  2.6596
 3589TIP3   OH232181   0.645   4.847  16.442 -0.3002 -0.5461  0.3245
 3589TIP3    H132182   0.678   4.792  16.512 -0.8668 -1.9739 -0.4827
 3589TIP3    H232183   0.694   4.929  16.450 -1.2048 -0.1846  3.0991
 3590TIP3   OH232184   6.179   3.725   4.939 -0.1361  0.6766  0.3561
 3590TIP3    H132185   6.135   3.706   4.856 -1.1241  3.3949  0.1713
 3590TIP3    H232186   6.251   3.662   4.942 -2.1964 -1.9705 -0.7626
 3591TIP3   OH232187   4.647   5.337  12.712  0.6660 -0.2426 -0.0325
 3591TIP3    H132188   4.729   5.290  12.727 -0.2148 -1.2302  2.1039
 3591TIP3    H232189   4.673   5.430  12.712  2.1423 -0.5524 -2.3853
 3592TIP3   OH232190   0.159   4.739   0.193 -0.2118 -0.3679  0.3609
 3592TIP3    H132191   0.084   4.725   0.250  1.4077 -0.2662  2.6810
 3592TIP3    H232192   0.233   4.702   0.242  1.4793  0.8686 -1.1122
 3593TIP3   OH232193   6.391   1.973  16.576 -0.0480  0.2761 -0.2134
 3593TIP3    H132194   6.307   1.930  16.591 -0.3394  0.2614 -1.7121
 3593TIP3    H232195   6.401   1.974  16.481  1.2807  0.9956 -0.0955
 3594TIP3   OH232196   2.334   1.672  15.561  0.3432  0.0565 -0.3463
 3594TIP3    H132197   2.412   1.699  15.608 -0.1275  1.7708 -0.4658
 3594TIP3    H232198   2.329   1.733  15.487  1.3498 -2.8282 -3.0154
 3595TIP3   OH232199   5.179   4.536  16.622  0.2013 -0.1686 -0.2062
 3595TIP3    H132200   5.233   4.559  16.698 -0.3512 -2.0129  0.8104
 3595TIP3    H232201   5.100   4.588  16.633  0.4305  0.1258  0.0877
 3596TIP3   OH232202   0.738   3.802   3.554  0.3698 -0.5214 -0.0266
 3596TIP3    H132203   0.827   3.804   3.519  0.0513  0.2286 -0.8383
 3596TIP3    H232204   0.684   3.769   3.482 -0.1773  0.1705  0.0555
 3597TIP3   OH232205   0.916   0.755   1.048 -0.0161  0.4828  0.3327
 3597TIP3    H132206   1.007   0.748   1.017 -0.3123 -0.7301 -0.3092
 3597TIP3    H232207   0.893   0.666   1.074 -0.6582  0.9934  1.5776
 3598TIP3   OH232208   0.584   0.918   6.400  0.5064 -0.6013 -0.6796
 3598TIP3    H132209   0.653   0.854   6.415  1.3164  0.7279  1.5858
 3598TIP3    H232210   0.512   0.891   6.457  0.4108 -0.1372 -0.5716
 3599TIP3   OH232211   4.526   4.931   1.219 -0.1641 -0.6832 -0.4089
 3599TIP3    H132212   4.467   5.001   1.187  0.1604 -0.1832  0.0680
 3599TIP3    H232213   4.467   4.867   1.259 -0.5949 -1.3668 -2.0378
 3600TIP3   OH232214   6.122   5.761  14.935  0.2830  0.4159  0.6304
 3600TIP3    H132215   6.121   5.709  14.854 -1.0867  2.0871 -0.4885
 3600TIP3    H232216   6.190   5.827  14.920 -0.9240  1.5937  0.2369
 3601TIP3   OH232217   4.973   1.855   1.813 -0.3517  0.4917  0.4437
 3601TIP3    H132218   4.892   1.902   1.791 -0.2715  0.2428 -0.4579
 3601TIP3    H232219   5.042   1.920   1.798 -0.2849  0.2755 -0.2101
 3602TIP3   OH232220   3.939   4.305   4.850 -0.0749 -0.0726  0.5694
 3602TIP3    H132221   4.001   4.367   4.889 -0.6450  1.4024 -0.7574
 3602TIP3    H232222   3.961   4.304   4.757 -0.1724 -1.7957  0.5384
 3603TIP3   OH232223   6.312   3.285   2.319 -0.0472  0.0967  0.6830
 3603TIP3    H132224   6.260   3.320   2.392  0.8751  0.6481  1.1016
 3603TIP3    H232225   6.288   3.339   2.244 -0.9247 -0.4061  0.5840
 3604TIP3   OH232226   6.280   0.195  17.014 -0.0801  0.1410  0.0303
 3604TIP3    H132227   6.234   0.236  17.087  0.6761  0.2501  0.4621
 3604TIP3    H232228   6.325   0.120  17.053 -0.1560 -0.1576 -0.4456
 3605TIP3   OH232229   0.960   6.579   6.733 -0.0828 -0.0857  0.6254
 3605TIP3    H132230   1.046   6.579   6.692 -0.0793  1.6962  0.5219
 3605TIP3    H232231   0.944   6.488   6.757  0.7361 -0.8885 -1.5887
 3606TIP3   OH232232   5.563   4.908   4.050 -0.0719  0.2074  0.2785
 3606TIP3    H132233   5.585   4.841   4.115  0.6580  0.4112  0.2439
 3606TIP3    H232234   5.471   4.891   4.028  0.7196 -2.3359 -1.5216
 3607TIP3   OH232235   5.223   2.178   6.157 -0.2860  0.1549 -0.0094
 3607TIP3    H132236   5.134   2.184   6.122 -0.6323 -0.2111  0.7858
 3607TIP3    H232237   5.213   2.193   6.251  0.6430  1.2330 -0.0703
 3608TIP3   OH232238   5.394   5.904  16.398 -0.4546 -0.3239  0.6804
 3608TIP3    H132239   5.414   5.947  16.314  2.0537  1.0259  1.8611
 3608TIP3    H232240   5.371   5.814  16.374 -0.2480  0.1336 -1.4658
 3609TIP3   OH232241   3.626   1.822   2.297  0.0944  0.6113  0.0833
 3609TIP3    H132242   3.707   1.846   2.342  0.2417 -1.3589  0.9450
 3609TIP3    H232243   3.557   1.860   2.351  0.3830  2.0616 -0.5051
 3610TIP3   OH232244   1.265   1.297   1.171  0.0179 -0.1281  0.9325
 3610TIP3    H132245   1.222   1.262   1.093 -0.4690 -0.3740  1.3104
 3610TIP3    H232246   1.196   1.343   1.218 -0.6455 -2.9728  3.0552
 3611TIP3   OH232247   5.707   0.185   5.239 -0.1547  0.2350  0.7145
 3611TIP3    H132248   5.648   0.160   5.168 -0.6534 -0.1688  1.2511
 3611TIP3    H232249   5.677   0.133   5.314  0.9417 -0.0402  0.9836
 3612TIP3   OH232250   6.563   1.989   1.535  0.4575  0.1280  0.3339
 3612TIP3    H132251   6.598   2.048   1.468  3.8305 -1.0204  0.9230
 3612TIP3    H232252   6.546   1.907   1.488 -1.5716  0.6536  0.0684
 3613TIP3   OH232253   3.196   3.712   4.302  0.2448 -0.2043  0.2587
 3613TIP3    H132254   3.286   3.723   4.333 -0.3659  0.9330  1.7299
 3613TIP3    H232255   3.201   3.728   4.207  1.5640 -0.0828  0.3308
 3614TIP3   OH232256   0.505   0.448  16.826  0.0734  0.1535  0.7723
 3614TIP3    H132257   0.536   0.517  16.884  0.2195  0.3478  0.4647
 3614TIP3    H232258   0.579   0.430  16.768  0.0288 -0.2482  0.8434
 3615TIP3   OH232259   0.128   6.092  14.770  0.0345  0.7173 -0.2003
 3615TIP3    H132260   0.081   6.029  14.715  0.1069  1.5409 -1.2171
 3615TIP3    H232261   0.203   6.043  14.804  0.1388  0.2732 -1.0496
 3616TIP3   OH232262   3.764   2.739  14.086  0.3291 -0.1580  0.0780
 3616TIP3    H132263   3.669   2.732  14.095  0.5527 -1.8198  1.8474
 3616TIP3    H232264   3.796   2.747  14.176  1.8853 -0.2269 -0.4441
 3617TIP3   OH232265   0.090   1.043   4.088 -0.2565  0.5401 -0.2033
 3617TIP3    H132266   0.061   1.131   4.114  0.4216  0.9650 -0.8556
 3617TIP3    H232267   0.009   0.994   4.076 -0.6988 -0.1186  3.9721
 3618TIP3   OH232268   3.826   5.374   0.206 -0.6763  0.2689  0.5061
 3618TIP3    H132269   3.830   5.328   0.123  0.4875 -0.1242  0.7538
 3618TIP3    H232270   3.744   5.346   0.246 -0.3205 -1.0434  0.3404
 3619TIP3   OH232271   3.683   2.087  14.177  0.6133  0.0978 -0.3544
 3619TIP3    H132272   3.695   1.999  14.211  0.2748  0.7654  1.6131
 3619TIP3    H232273   3.769   2.129  14.185  0.5747  0.2066 -0.4943
 3620TIP3   OH232274   3.971   0.670  14.521 -0.2192 -0.8691 -0.0727
 3620TIP3    H132275   4.019   0.635  14.596 -1.3630 -1.9506  0.1790
 3620TIP3    H232276   3.917   0.740  14.559  0.2061 -0.4933 -0.1431
 3621TIP3   OH232277   2.681   2.710   3.953 -0.0799 -0.1209 -0.1984
 3621TIP3    H132278   2.775   2.722   3.938 -0.1533  0.6538 -0.0860
 3621TIP3    H232279   2.673   2.624   3.993  0.5492 -0.3431 -0.5443
 3622TIP3   OH232280   5.444   0.625   3.472  0.3264  0.1119  0.1596
 3622TIP3    H132281   5.405   0.647   3.387 -1.2004  0.6837  0.9798
 3622TIP3    H232282   5.374   0.583   3.521  0.7890  0.9687  1.6111
 3623TIP3   OH232283   6.218   2.851  12.088  0.7344 -0.3028  0.5565
 3623TIP3    H132284   6.156   2.896  12.030  0.9855 -0.5986  0.0515
 3623TIP3    H232285   6.206   2.894  12.173 -0.3201 -0.5015  0.5284
 3624TIP3   OH232286   4.413   4.924   2.269 -0.1884  0.1163  0.7026
 3624TIP3    H132287   4.467   4.848   2.290  0.2285 -0.1905 -1.2359
 3624TIP3    H232288   4.465   4.999   2.296  0.6538 -0.2227  0.0561
 3625TIP3   OH232289   1.434   3.454  17.177 -0.1904  0.7524  0.3320
 3625TIP3    H132290   1.348   3.459  17.136  0.7390 -1.6087 -2.3137
 3625TIP3    H232291   1.466   3.544  17.177 -0.9775  1.1712 -2.8630
 3626TIP3   OH232292   2.693   3.295   1.667  0.2303 -0.2766 -0.1212
 3626TIP3    H132293   2.625   3.231   1.646 -1.8746  1.6785  0.4254
 3626TIP3    H232294   2.712   3.338   1.583  1.6442 -1.5359 -0.4886
 3627TIP3   OH232295   4.158   4.189  11.801 -0.4278  0.1016 -0.0006
 3627TIP3    H132296   4.200   4.126  11.741  1.3119  0.4964  0.7325
 3627TIP3    H232297   4.086   4.225  11.751 -0.6746 -1.5289 -0.9049
 3628TIP3   OH232298   1.562   1.158   5.630 -0.9918  0.5903  0.5649
 3628TIP3    H132299   1.494   1.098   5.661  0.5336 -1.9932 -0.7346
 3628TIP3    H232300   1.538   1.176   5.539  0.5866 -1.3474 -0.3079
 3629TIP3   OH232301   2.400   2.239  13.891 -0.0454 -0.3570  0.0640
 3629TIP3    H132302   2.461   2.221  13.820 -0.8409 -0.7814 -0.5185
 3629TIP3    H232303   2.455   2.244  13.969  0.8834  0.4797 -0.6165
 3630TIP3   OH232304   5.858   3.418  15.333  0.4115  0.3711 -0.1274
 3630TIP3    H132305   5.878   3.326  15.320 -1.2909 -0.2748  1.3682
 3630TIP3    H232306   5.765   3.426  15.310 -0.4011  0.9353  2.9406
 3631TIP3   OH232307   4.611   5.719   2.297  0.2288  0.0666 -0.1904
 3631TIP3    H132308   4.626   5.789   2.234  2.0582  0.2377  0.3793
 3631TIP3    H232309   4.697   5.677   2.308 -0.1685 -0.3621  1.6877
 3632TIP3   OH232310   2.613   0.535   1.529 -0.6228 -0.2289  0.3662
 3632TIP3    H132311   2.542   0.506   1.473 -2.2631 -1.4408  2.9077
 3632TIP3    H232312   2.651   0.455   1.564  0.5004  0.4709  0.8265
 3633TIP3   OH232313   6.280   5.092   5.585  0.0433  0.4884 -0.2125
 3633TIP3    H132314   6.185   5.089   5.573  0.1091  0.3218 -0.7063
 3633TIP3    H232315   6.315   5.037   5.515  0.4924  0.3144  0.1460
 3634TIP3   OH232316   0.535   3.776  11.492 -0.4347 -0.4788 -0.4212
 3634TIP3    H132317   0.577   3.783  11.578  0.2864 -1.1830 -0.6980
 3634TIP3    H232318   0.595   3.822  11.432 -1.0691  0.2476 -0.5151
 3635TIP3   OH232319   0.983   3.343  16.622 -0.4972 -0.1168 -0.3811
 3635TIP3    H132320   0.932   3.302  16.692 -0.8474  1.8122  0.5635
 3635TIP3    H232321   0.917   3.387  16.568  0.0417  2.8111  1.1257
 3636TIP3   OH232322   0.953   2.052  13.095 -0.1584 -0.2088  0.0662
 3636TIP3    H132323   0.906   2.131  13.070 -0.0980 -0.6339 -1.5068
 3636TIP3    H232324   0.890   1.981  13.083  0.5231 -0.6614 -1.0516
 3637TIP3   OH232325   6.508   5.090  16.647  0.5959 -0.1352 -0.0959
 3637TIP3    H132326   6.572   5.024  16.621  0.1908 -1.1074  1.2691
 3637TIP3    H232327   6.519   5.098  16.742 -0.9676 -0.0024  0.0990
 3638TIP3   OH232328   3.630   6.352   4.583  0.0699 -0.5634 -0.6970
 3638TIP3    H132329   3.717   6.331   4.550 -0.0520  0.1916 -1.5354
 3638TIP3    H232330   3.634   6.445   4.606  0.1509 -1.0496  1.4864
 3639TIP3   OH232331   6.395   0.916  10.475  0.0268  0.0798 -0.1724
 3639TIP3    H132332   6.474   0.875  10.510 -0.2104 -1.2986 -1.1500
 3639TIP3    H232333   6.339   0.843  10.449  0.1127  0.9348 -3.2151
 3640TIP3   OH232334   4.552   2.200   2.393 -0.1347  0.7124  0.0254
 3640TIP3    H132335   4.641   2.195   2.429 -0.1216 -0.2710 -0.1110
 3640TIP3    H232336   4.565   2.202   2.298 -0.2467  1.0536  0.0168
 3641TIP3   OH232337   1.281   1.959  10.687 -0.1305 -0.4377 -0.3911
 3641TIP3    H132338   1.365   1.923  10.661 -0.0355  0.6001 -1.6273
 3641TIP3    H232339   1.298   2.052  10.701 -1.2540  0.0084 -1.7205
 3642TIP3   OH232340   2.990   2.582   1.361 -0.0115  0.6016 -0.3056
 3642TIP3    H132341   2.953   2.577   1.273  1.3292 -1.7551 -0.8346
 3642TIP3    H232342   3.082   2.605   1.347 -0.0493  1.3402  0.5777
 3643TIP3   OH232343   2.455   0.772  15.440  0.1631 -0.3124 -0.4591
 3643TIP3    H132344   2.550   0.784  15.449 -0.3773  3.3622  3.4172
 3643TIP3    H232345   2.421   0.859  15.421 -2.5621 -1.2052 -0.1244
 3644TIP3   OH232346   1.517   4.203  15.247 -0.6206  0.2941 -0.2710
 3644TIP3    H132347   1.484   4.211  15.336  0.2743  0.5043  0.0490
 3644TIP3    H232348   1.596   4.150  15.256 -0.2480  0.7453 -0.8772
 3645TIP3   OH232349   6.127   3.376   3.132 -0.4752 -0.2020  0.5256
 3645TIP3    H132350   6.085   3.461   3.144 -0.2206 -0.0774  0.5543
 3645TIP3    H232351   6.190   3.370   3.204  2.2390  1.2679 -1.5361
 3646TIP3   OH232352   0.685   4.418   0.722  0.0439 -0.1440 -0.2680
 3646TIP3    H132353   0.718   4.364   0.793  1.5810  1.0454 -0.0403
 3646TIP3    H232354   0.671   4.357   0.650  1.7750 -0.8786 -0.0287
 3647TIP3   OH232355   1.466   1.868  13.300 -0.4767  0.3364 -0.1481
 3647TIP3    H132356   1.440   1.891  13.211  1.0104  1.1592 -0.4080
 3647TIP3    H232357   1.450   1.946  13.351 -0.1373  0.2931  0.0314
 3648TIP3   OH232358   0.376   6.067   0.548 -0.1715 -0.1508 -0.4294
 3648TIP3    H132359   0.450   6.101   0.599  0.2384  1.1133 -1.7855
 3648TIP3    H232360   0.307   6.133   0.558  0.4775  0.9805 -2.7245
 3649TIP3   OH232361   3.187   0.150   2.724  0.3810 -0.0237  0.6014
 3649TIP3    H132362   3.112   0.102   2.760 -1.0605  0.2165 -1.9018
 3649TIP3    H232363   3.162   0.242   2.730 -0.3850 -0.0122 -1.8503
 3650TIP3   OH232364   3.009   5.581   5.347  0.1546  0.3210 -0.2983
 3650TIP3    H132365   2.926   5.605   5.389  0.9405  1.6741  0.5347
 3650TIP3    H232366   3.074   5.588   5.416  1.0078 -0.6391 -0.9660
 3651TIP3   OH232367   2.814   2.319   5.817 -0.2116  0.3306  0.1041
 3651TIP3    H132368   2.787   2.336   5.726  0.3170 -1.2922 -0.3941
 3651TIP3    H232369   2.749   2.258   5.850  2.1743 -3.0627 -0.8805
 3652TIP3   OH232370   4.816   1.145  11.465 -0.0969 -0.0866  0.3210
 3652TIP3    H132371   4.810   1.151  11.560  2.0097  0.2845  0.4817
 3652TIP3    H232372   4.908   1.128  11.448 -0.5621 -0.9068 -1.6428
 3653TIP3   OH232373   1.841   4.150   4.653  0.6955  0.2657 -0.5181
 3653TIP3    H132374   1.816   4.132   4.562  0.0320 -1.8686  0.0427
 3653TIP3    H232375   1.758   4.167   4.697  0.8522 -0.4396  0.0482
 3654TIP3   OH232376   3.397   2.539  15.557  0.9206 -0.1083 -0.1119
 3654TIP3    H132377   3.366   2.512  15.470  0.0256 -0.1572  0.2107
 3654TIP3    H232378   3.414   2.632  15.549 -0.1399  0.0981 -0.0793
 3655TIP3   OH232379   4.588   6.595   1.716  0.2469 -0.5954  0.1421
 3655TIP3    H132380   4.599   6.689   1.706 -0.1530 -0.6117 -0.4991
 3655TIP3    H232381   4.519   6.572   1.654  1.9162 -1.6874 -1.3767
 3656TIP3   OH232382   0.844   1.875  11.617  0.3509  0.1614  0.6268
 3656TIP3    H132383   0.898   1.811  11.570  1.1035  1.1520  0.1051
 3656TIP3    H232384   0.773   1.895  11.556 -0.6481 -1.1328  1.3087
 3657TIP3   OH232385   1.374   3.706  14.445 -0.1474 -0.2673  0.3840
 3657TIP3    H132386   1.435   3.780  14.449 -1.3286  0.6992  1.3143
 3657TIP3    H232387   1.295   3.738  14.487 -1.6405 -1.1821 -1.5553
 3658TIP3   OH232388   0.917   6.521   4.371 -0.0811  0.1562 -0.0581
 3658TIP3    H132389   0.891   6.513   4.463  0.1204  0.4206  0.0198
 3658TIP3    H232390   1.010   6.541   4.374 -0.2846  1.1917 -0.2906
 3659TIP3   OH232391   1.047   4.162   0.422 -0.3541  0.9663  0.1405
 3659TIP3    H132392   1.081   4.086   0.375 -0.8635 -0.6469  2.2524
 3659TIP3    H232393   0.957   4.172   0.389 -0.0052  1.2017 -0.7581
 3660TIP3   OH232394   3.231   5.309  13.141  0.4452  0.2202 -0.1675
 3660TIP3    H132395   3.186   5.227  13.122 -0.2935  0.6350 -0.2456
 3660TIP3    H232396   3.280   5.329  13.062  0.6775 -0.1726 -0.1265
 3661TIP3   OH232397   1.145   1.646   1.553  0.3058  0.2068  0.1709
 3661TIP3    H132398   1.234   1.626   1.525 -0.0790  0.0869 -1.0359
 3661TIP3    H232399   1.140   1.742   1.549  1.1553  0.4211  2.7952
 3662TIP3   OH232400   2.684   6.589   5.108 -0.3897 -0.5357  0.0530
 3662TIP3    H132401   2.747   6.660   5.097  0.8894 -1.5142  0.7415
 3662TIP3    H232402   2.701   6.531   5.033 -2.7349  0.7642 -1.6055
 3663TIP3   OH232403   4.935   0.546   3.661  0.3827 -0.2761 -0.0774
 3663TIP3    H132404   4.959   0.480   3.596 -0.4003  0.4020 -1.0950
 3663TIP3    H232405   4.992   0.620   3.642  0.9284 -0.4744  0.7497
 3664TIP3   OH232406   6.481   2.505  16.619  0.0194  0.5150  0.4703
 3664TIP3    H132407   6.546   2.560  16.575 -1.1700  1.2295 -0.4394
 3664TIP3    H232408   6.397   2.547  16.599 -0.6775  0.0002  2.1885
 3665TIP3   OH232409   1.395   1.424   1.709  0.6633 -0.6132  0.0663
 3665TIP3    H132410   1.473   1.458   1.753  1.0958 -0.5091 -0.7565
 3665TIP3    H232411   1.393   1.331   1.733 -0.1315 -0.1866  1.7546
 3666TIP3   OH232412   0.214   1.428   4.143 -0.1123 -0.0094 -0.5618
 3666TIP3    H132413   0.253   1.448   4.058  0.6494 -0.1438 -0.2548
 3666TIP3    H232414   0.128   1.392   4.122  0.0381  0.0197 -1.2722
 3667TIP3   OH232415   2.273   3.369   5.495 -0.0090 -0.3613 -0.1679
 3667TIP3    H132416   2.337   3.309   5.533 -0.5804 -2.9324 -2.9174
 3667TIP3    H232417   2.327   3.439   5.457  0.8010 -0.0441  1.4643
 3668TIP3   OH232418   2.732   0.764  17.082 -0.0593  0.3503  0.5815
 3668TIP3    H132419   2.738   0.676  17.043  0.1644  1.4715 -2.1677
 3668TIP3    H232420   2.639   0.786  17.075 -0.2777  0.0145  2.1333
 3669TIP3   OH232421   5.531   6.270   0.595  0.6206  0.2793  0.2218
 3669TIP3    H132422   5.548   6.320   0.675  1.2883 -0.2947  0.4454
 3669TIP3    H232423   5.537   6.178   0.621  2.9658  0.0387 -0.8644
 3670TIP3   OH232424   6.730   4.974   0.941  0.8839 -0.1169 -0.4659
 3670TIP3    H132425   6.811   4.931   0.913  1.2871  0.2123  0.1415
 3670TIP3    H232426   6.667   4.956   0.872  1.6179  0.0311 -1.1886
 3671TIP3   OH232427   1.790   4.510   2.813  0.4975  0.0167  0.3655
 3671TIP3    H132428   1.700   4.482   2.792  0.1123  2.1975 -1.3554
 3671TIP3    H232429   1.792   4.514   2.908 -1.9753  1.7877  0.4710
 3672TIP3   OH232430   3.665   4.316   5.337 -0.0530  0.4861  0.5694
 3672TIP3    H132431   3.637   4.226   5.356 -0.0866  0.6996  1.5720
 3672TIP3    H232432   3.656   4.362   5.420 -0.1106  1.4434  0.0417
 3673TIP3   OH232433   4.312   5.437   6.043 -0.2687  0.1398  0.2465
 3673TIP3    H132434   4.303   5.382   6.121 -0.3979  0.9814  0.8289
 3673TIP3    H232435   4.399   5.415   6.009 -0.7385 -1.2265 -0.1639
 3674TIP3   OH232436   2.303   6.287  12.328  0.3881 -0.3915 -0.1096
 3674TIP3    H132437   2.224   6.274  12.275  1.2954  1.6088 -2.0932
 3674TIP3    H232438   2.357   6.210  12.310 -0.3654 -0.9336 -0.0874
 3675TIP3   OH232439   0.863   3.923   0.927  0.3078 -0.1323  0.2443
 3675TIP3    H132440   0.862   3.944   0.833  0.1391 -0.5334  0.1566
 3675TIP3    H232441   0.774   3.894   0.946  0.7203 -1.4700  0.2061
 3676TIP3   OH232442   0.813   0.353  14.450  0.5395 -0.9327 -0.0155
 3676TIP3    H132443   0.745   0.360  14.516  1.0438 -0.8689  0.5042
 3676TIP3    H232444   0.775   0.298  14.382 -1.1826  1.4900 -1.1883
 3677TIP3   OH232445   0.943   2.928   1.551  0.5703 -0.4353 -0.4763
 3677TIP3    H132446   0.953   3.016   1.516 -2.4627 -0.3764 -1.5026
 3677TIP3    H232447   0.949   2.938   1.646  1.2514  0.6763 -0.6195
 3678TIP3   OH232448   0.937   0.681  15.804  0.2061 -0.3145  0.1058
 3678TIP3    H132449   0.933   0.697  15.898 -0.3166  0.1528  0.0041
 3678TIP3    H232450   0.881   0.748  15.765  0.3205 -0.5803 -0.5313
 3679TIP3   OH232451   4.654   3.816   0.884 -0.3291  0.1263  0.3770
 3679TIP3    H132452   4.669   3.886   0.822 -1.8911  0.5887  0.4731
 3679TIP3    H232453   4.600   3.753   0.837  0.0187 -0.4169  0.6872
 3680TIP3   OH232454   1.382   4.627  11.036 -0.2174 -0.2405 -0.8157
 3680TIP3    H132455   1.470   4.596  11.057  0.1158 -0.4083 -2.3361
 3680TIP3    H232456   1.367   4.597  10.946 -1.6887  0.0989 -0.7107
 3681TIP3   OH232457   1.400   6.385   1.606  0.0366  0.8525 -0.7750
 3681TIP3    H132458   1.384   6.309   1.550  1.9370  0.0517 -0.3382
 3681TIP3    H232459   1.418   6.347   1.692 -1.1234  1.9606  0.0001
 3682TIP3   OH232460   3.568   4.089   5.939 -0.6875 -0.6551  0.6873
 3682TIP3    H132461   3.515   4.164   5.914  1.1509  0.5194  0.1463
 3682TIP3    H232462   3.538   4.066   6.027 -0.5465  1.4296  1.3237
 3683TIP3   OH232463   3.079   5.086  16.255  0.0260  0.0895  0.1683
 3683TIP3    H132464   3.115   5.070  16.168  1.0467  0.3185  0.5300
 3683TIP3    H232465   3.100   5.177  16.274  2.3822 -0.6849  1.7682
 3684TIP3   OH232466   5.389   4.621  13.957  0.5905  0.2156 -0.0301
 3684TIP3    H132467   5.385   4.707  13.917  0.5152  0.0423 -0.4024
 3684TIP3    H232468   5.429   4.636  14.043  3.5575  0.2364 -1.2878
 3685TIP3   OH232469   0.238   3.850   3.677 -0.2239  0.1097 -0.3920
 3685TIP3    H132470   0.214   3.943   3.677 -0.6574  0.0015 -1.0155
 3685TIP3    H232471   0.333   3.849   3.687 -0.1090  0.6489 -1.4085
 3686TIP3   OH232472   5.908   2.091  12.183 -0.1868 -0.2126 -0.1200
 3686TIP3    H132473   5.982   2.140  12.218  0.8688 -1.7174 -0.1517
 3686TIP3    H232474   5.926   2.082  12.090  0.0651 -1.3632  0.0307
 3687TIP3   OH232475   5.417   3.117  10.332  0.0985  0.5888 -0.0264
 3687TIP3    H132476   5.356   3.044  10.330  1.6617 -0.7455 -0.5582
 3687TIP3    H232477   5.415   3.148  10.422  0.0482 -0.6652  0.4123
 3688TIP3   OH232478   5.675   1.156  11.457 -0.4578 -0.4012  0.0136
 3688TIP3    H132479   5.702   1.197  11.539  0.3937 -1.1050  0.0999
 3688TIP3    H232480   5.750   1.101  11.432 -0.5695  0.0585 -1.4105
 3689TIP3   OH232481   0.120   3.456   3.978  0.3655  0.0045 -0.1087
 3689TIP3    H132482   0.123   3.546   4.010  0.6261  0.0450 -0.2419
 3689TIP3    H232483   0.116   3.465   3.883  0.0192 -0.1198 -0.1071
 3690TIP3   OH232484   5.655   5.735   6.413  0.0927  0.0243  0.4163
 3690TIP3    H132485   5.587   5.761   6.351 -2.2863 -2.1269  1.9553
 3690TIP3    H232486   5.666   5.641   6.399  0.8413 -0.1567  1.9840
 3691TIP3   OH232487   0.904   4.952  16.230  0.0414 -0.6906 -0.0563
 3691TIP3    H132488   0.967   4.913  16.290  0.6696  0.0625 -0.2059
 3691TIP3    H232489   0.932   5.044  16.222 -2.5561  0.4012  1.8741
 3692TIP3   OH232490   1.391   4.470   4.562  0.0867  0.0004 -0.1809
 3692TIP3    H132491   1.472   4.447   4.516  1.2280  1.4669  1.0069
 3692TIP3    H232492   1.411   4.460   4.655 -0.4552  2.1661  0.2332
 3693TIP3   OH232493   4.756   4.064  10.451  0.5257 -0.6924 -0.0728
 3693TIP3    H132494   4.705   4.127  10.503  1.4733 -0.9664  1.2465
 3693TIP3    H232495   4.802   4.118  10.387  0.2150 -0.2094  0.0958
 3694TIP3   OH232496   0.127   5.000  13.806  1.0413 -0.1062  0.0882
 3694TIP3    H132497   0.065   4.927  13.806  0.9688 -0.0496 -0.4075
 3694TIP3    H232498   0.155   5.008  13.897  0.6177 -0.3840  0.2453
 3695TIP3   OH232499   4.792   3.157   1.103 -0.3226 -0.1570  0.4206
 3695TIP3    H132500   4.736   3.084   1.129 -0.9675  0.1007 -0.1965
 3695TIP3    H232501   4.878   3.136   1.138 -0.6341 -0.9352  0.7327
 3696TIP3   OH232502   6.424   5.469  12.897  0.0721 -0.1387 -0.2544
 3696TIP3    H132503   6.345   5.522  12.886 -0.1533 -0.2564  0.7017
 3696TIP3    H232504   6.456   5.492  12.985 -1.0996 -2.9293  1.0445
 3697TIP3   OH232505   5.419   5.416   2.633 -0.1205  0.9453  0.2960
 3697TIP3    H132506   5.494   5.447   2.682  0.2045  0.9233 -0.1758
 3697TIP3    H232507   5.457   5.360   2.564 -0.6758 -0.3572  1.0183
 3698TIP3   OH232508   0.114   1.431   1.246  0.1507 -0.0103  0.6818
 3698TIP3    H132509   0.158   1.362   1.296 -1.1796 -1.6570 -0.3131
 3698TIP3    H232510   0.136   1.412   1.155 -0.2080  0.9174  0.3916
 3699TIP3   OH232511   2.769   4.974   2.586  0.1964 -0.0726 -0.2417
 3699TIP3    H132512   2.758   5.010   2.498 -1.5201 -0.3969 -0.1923
 3699TIP3    H232513   2.714   5.029   2.642 -0.0454 -0.8888  0.3443
 3700TIP3   OH232514   4.052   2.996   3.354 -0.5262 -0.4328 -0.3310
 3700TIP3    H132515   3.989   3.039   3.413 -0.0801 -0.0200 -0.1555
 3700TIP3    H232516   4.072   2.913   3.397  1.7620  0.9227  1.4640
 3701TIP3   OH232517   6.124   5.271  10.905  0.2706  0.2806  0.2043
 3701TIP3    H132518   6.036   5.307  10.901 -1.2432 -3.1263 -0.4617
 3701TIP3    H232519   6.168   5.322  10.973 -1.7699  2.8324 -0.2442
 3702TIP3   OH232520   6.389   3.039   1.927 -0.9213 -0.0566 -0.4147
 3702TIP3    H132521   6.443   3.078   1.996 -2.5170 -0.7144  1.2750
 3702TIP3    H232522   6.398   2.945   1.940  0.7195 -0.3224 -2.7472
 3703TIP3   OH232523   6.277   0.955   5.721 -0.6102 -0.1553 -0.2765
 3703TIP3    H132524   6.361   0.972   5.677 -0.2148 -0.8191  0.1991
 3703TIP3    H232525   6.253   0.867   5.693 -0.7174 -0.2975  0.2652
 3704TIP3   OH232526   5.501   5.518  15.791 -0.0130  0.1286 -0.3399
 3704TIP3    H132527   5.439   5.589  15.807  0.4435  0.5203 -0.2715
 3704TIP3    H232528   5.454   5.438  15.815  0.1121  0.5660  1.4471
 3705TIP3   OH232529   4.636   4.807  11.595 -0.3323 -0.2787  0.2700
 3705TIP3    H132530   4.727   4.776  11.591  0.1510  1.0468  0.3261
 3705TIP3    H232531   4.601   4.791  11.508 -0.0887 -0.9097  0.2831
 3706TIP3   OH232532   2.342   1.515  12.743 -0.0590 -0.4994  0.1237
 3706TIP3    H132533   2.420   1.556  12.780 -0.2358 -0.3971  0.3856
 3706TIP3    H232534   2.329   1.559  12.658 -0.0498 -0.2536  0.2491
 3707TIP3   OH232535   0.337   0.041   4.301 -0.7459  0.5014  0.6539
 3707TIP3    H132536   0.371   0.074   4.217  0.5878 -0.8880  0.6138
 3707TIP3    H232537   0.371  -0.048   4.308 -1.6093  0.2572  2.2549
 3708TIP3   OH232538   5.190   1.870  16.698 -0.1541  0.3407  0.0975
 3708TIP3    H132539   5.283   1.849  16.698 -0.6326 -2.1663 -1.4799
 3708TIP3    H232540   5.174   1.912  16.613 -0.9125 -2.0497 -1.0379
 3709TIP3   OH232541   6.553   0.248  11.899 -0.1467  0.3359 -0.2037
 3709TIP3    H132542   6.553   0.323  11.958  0.5997  0.9568 -0.9697
 3709TIP3    H232543   6.607   0.182  11.944  0.0088  0.6186  0.0296
 3710TIP3   OH232544   3.328   2.150   3.404 -0.8779  0.1186 -0.1821
 3710TIP3    H132545   3.313   2.240   3.433 -1.9736  0.1731 -0.8631
 3710TIP3    H232546   3.423   2.139   3.409 -0.8391  0.8620  1.1951
 3711TIP3   OH232547   5.276   3.479   2.292 -0.4484 -0.0907  0.1550
 3711TIP3    H132548   5.350   3.437   2.248  0.3925  1.2853  0.2118
 3711TIP3    H232549   5.198   3.442   2.249  0.2820 -0.8564 -0.5430
 3712TIP3   OH232550   0.467   2.960   5.498  0.3275 -1.0723 -0.1199
 3712TIP3    H132551   0.423   2.876   5.515  0.5148 -1.2257 -0.3941
 3712TIP3    H232552   0.558   2.937   5.484  0.1613 -0.9776 -1.5010
 3713TIP3   OH232553   2.036   6.201  13.044  0.3664  0.0115  0.1994
 3713TIP3    H132554   2.035   6.193  12.948  0.4495  0.5992  0.1482
 3713TIP3    H232555   2.067   6.290  13.060 -0.1858  0.1028  0.7635
 3714TIP3   OH232556   4.158   3.847   2.889 -0.1416  0.2853 -0.3756
 3714TIP3    H132557   4.097   3.905   2.844 -1.4063 -2.8673 -3.1440
 3714TIP3    H232558   4.244   3.879   2.864 -0.8002 -0.0078 -3.4985
 3715TIP3   OH232559   5.329   5.724   2.938 -0.3554  0.6216  0.3289
 3715TIP3    H132560   5.338   5.679   3.022 -0.3186 -1.4861 -0.7413
 3715TIP3    H232561   5.273   5.667   2.886 -1.1562  2.3520 -0.7902
 3716TIP3   OH232562   2.266   1.834  11.557  0.1222 -0.6977  0.1308
 3716TIP3    H132563   2.352   1.850  11.596  0.3661 -0.9646 -0.2880
 3716TIP3    H232564   2.210   1.808  11.630  0.4681 -0.7979  0.3597
 3717TIP3   OH232565   0.352   4.445   4.845  0.0046 -0.3326 -0.0418
 3717TIP3    H132566   0.368   4.351   4.837  1.4552 -0.0741 -0.5622
 3717TIP3    H232567   0.341   4.461   4.939  1.5384 -0.7850  0.2412
 3718TIP3   OH232568   5.578   0.596  14.527 -0.0633 -0.4560  0.1714
 3718TIP3    H132569   5.515   0.666  14.546 -1.7097 -1.8242 -0.0431
 3718TIP3    H232570   5.555   0.566  14.439 -2.2111 -4.0123  1.7291
 3719TIP3   OH232571   2.207   5.527  11.666 -0.1544  0.3912  0.1047
 3719TIP3    H132572   2.247   5.527  11.579 -0.6068 -0.1795 -0.1123
 3719TIP3    H232573   2.163   5.612  11.672  0.9126  0.9499  0.2802
 3720TIP3   OH232574   6.101   5.673  14.125 -0.8544  1.0712  0.8635
 3720TIP3    H132575   6.059   5.599  14.080  0.1456 -1.9998  4.5017
 3720TIP3    H232576   6.185   5.639  14.154  0.2032  4.0947  1.7666
 3721TIP3   OH232577   2.019   3.123  13.760 -0.1146  0.5032  0.1316
 3721TIP3    H132578   2.056   3.211  13.767 -0.6898  0.8598 -1.0537
 3721TIP3    H232579   1.972   3.110  13.843 -1.2670  1.9183 -0.2544
 3722TIP3   OH232580   0.711   2.471  14.871  0.2205 -0.6695  0.1831
 3722TIP3    H132581   0.765   2.489  14.948  1.0814 -0.7225 -0.3967
 3722TIP3    H232582   0.654   2.399  14.898 -1.4278  1.0705  1.6555
 3723TIP3   OH232583   5.547   6.643  15.126 -0.4885 -0.0456  0.0220
 3723TIP3    H132584   5.453   6.659  15.111  0.0363  0.5776 -3.4196
 3723TIP3    H232585   5.585   6.731  15.132  0.0715 -0.2653 -0.2293
 3724TIP3   OH232586   1.005   5.551   4.129 -0.0027 -0.5092 -0.2171
 3724TIP3    H132587   1.059   5.508   4.062 -0.6738 -1.6098 -0.0738
 3724TIP3    H232588   1.028   5.644   4.121 -1.0331 -0.3795 -2.9011
 3725TIP3   OH232589   4.605   3.562  11.673  0.0645 -0.0077 -0.4356
 3725TIP3    H132590   4.534   3.563  11.609  0.9712 -0.2196 -1.4602
 3725TIP3    H232591   4.682   3.591  11.625  0.6798  0.2621  0.6747
 3726TIP3   OH232592   3.113   4.673  15.029 -0.0745 -0.3287  0.0304
 3726TIP3    H132593   3.092   4.741  15.094 -1.7450 -0.7926  0.0140
 3726TIP3    H232594   3.193   4.705  14.987 -0.3346  1.1982  0.6249
 3727TIP3   OH232595   3.990   0.576  17.049  0.0702 -0.4745 -0.1362
 3727TIP3    H132596   3.984   0.573  17.144 -1.9778 -0.5346 -0.2227
 3727TIP3    H232597   3.949   0.659  17.024 -1.4653 -1.4480 -1.0439
 3728TIP3   OH232598   1.306   0.920  16.631 -0.0938  0.1319 -0.6079
 3728TIP3    H132599   1.269   0.964  16.554  1.2721 -0.4475 -1.6377
 3728TIP3    H232600   1.240   0.854  16.654 -0.0045 -0.5035 -2.0432
 3729TIP3   OH232601   3.535   5.172  11.820 -0.8721  0.5463  0.3886
 3729TIP3    H132602   3.607   5.131  11.771 -1.9316  0.0324 -0.8044
 3729TIP3    H232603   3.568   5.179  11.909  0.4622 -0.1813 -0.0158
 3730TIP3   OH232604   4.582   0.315   2.991  0.6914 -0.3085 -0.2038
 3730TIP3    H132605   4.607   0.373   3.063 -0.5778 -0.1070  0.0915
 3730TIP3    H232606   4.655   0.254   2.983  0.6051 -0.7099  1.6560
 3731TIP3   OH232607   1.187   3.119   3.237 -0.1638 -0.1504  0.0518
 3731TIP3    H132608   1.248   3.192   3.223  2.3142 -2.3506 -1.6259
 3731TIP3    H232609   1.192   3.068   3.156 -1.8080 -2.2042  1.1378
 3732TIP3   OH232610   1.983   4.588  12.233 -0.5127 -0.4719 -0.1658
 3732TIP3    H132611   1.944   4.624  12.153  0.4342  0.3396 -0.2768
 3732TIP3    H232612   2.073   4.621  12.233 -0.2533 -1.1293  0.8267
 3733TIP3   OH232613   6.468   5.873   3.276 -0.7212 -0.5555 -0.4406
 3733TIP3    H132614   6.393   5.905   3.225 -0.0105  2.7091  0.3752
 3733TIP3    H232615   6.540   5.871   3.213 -0.6147  0.1865 -0.3503
 3734TIP3   OH232616   3.515   6.152   1.919  0.2711  0.5130  0.1347
 3734TIP3    H132617   3.512   6.216   1.989  1.7188  0.5990  0.1389
 3734TIP3    H232618   3.578   6.087   1.948 -1.8777 -1.5117  0.5885
 3735TIP3   OH232619   4.673   4.957   3.516  0.3600  0.2131 -0.3037
 3735TIP3    H132620   4.731   4.995   3.450  0.2569  1.5519  0.3476
 3735TIP3    H232621   4.596   4.928   3.467 -0.2319  2.2400 -0.6737
 3736TIP3   OH232622   4.398   4.356   3.573 -0.1735  0.2169  0.5743
 3736TIP3    H132623   4.384   4.279   3.518 -1.0551  1.6823 -1.3941
 3736TIP3    H232624   4.333   4.347   3.643  0.6027 -1.4267  1.1288
 3737TIP3   OH232625   3.344   0.785   4.089 -0.0099  0.1071 -0.2662
 3737TIP3    H132626   3.333   0.853   4.024 -0.7513  0.1121 -0.1446
 3737TIP3    H232627   3.328   0.828   4.173  0.4784 -0.0021 -0.1109
 3738TIP3   OH232628   5.514   1.648  16.699  0.5410 -0.0749 -0.0833
 3738TIP3    H132629   5.450   1.577  16.698  0.8735 -0.3736 -0.6019
 3738TIP3    H232630   5.546   1.649  16.789 -1.3212  1.1197  0.6380
 3739TIP3   OH232631   4.678   6.035   4.412 -0.4485 -0.1265  0.0467
 3739TIP3    H132632   4.727   6.099   4.360 -0.1147 -1.0526 -0.8177
 3739TIP3    H232633   4.605   6.084   4.449 -0.3842  0.6745 -0.8668
 3740TIP3   OH232634   2.162   6.710  12.930  0.1661  0.4865  0.2647
 3740TIP3    H132635   2.184   6.700  13.023 -0.9988  3.1432  0.9343
 3740TIP3    H232636   2.067   6.696  12.926  0.6068 -2.9508 -1.1948
 3741TIP3   OH232637   0.467   6.027   4.405  0.8294  0.2785 -0.0237
 3741TIP3    H132638   0.555   6.033   4.367  0.2825 -1.8642 -1.8080
 3741TIP3    H232639   0.449   5.933   4.409 -1.2736  0.6661  0.5679
 3742TIP3   OH232640   4.447   1.755  16.388 -0.1702  0.8736 -0.6082
 3742TIP3    H132641   4.434   1.828  16.449 -1.1112  0.0479  0.2168
 3742TIP3    H232642   4.359   1.721  16.372  0.2846 -0.3119 -0.6980
 3743TIP3   OH232643   4.606   2.933   2.972 -0.0263 -0.2969 -0.3093
 3743TIP3    H132644   4.521   2.896   2.997 -0.1350  0.1327 -0.0180
 3743TIP3    H232645   4.613   2.916   2.879 -0.2023 -0.7907 -0.2369
 3744TIP3   OH232646   3.121   2.865   2.913  0.3748 -0.1251  0.3205
 3744TIP3    H132647   3.133   2.780   2.953 -2.1766  0.3584  2.3752
 3744TIP3    H232648   3.180   2.923   2.960  0.4174 -0.3178  0.5028
 3745TIP3   OH232649   3.935   4.643   2.961  0.1457  0.4070  0.2220
 3745TIP3    H132650   3.895   4.568   3.005  0.1956 -0.8417 -1.7189
 3745TIP3    H232651   4.025   4.644   2.993 -0.8143  2.1537  3.2605
 3746TIP3   OH232652   2.395   3.021   2.949 -0.2442 -0.2478  0.2666
 3746TIP3    H132653   2.443   2.938   2.954  0.7544  0.2812 -0.1531
 3746TIP3    H232654   2.434   3.075   3.018 -0.4446  0.0957  0.1114
 3747TIP3   OH232655   3.393   2.240   5.814 -1.1405 -0.0236 -0.3052
 3747TIP3    H132656   3.358   2.158   5.778  0.0463 -0.6681 -0.0601
 3747TIP3    H232657   3.414   2.218   5.905 -0.1508  0.3311 -0.4345
 3748TIP3   OH232658   6.069   4.890  16.157  0.4472  0.5187  0.3064
 3748TIP3    H132659   6.110   4.976  16.171  1.2642  0.0781  0.6860
 3748TIP3    H232660   5.981   4.899  16.194  0.1865  1.4677 -0.4865
 3749TIP3   OH232661   5.321   3.698  12.954 -0.0323  0.0666 -0.2194
 3749TIP3    H132662   5.289   3.608  12.945  1.8620 -0.4899 -1.9798
 3749TIP3    H232663   5.247   3.752  12.926 -1.6715 -0.7928  2.1247
 3750TIP3   OH232664   3.575   1.874  11.908 -0.2741 -0.0503  0.4474
 3750TIP3    H132665   3.642   1.924  11.862 -0.2246  2.3332  2.8627
 3750TIP3    H232666   3.610   1.785  11.911  1.0188  0.3301 -1.4906
 3751TIP3   OH232667   5.478   0.731  17.064  0.2230 -0.2789  0.2017
 3751TIP3    H132668   5.481   0.636  17.052 -2.8473 -0.8267  2.6196
 3751TIP3    H232669   5.479   0.766  16.975  1.4856 -2.5334 -0.7554
 3752TIP3   OH232670   2.508   6.371   5.545 -0.3236  0.2109 -0.4331
 3752TIP3    H132671   2.593   6.327   5.545 -0.0266  0.7702 -1.1169
 3752TIP3    H232672   2.479   6.369   5.454 -0.7040  0.6641 -0.3309
 3753TIP3   OH232673   5.061   2.186  13.502  0.0838  0.4628 -0.2009
 3753TIP3    H132674   5.125   2.187  13.431  4.3147  0.6886  3.1999
 3753TIP3    H232675   5.023   2.098  13.499  1.3059 -0.0563 -1.8336
 3754TIP3   OH232676   4.248   3.465   4.078 -0.3476  0.2786  0.0190
 3754TIP3    H132677   4.277   3.470   4.168  1.7794  0.1833 -0.6188
 3754TIP3    H232678   4.191   3.542   4.067 -0.6659  0.2702  1.4173
 3755TIP3   OH232679   2.839   1.021  15.611  0.1065 -0.1932 -0.2008
 3755TIP3    H132680   2.900   1.095  15.611 -1.4159  1.1256  0.6281
 3755TIP3    H232681   2.815   1.009  15.703  0.5870 -1.9875 -0.2664
 3756TIP3   OH232682   3.073   5.343   4.555  0.6876 -0.5505  0.2797
 3756TIP3    H132683   3.167   5.341   4.536  0.6454 -0.3496  0.0478
 3756TIP3    H232684   3.031   5.328   4.471  0.4991  0.7669  0.1124
 3757TIP3   OH232685   4.104   0.602   5.032 -0.4172 -0.2068 -0.6482
 3757TIP3    H132686   4.175   0.623   4.971 -1.1726 -0.0943 -1.5041
 3757TIP3    H232687   4.149   0.584   5.115  0.6730 -1.0364 -1.3946
 3758TIP3   OH232688   3.333   3.290   5.904  0.2514  0.9670 -0.0191
 3758TIP3    H132689   3.284   3.209   5.920 -0.8335  1.5150 -0.5080
 3758TIP3    H232690   3.399   3.292   5.974  2.6775 -2.0880 -1.9273
 3759TIP3   OH232691   0.972   3.455  15.323 -0.0049 -0.8935  0.1176
 3759TIP3    H132692   1.037   3.448  15.253  0.6657 -0.7373  0.7137
 3759TIP3    H232693   0.946   3.365  15.340 -0.1508 -0.9336 -0.3205
 3760TIP3   OH232694   0.248   4.169   0.719 -0.1989 -0.3757  0.7339
 3760TIP3    H132695   0.243   4.244   0.659  0.7878  0.3466  1.5151
 3760TIP3    H232696   0.161   4.130   0.716 -0.7790  0.8790  0.3911
 3761TIP3   OH232697   3.079   4.465  14.296 -0.2283  0.2804  0.0505
 3761TIP3    H132698   3.089   4.380  14.253 -1.0825  0.3186 -0.2560
 3761TIP3    H232699   3.092   4.446  14.389 -0.8469 -0.2869  0.0378
 3762TIP3   OH232700   3.232   6.447  11.544  0.0258  0.8098  0.2509
 3762TIP3    H132701   3.277   6.489  11.470 -0.0171  0.1694 -0.1501
 3762TIP3    H232702   3.143   6.482  11.541  0.0230  0.7821 -0.0071
 3763TIP3   OH232703   0.051   0.610   3.677  0.3347  0.8496  0.5161
 3763TIP3    H132704  -0.014   0.609   3.607  1.0977 -0.1920 -0.2218
 3763TIP3    H232705   0.028   0.686   3.730 -1.0107  0.9498 -0.1533
 3764TIP3   OH232706   1.876   1.331  17.308 -0.0897  0.2386 -0.2022
 3764TIP3    H132707   1.921   1.327  17.224  1.3067 -1.8262  0.5699
 3764TIP3    H232708   1.785   1.307  17.289  0.2407 -0.3203 -1.1058
 3765TIP3   OH232709   2.098   1.015   1.582  0.5953  0.3165  0.3880
 3765TIP3    H132710   2.192   1.009   1.597  0.4756 -0.0094  1.0225
 3765TIP3    H232711   2.089   1.079   1.511  1.1670  2.0203  1.7834
 3766TIP3   OH232712   1.934   4.363  11.904  0.0589 -0.6892  0.3059
 3766TIP3    H132713   1.885   4.440  11.931  0.0695 -0.3223 -0.6789
 3766TIP3    H232714   2.013   4.364  11.958 -0.9226 -1.2314  1.8389
 3767TIP3   OH232715   4.303   5.124   1.644  0.1936 -0.1177 -0.0817
 3767TIP3    H132716   4.385   5.138   1.598 -0.6996 -0.8058 -1.9715
 3767TIP3    H232717   4.289   5.029   1.641 -2.1050  0.1708 -2.5464
 3768TIP3   OH232718   4.419   3.449  14.190  0.1997 -0.2117 -0.0587
 3768TIP3    H132719   4.510   3.427  14.211  0.2365 -0.4420 -0.4479
 3768TIP3    H232720   4.374   3.365  14.188 -0.2109 -0.0335  0.9754
 3769TIP3   OH232721   4.030   2.712  14.645  0.3582 -0.7846 -0.1736
 3769TIP3    H132722   4.005   2.649  14.578 -0.4991 -0.8407  0.1800
 3769TIP3    H232723   4.119   2.687  14.671  1.5864  0.5012 -2.7508
 3770TIP3   OH232724   6.261   5.988  14.505 -0.2975 -0.2128 -0.1395
 3770TIP3    H132725   6.222   6.067  14.543  0.3861  1.3176 -2.4362
 3770TIP3    H232726   6.241   5.994  14.411  1.8159 -1.5381 -0.7375
 3771TIP3   OH232727   1.283   6.591  12.495  0.5273 -0.5470  0.2644
 3771TIP3    H132728   1.368   6.629  12.519  0.4586 -0.8197  0.9698
 3771TIP3    H232729   1.222   6.628  12.558  0.1734 -0.5716 -0.0651
 3772TIP3   OH232730   5.956   4.670  11.946  0.1034  0.1014 -0.0802
 3772TIP3    H132731   5.986   4.581  11.928  0.8234  0.6930 -2.0480
 3772TIP3    H232732   6.036   4.717  11.972  0.1821  0.7092 -1.3549
 3773TIP3   OH232733   4.249   1.345   1.809 -0.2883 -0.1669  0.1935
 3773TIP3    H132734   4.300   1.381   1.736 -0.3555 -2.0109 -0.8163
 3773TIP3    H232735   4.159   1.368   1.788 -0.1818  0.4003  0.3518
 3774TIP3   OH232736   4.193   1.207   0.124  0.6951 -0.2598 -0.2860
 3774TIP3    H132737   4.149   1.254   0.054  1.6497 -0.6916 -1.1928
 3774TIP3    H232738   4.280   1.247   0.129  0.4693  0.1383  1.0355
 3775TIP3   OH232739   1.824   1.150   3.977 -0.1726  1.0617  0.5070
 3775TIP3    H132740   1.768   1.219   4.012  1.3785  1.7869  1.6567
 3775TIP3    H232741   1.843   1.177   3.888 -0.2357  1.6955  0.6815
 3776TIP3   OH232742   2.305   4.214  14.371 -0.4998 -0.0077 -0.1475
 3776TIP3    H132743   2.312   4.309  14.378  0.8457 -0.1822  2.2009
 3776TIP3    H232744   2.244   4.189  14.441  0.7742 -0.9643  0.6817
 3777TIP3   OH232745   2.444   1.967  10.700 -0.1275  0.6364  0.3164
 3777TIP3    H132746   2.359   1.931  10.722  0.0052  0.4610  0.5480
 3777TIP3    H232747   2.429   2.017  10.620 -0.6449  1.4418  0.9144
 3778TIP3   OH232748   0.198   4.240  14.627  0.3152 -0.2253 -0.0411
 3778TIP3    H132749   0.138   4.313  14.611  0.4685  0.1946  1.1759
 3778TIP3    H232750   0.165   4.169  14.571 -1.2904  0.0065  0.5587
 3779TIP3   OH232751   2.740   6.590   1.508  0.0355 -0.0699  0.1871
 3779TIP3    H132752   2.787   6.674   1.509 -0.2773  0.1437  2.3131
 3779TIP3    H232753   2.793   6.533   1.452  1.0081  1.1407 -0.1588
 3780TIP3   OH232754   5.645   2.249  17.040 -0.6457  0.0629 -0.2543
 3780TIP3    H132755   5.701   2.303  17.096 -0.0941 -0.0040 -0.7231
 3780TIP3    H232756   5.577   2.308  17.008 -0.1513  0.4460 -0.6169
 3781TIP3   OH232757   3.447   0.506  14.145 -0.2303 -0.6760  0.3234
 3781TIP3    H132758   3.397   0.431  14.176 -1.1944  0.0224  0.5181
 3781TIP3    H232759   3.521   0.468  14.098 -2.0814 -1.7979 -1.8696
 3782TIP3   OH232760   1.793   1.667   1.694  0.0270 -0.5274  1.0283
 3782TIP3    H132761   1.719   1.720   1.722  0.0604 -0.0995  0.3199
 3782TIP3    H232762   1.869   1.712   1.730  0.1476  0.5478 -0.4692
 3783TIP3   OH232763   2.169   4.444  16.245 -0.2163  0.2857  0.4775
 3783TIP3    H132764   2.238   4.401  16.294  0.3250 -1.0741 -1.3367
 3783TIP3    H232765   2.170   4.535  16.274 -1.0886 -0.7250  4.1385
 3784TIP3   OH232766   1.836   3.680   1.820  0.3141  0.4877 -0.6199
 3784TIP3    H132767   1.830   3.586   1.834 -1.2582  0.7166  0.5106
 3784TIP3    H232768   1.912   3.707   1.872  1.0292 -0.2009 -1.2940
 3785TIP3   OH232769   3.613   5.330  12.822 -0.3368  0.6418  0.1239
 3785TIP3    H132770   3.691   5.322  12.767 -0.4810  0.0045  0.0139
 3785TIP3    H232771   3.628   5.268  12.894 -0.1511  1.4565  0.8130
 3786TIP3   OH232772   5.693   3.600  14.818 -0.1166 -0.4755  0.3843
 3786TIP3    H132773   5.769   3.544  14.833  0.4710  0.3358  0.5131
 3786TIP3    H232774   5.625   3.565  14.877  0.2298 -1.0610  0.4402
 3787TIP3   OH232775   0.783   0.778   2.978 -0.4476  0.5681  0.4006
 3787TIP3    H132776   0.839   0.712   3.018 -0.1313  0.7793  0.3147
 3787TIP3    H232777   0.699   0.769   3.022 -0.8356 -0.8223 -0.5624
 3788TIP3   OH232778   0.534   6.084   5.082 -0.2024 -0.1548 -0.0950
 3788TIP3    H132779   0.598   6.155   5.075  0.1850 -0.5512 -0.5782
 3788TIP3    H232780   0.472   6.115   5.149 -0.5095  1.0107 -0.8794
 3789TIP3   OH232781   0.368   2.905  11.862 -0.0522 -0.1099  0.1909
 3789TIP3    H132782   0.460   2.913  11.885 -0.1015 -0.4797  0.5321
 3789TIP3    H232783   0.322   2.901  11.947 -0.4359  0.6396  0.0325
 3790TIP3   OH232784   0.307   5.920   2.404 -0.5358  0.4696 -0.0025
 3790TIP3    H132785   0.232   5.932   2.462 -0.4408  0.4700  0.1215
 3790TIP3    H232786   0.288   5.839   2.357  0.2849 -0.6096  1.4370
 3791TIP3   OH232787   3.394   0.708   2.455  0.1404  0.1390 -0.2021
 3791TIP3    H132788   3.306   0.676   2.477  0.1738  1.0831  1.4221
 3791TIP3    H232789   3.393   0.800   2.480  1.0435  0.6557 -1.9027
 3792TIP3   OH232790   0.146   1.598  15.261  0.2274 -0.1951  0.2284
 3792TIP3    H132791   0.178   1.685  15.237  1.7772 -0.6322  0.6063
 3792TIP3    H232792   0.093   1.571  15.186  1.5752  0.1726 -0.9009
 3793TIP3   OH232793   1.752   5.830  11.601 -0.0559  0.2439 -0.2394
 3793TIP3    H132794   1.739   5.735  11.600 -2.3798  0.5013 -0.2086
 3793TIP3    H232795   1.735   5.857  11.510  1.1184  0.6147 -0.3751
 3794TIP3   OH232796   2.112   4.122  12.467  0.0693  0.2102 -0.0193
 3794TIP3    H132797   2.063   4.198  12.499  0.8529  1.0676 -0.7990
 3794TIP3    H232798   2.203   4.151  12.464  0.3198 -0.5946 -0.8205
 3795TIP3   OH232799   1.895   2.330  15.490 -0.4058 -0.1140 -0.4535
 3795TIP3    H132800   1.877   2.423  15.502  0.0590 -0.1438  0.6488
 3795TIP3    H232801   1.972   2.314  15.544 -0.6163 -1.1938 -0.4507
 3796TIP3   OH232802   1.150   6.244  14.845 -0.1936  0.1737  0.4490
 3796TIP3    H132803   1.132   6.212  14.757  0.7066 -0.5934  0.5314
 3796TIP3    H232804   1.162   6.165  14.897  0.9661  0.6362  0.8980
 3797TIP3   OH232805   3.004   6.026  12.866  0.5882 -0.1064 -0.2640
 3797TIP3    H132806   2.970   6.017  12.955  1.4766 -0.3244  0.0602
 3797TIP3    H232807   3.083   5.972  12.865  0.1505 -0.7537 -1.4204
 3798TIP3   OH232808   4.127   5.208   4.454 -0.3626  0.9851  0.0280
 3798TIP3    H132809   4.119   5.124   4.409  0.7205  1.2575 -0.7108
 3798TIP3    H232810   4.219   5.233   4.443 -0.4080  1.7443  1.1889
 3799TIP3   OH232811   5.899   4.058   1.673 -0.2428  0.3583 -0.1571
 3799TIP3    H132812   5.871   4.086   1.586 -1.1596  2.3179  0.6839
 3799TIP3    H232813   5.817   4.050   1.723  0.2299 -1.1772  0.4205
 3800TIP3   OH232814   4.959   1.075   0.970 -0.4389  0.0978 -0.2674
 3800TIP3    H132815   4.875   1.040   1.000 -0.4509  0.3553  0.0039
 3800TIP3    H232816   5.022   1.042   1.035 -0.5520  1.1716  0.4164
 3801TIP3   OH232817   2.451   6.590  15.631 -0.2990  0.0833  0.0550
 3801TIP3    H132818   2.374   6.636  15.663  0.7941  1.5568  0.6666
 3801TIP3    H232819   2.513   6.659  15.608  0.7607 -1.0548 -0.6695
 3802TIP3   OH232820   2.560   5.159  11.184 -0.4774  0.1127  0.1817
 3802TIP3    H132821   2.494   5.205  11.132 -0.6023  0.7731  0.8957
 3802TIP3    H232822   2.641   5.208  11.169 -0.3257 -0.2097 -0.0573
 3803TIP3   OH232823   1.077   2.039  13.578 -0.0835 -0.5214  0.6504
 3803TIP3    H132824   1.068   2.013  13.486 -1.4348 -0.8816  0.8617
 3803TIP3    H232825   0.990   2.025  13.615 -0.0994  1.5458  1.5033
 3804TIP3   OH232826   4.567   6.041  10.732 -0.2192 -0.2291 -0.2748
 3804TIP3    H132827   4.616   6.095  10.670 -0.2299 -0.2964 -0.3431
 3804TIP3    H232828   4.511   5.986  10.677 -2.8626  2.1367 -0.1389
 3805TIP3   OH232829   6.165   2.075   1.583  0.1222 -0.0346  0.2229
 3805TIP3    H132830   6.217   1.994   1.587  1.0640  0.4988 -0.6160
 3805TIP3    H232831   6.191   2.123   1.662  2.0172  0.8447 -0.8794
 3806TIP3   OH232832   2.568   2.764  15.250 -0.6275  0.0576  0.0531
 3806TIP3    H132833   2.618   2.699  15.201  1.4071  1.5120  0.0634
 3806TIP3    H232834   2.500   2.794  15.189 -0.9639 -1.3102 -0.2848
 3807TIP3   OH232835   3.720   3.725  17.364 -0.0040 -0.6724 -0.0420
 3807TIP3    H132836   3.734   3.815  17.333 -0.6160 -0.1996  0.9915
 3807TIP3    H232837   3.626   3.720  17.382 -0.0775 -1.7227 -0.6591
 3808TIP3   OH232838   2.686   0.740   2.376 -0.1748 -0.4409 -0.0096
 3808TIP3    H132839   2.657   0.820   2.419  0.4541 -0.9168  1.3511
 3808TIP3    H232840   2.718   0.685   2.447 -0.6100 -1.9141 -0.9201
 3809TIP3   OH232841   2.389   6.295  11.070 -0.3807  0.1539 -0.3418
 3809TIP3    H132842   2.408   6.242  11.147 -0.5612 -1.2243 -1.2118
 3809TIP3    H232843   2.415   6.240  10.996  0.7909  1.8553 -1.2624
 3810TIP3   OH232844   3.824   4.758  13.042 -0.2409 -0.2271 -0.1108
 3810TIP3    H132845   3.815   4.722  13.130 -1.4609 -1.2159 -0.6076
 3810TIP3    H232846   3.903   4.717  13.006 -0.9864 -1.5954 -0.2605
 3811TIP3   OH232847   3.753   4.374   4.455  0.6206 -0.4814 -0.0789
 3811TIP3    H132848   3.749   4.469   4.462  1.4994 -0.3885 -0.7086
 3811TIP3    H232849   3.700   4.342   4.529 -1.1038  0.4841 -0.8321
 3812TIP3   OH232850   6.234   5.856  13.944 -0.0185 -0.0482 -0.2344
 3812TIP3    H132851   6.231   5.932  14.003  3.5745 -0.2515  0.4536
 3812TIP3    H232852   6.184   5.788  13.989  0.2048  0.6932  1.1957
 3813TIP3   OH232853   3.035   5.295   5.579  0.3800  0.7678  0.1743
 3813TIP3    H132854   3.085   5.355   5.524 -0.1173  0.3294 -0.7734
 3813TIP3    H232855   2.945   5.303   5.549 -0.3241  2.1331  2.3872
 3814TIP3   OH232856   3.187   6.049  11.353  0.2221  0.1791  0.5786
 3814TIP3    H132857   3.228   6.124  11.309 -0.7898 -0.1690 -1.0500
 3814TIP3    H232858   3.162   6.083  11.439 -0.0849  1.6920 -0.0674
 3815TIP3   OH232859   6.721   5.582   4.491  0.4612  0.7359  0.4612
 3815TIP3    H132860   6.696   5.631   4.413  0.0151 -0.8486 -0.4351
 3815TIP3    H232861   6.672   5.623   4.562 -1.6552  0.1941 -0.6156
 3816TIP3   OH232862   5.882   0.100   4.948 -0.3446 -0.6754  0.1560
 3816TIP3    H132863   5.801   0.120   4.996 -0.3455  0.0332 -0.1375
 3816TIP3    H232864   5.907   0.012   4.979 -2.0438 -1.5737 -0.8641
 3817TIP3   OH232865   3.084   6.603   5.212 -0.2036 -0.4383 -0.0555
 3817TIP3    H132866   3.050   6.574   5.296 -3.0637 -0.1284 -0.9999
 3817TIP3    H232867   3.033   6.682   5.192  1.5722  0.4402 -1.3474
 3818TIP3   OH232868   6.402   4.708  15.577  0.0066 -0.1410 -0.4120
 3818TIP3    H132869   6.485   4.735  15.616 -1.1185  3.3983 -0.1663
 3818TIP3    H232870   6.385   4.622  15.616  1.5121  0.8790  2.8453
 3819TIP3   OH232871   5.785   5.835  13.475 -0.0638  0.2753  0.2473
 3819TIP3    H132872   5.766   5.874  13.560  1.6023 -0.2179  0.9102
 3819TIP3    H232873   5.811   5.745  13.496 -0.6473 -0.1751 -0.8950
 3820TIP3   OH232874   0.080   4.668   1.655 -0.4083  0.1011 -0.1787
 3820TIP3    H132875   0.088   4.655   1.560 -1.0076  0.3351 -0.2629
 3820TIP3    H232876  -0.003   4.627   1.678 -0.6730  0.7824  0.1055
 3821TIP3   OH232877   0.908   2.649   5.727 -0.0091 -0.0464 -0.3279
 3821TIP3    H132878   0.834   2.652   5.788  2.3931  0.7747  2.8205
 3821TIP3    H232879   0.946   2.737   5.731  0.9382 -0.3153 -2.1612
 3822TIP3   OH232880   5.028   4.337  14.692 -0.1258  0.1545 -0.0490
 3822TIP3    H132881   5.060   4.404  14.631  0.6682  0.2712  0.4852
 3822TIP3    H232882   4.937   4.322  14.665  0.0135  0.6723 -0.8490
 3823TIP3   OH232883   1.817   5.933  16.109 -0.1470  0.1116 -0.3808
 3823TIP3    H132884   1.879   5.865  16.084  1.1874  0.8144  0.8463
 3823TIP3    H232885   1.788   5.908  16.197  1.0905  1.5587  0.4891
 3824TIP3   OH232886   3.933   4.328  15.733 -0.5194  0.7674  0.4311
 3824TIP3    H132887   3.922   4.239  15.766 -0.2324  0.6079  0.1038
 3824TIP3    H232888   3.863   4.378  15.775 -1.2281  0.2071 -0.0504
 3825TIP3   OH232889   6.565   0.670  15.936 -0.2016  0.2833  0.3544
 3825TIP3    H132890   6.584   0.579  15.959  1.0036  0.4482  0.0558
 3825TIP3    H232891   6.650   0.708  15.915 -0.4933  1.8853  1.8844
 3826TIP3   OH232892   5.454   3.446   2.523  0.5100 -0.1249 -0.1309
 3826TIP3    H132893   5.507   3.367   2.515  0.5464  0.0345 -1.6094
 3826TIP3    H232894   5.390   3.440   2.452 -0.5598  0.3800  0.7453
 3827TIP3   OH232895   4.382   0.361  12.172 -0.0580  0.2829 -0.7010
 3827TIP3    H132896   4.475   0.349  12.192 -0.6207 -0.3995  1.8378
 3827TIP3    H232897   4.374   0.454  12.151  1.1399  0.3952 -0.7231
 3828TIP3   OH232898   4.586   1.758   4.959 -0.3450 -0.1908  0.0404
 3828TIP3    H132899   4.530   1.800   4.894  0.5564 -1.7743 -1.8981
 3828TIP3    H232900   4.670   1.805   4.952  0.0689 -1.0090 -0.7416
 3829TIP3   OH232901   1.045   4.907   2.850  0.0340 -0.3309 -0.2756
 3829TIP3    H132902   1.067   4.936   2.939 -0.7106  1.4756 -0.6391
 3829TIP3    H232903   0.998   4.825   2.862 -1.3560  0.6247  1.1283
 3830TIP3   OH232904   0.923   0.941   1.491 -0.4437  0.1899  0.0814
 3830TIP3    H132905   0.857   0.985   1.545  1.8100  1.3333  2.0495
 3830TIP3    H232906   0.979   1.011   1.459  0.2134 -0.8063 -1.0117
 3831TIP3   OH232907   0.186   2.254   3.209 -0.0806 -0.0079  0.0322
 3831TIP3    H132908   0.243   2.272   3.283 -1.0505  1.1598  0.5463
 3831TIP3    H232909   0.097   2.266   3.244 -0.5367  1.3177 -1.4699
 3832TIP3   OH232910   3.747   3.903   5.613 -0.2037 -0.2331 -0.1496
 3832TIP3    H132911   3.746   3.948   5.697 -0.0113  0.3253 -0.4459
 3832TIP3    H232912   3.691   3.956   5.556  1.5920  0.7459 -1.0641
 3833TIP3   OH232913   4.925   4.704  15.490  0.0530 -0.5987 -0.0946
 3833TIP3    H132914   4.865   4.649  15.540  0.5984 -1.7112 -0.6162
 3833TIP3    H232915   4.935   4.658  15.406  1.4462 -0.3289 -0.1014
 3834TIP3   OH232916   0.745   5.612  16.146  0.0645 -0.1779  0.0915
 3834TIP3    H132917   0.777   5.633  16.059 -1.2999  0.1572 -0.3558
 3834TIP3    H232918   0.802   5.542  16.177  1.6566  0.8674 -0.3577
 3835TIP3   OH232919   6.112   4.308  15.825  0.3632 -0.3328  0.7930
 3835TIP3    H132920   6.135   4.366  15.898 -2.0668  0.8802  0.7189
 3835TIP3    H232921   6.133   4.220  15.857  2.5541  0.4118  1.5808
 3836TIP3   OH232922   5.399   0.316   5.875 -0.2686 -0.3638  0.6471
 3836TIP3    H132923   5.336   0.306   5.804  1.8937 -0.9806 -1.2900
 3836TIP3    H232924   5.371   0.251   5.940 -1.2885 -1.0166 -0.3975
 3837TIP3   OH232925   4.431   0.678   4.658 -0.2864  0.3020  0.0296
 3837TIP3    H132926   4.446   0.751   4.599 -0.9832 -0.3105 -0.9491
 3837TIP3    H232927   4.491   0.610   4.627  0.2730  0.4165  0.8550
 3838TIP3   OH232928   0.818   0.851  13.576  0.2489 -0.0072  0.4132
 3838TIP3    H132929   0.754   0.782  13.592 -0.0543  0.3747  0.8955
 3838TIP3    H232930   0.787   0.895  13.496 -1.3682  1.5732  1.8253
 3839TIP3   OH232931   3.402   1.340  11.079 -0.0054 -0.5834  0.4784
 3839TIP3    H132932   3.495   1.335  11.099  0.0093 -0.1124  0.5381
 3839TIP3    H232933   3.398   1.373  10.989 -0.1222  2.8953  1.5795
 3840TIP3   OH232934   4.729   1.223  16.443  0.0365 -0.0302 -0.0418
 3840TIP3    H132935   4.797   1.271  16.395 -1.3072  0.0651 -1.9732
 3840TIP3    H232936   4.659   1.210  16.378 -0.6617 -2.5073  1.1020
 3841TIP3   OH232937   5.930   0.117   6.530 -0.1080  0.5033  0.6316
 3841TIP3    H132938   5.869   0.183   6.560  1.6332  1.4699  2.1821
 3841TIP3    H232939   5.996   0.165   6.481 -0.3474 -0.4887 -0.7509
 3842TIP3   OH232940   6.690   5.045  15.416 -0.3155 -0.1943  0.2064
 3842TIP3    H132941   6.762   5.107  15.425 -1.1189  1.1052 -1.6938
 3842TIP3    H232942   6.626   5.073  15.482  0.4805 -0.7668  1.2479
 3843TIP3   OH232943   0.322   1.349  13.327 -0.0977 -0.3786 -0.0278
 3843TIP3    H132944   0.283   1.327  13.242  0.5124 -0.1048 -0.3852
 3843TIP3    H232945   0.247   1.356  13.386 -0.7426  1.4649 -0.9809
 3844TIP3   OH232946   0.188   1.138  12.782 -0.2510  0.0323  0.6028
 3844TIP3    H132947   0.270   1.090  12.781  0.0583  0.4597 -2.1148
 3844TIP3    H232948   0.207   1.218  12.830  0.8876  0.0234  0.1916
 3845TIP3   OH232949   2.398   3.206   0.035  0.0371 -0.2514 -0.1411
 3845TIP3    H132950   2.481   3.227   0.079 -0.6842  0.9674  0.6922
 3845TIP3    H232951   2.333   3.206   0.105 -1.0062  0.8881 -1.0687
 3846TIP3   OH232952   2.657   5.828  14.188  0.1369 -0.0136 -0.2612
 3846TIP3    H132953   2.723   5.779  14.138 -0.7631 -0.6623 -0.8500
 3846TIP3    H232954   2.705   5.862  14.264  1.1276 -0.5304 -0.6310
 3847TIP3   OH232955   4.565   6.038   4.725 -0.3308 -0.4857  0.3728
 3847TIP3    H132956   4.594   6.121   4.762  1.5740 -0.4208 -1.1138
 3847TIP3    H232957   4.532   6.062   4.638 -4.1407 -0.7075  1.5529
 3848TIP3   OH232958   0.375   5.039  10.631  0.5090 -0.2461 -0.7194
 3848TIP3    H132959   0.305   5.039  10.696  2.5136 -0.2730  1.5931
 3848TIP3    H232960   0.354   4.966  10.573 -1.2903 -0.3061 -0.0607
 3849TIP3   OH232961   4.423   5.472  14.619 -0.7022 -0.2634  0.1284
 3849TIP3    H132962   4.448   5.413  14.548  0.0154  0.4150 -0.1933
 3849TIP3    H232963   4.400   5.554  14.576 -1.1685 -0.1351  0.6113
 3850TIP3   OH232964   4.005   2.522  16.736  0.0310 -0.1197  0.0501
 3850TIP3    H132965   3.955   2.543  16.657  1.2322 -0.5831 -0.8589
 3850TIP3    H232966   3.994   2.428  16.748  0.2525 -0.1316  0.1650
 3851TIP3   OH232967   4.543   4.194  14.066 -0.4310  0.4348  0.1217
 3851TIP3    H132968   4.468   4.244  14.035 -0.5598 -0.7125 -1.5642
 3851TIP3    H232969   4.600   4.185  13.990  0.4600 -0.4035  0.8509
 3852TIP3   OH232970   5.076   2.969   1.727 -0.6155 -0.2855 -0.0816
 3852TIP3    H132971   4.993   2.962   1.774 -1.0046 -0.6272 -0.8044
 3852TIP3    H232972   5.132   3.021   1.784 -0.9349 -1.0583  0.9672
 3853TIP3   OH232973   0.876   0.570   0.475  0.2131 -0.2964  0.0333
 3853TIP3    H132974   0.960   0.524   0.479 -0.1604 -0.9094  1.3437
 3853TIP3    H232975   0.900   0.662   0.463  1.0500 -0.5278 -0.1470
 3854TIP3   OH232976   1.863   5.513   5.238 -0.5298 -0.5193  0.8521
 3854TIP3    H132977   1.837   5.489   5.327  1.1550 -0.8910  1.2851
 3854TIP3    H232978   1.921   5.443   5.210 -1.1346 -0.4747 -0.6225
 3855TIP3   OH232979   5.470   5.398   1.450 -0.2579  0.1665  0.1562
 3855TIP3    H132980   5.402   5.343   1.488 -0.0966  0.0892  0.3323
 3855TIP3    H232981   5.545   5.387   1.508  0.0052  0.0076 -0.2117
 3856TIP3   OH232982   1.897   3.508   4.189 -0.1442 -0.0289 -0.2759
 3856TIP3    H132983   1.846   3.493   4.109  0.0705 -0.9891 -0.2471
 3856TIP3    H232984   1.898   3.603   4.199 -1.7938  0.0296 -0.3639
 3857TIP3   OH232985   2.545   4.464   2.607 -0.3211 -0.2525 -0.2982
 3857TIP3    H132986   2.595   4.387   2.579 -0.8653 -0.5439 -0.4835
 3857TIP3    H232987   2.609   4.535   2.606 -0.4512 -0.0328 -3.2269
 3858TIP3   OH232988   5.786   2.741  14.813 -0.1968 -0.5513 -0.3043
 3858TIP3    H132989   5.810   2.802  14.743  3.0641  0.3791  1.4351
 3858TIP3    H232990   5.789   2.655  14.772  1.5734 -0.0288 -1.3983
 3859TIP3   OH232991   0.133   6.132  12.182 -0.0117 -0.3441 -0.3034
 3859TIP3    H132992   0.062   6.170  12.233 -0.2358 -0.1260 -0.7636
 3859TIP3    H232993   0.212   6.152  12.231 -0.1766  0.2905 -0.2856
 3860TIP3   OH232994   3.366   4.900  15.017 -0.0733  0.6331 -0.0205
 3860TIP3    H132995   3.293   4.953  15.052 -1.6922 -0.3278 -1.7518
 3860TIP3    H232996   3.438   4.962  15.009 -1.0713  1.9379  0.5861
 3861TIP3   OH232997   0.315   5.692  12.999  0.1243  0.4335 -0.1207
 3861TIP3    H132998   0.247   5.727  13.056 -0.6817  1.2875 -1.5448
 3861TIP3    H232999   0.271   5.623  12.949  0.5550  0.3395 -0.3738
 3862TIP3   OH233000   0.329   5.924  14.823 -0.0805  0.6832 -0.4832
 3862TIP3    H133001   0.321   5.834  14.789  1.0799 -0.3698  1.7995
 3862TIP3    H233002   0.391   5.966  14.763  0.0989 -0.3373 -1.0492
 3863TIP3   OH233003   5.712   0.462   2.415  0.1896  0.4870  0.2236
 3863TIP3    H133004   5.689   0.477   2.324 -1.3583 -0.9737  0.3123
 3863TIP3    H233005   5.636   0.492   2.464  0.6057  0.3807  0.9517
 3864TIP3   OH233006   3.939   2.365  16.177  0.3164  0.1906  0.4155
 3864TIP3    H133007   4.000   2.426  16.136  0.3118  0.9480  1.5038
 3864TIP3    H233008   3.888   2.330  16.104  1.3096  0.3614 -0.3871
 3865TIP3   OH233009   1.717   3.216  11.182  0.1896 -0.1518  0.0494
 3865TIP3    H133010   1.652   3.224  11.251  1.2576  1.5464  0.9177
 3865TIP3    H233011   1.668   3.232  11.101 -0.9579 -1.6285  0.3974
 3866TIP3   OH233012   4.552   5.530   1.452  0.7616 -0.1542 -0.0287
 3866TIP3    H133013   4.536   5.438   1.430  2.0806 -0.1541 -1.1244
 3866TIP3    H233014   4.630   5.528   1.507 -0.0196  0.2222  1.1357
 3867TIP3   OH233015   0.581   5.574  17.222 -0.1496 -0.0212  0.4442
 3867TIP3    H133016   0.654   5.581  17.161 -0.4035  2.7162  0.2897
 3867TIP3    H233017   0.616   5.526  17.297  2.0024  1.5250  0.5364
 3868TIP3   OH233018   2.519   5.415   3.820  0.4389  0.6423  0.5863
 3868TIP3    H133019   2.425   5.417   3.802  0.5136  0.5339  0.1754
 3868TIP3    H233020   2.537   5.498   3.865  0.4753  1.5343 -1.0034
 3869TIP3   OH233021   2.463   5.119  15.802 -0.3771 -0.3295 -0.9576
 3869TIP3    H133022   2.542   5.068  15.816 -0.4697  0.0245  1.2741
 3869TIP3    H233023   2.395   5.072  15.850 -1.0712  0.3970 -1.2023
 3870TIP3   OH233024   2.799   5.801  11.214  0.5952  0.1395 -0.2670
 3870TIP3    H133025   2.787   5.892  11.188  0.7392  0.3799  0.4863
 3870TIP3    H233026   2.716   5.758  11.191 -0.6095  1.0916  1.9594
 3871TIP3   OH233027   1.699   0.728   5.698  0.4427  0.3082 -0.3240
 3871TIP3    H133028   1.672   0.765   5.614 -0.8037 -0.7987 -0.4474
 3871TIP3    H233029   1.617   0.719   5.747  1.2055  1.5582  1.2957
 3872TIP3   OH233030   3.896   4.509  12.402 -0.9040  0.5211 -0.2085
 3872TIP3    H133031   3.941   4.471  12.478  0.3079  2.0374 -0.1030
 3872TIP3    H233032   3.832   4.569  12.439 -0.4660  1.0943 -0.3487
 3873TIP3   OH233033   3.160   4.104   4.610  0.1091  0.6381  0.0578
 3873TIP3    H133034   3.255   4.107   4.599  0.0722  0.8542 -0.2178
 3873TIP3    H233035   3.126   4.138   4.527 -0.2205 -0.1718 -0.1478
 3874TIP3   OH233036   6.552   5.581  16.683  0.1862  0.0492  0.1162
 3874TIP3    H133037   6.515   5.554  16.598 -0.4452 -0.8756  0.6617
 3874TIP3    H233038   6.495   5.539  16.748  0.6226  0.8069  1.0024
 3875TIP3   OH233039   3.723   0.206  15.816 -0.1247 -0.4978  0.3074
 3875TIP3    H133040   3.701   0.201  15.723 -0.9221  2.1643  0.2802
 3875TIP3    H233041   3.662   0.146  15.858 -1.2566 -0.0751 -0.6831
 3876TIP3   OH233042   3.457   1.221   5.279 -0.4251 -0.8435  0.1718
 3876TIP3    H133043   3.459   1.126   5.286  0.2583 -0.9092 -0.7268
 3876TIP3    H233044   3.405   1.250   5.354 -1.3688 -1.9626 -0.0254
 3877TIP3   OH233045   3.012   3.396  15.149  0.1853 -0.5631 -0.3171
 3877TIP3    H133046   3.028   3.341  15.226 -0.9165 -0.5067 -0.0377
 3877TIP3    H233047   2.999   3.333  15.078 -0.3429 -0.6547 -0.1431
 3878TIP3   OH233048   3.446   1.828  14.796  0.3715 -0.5283  0.5743
 3878TIP3    H133049   3.389   1.896  14.832  0.1234 -0.5519  0.2228
 3878TIP3    H233050   3.481   1.783  14.873  0.7574  0.1737  0.8197
 3879TIP3   OH233051   6.519   2.041   5.101  0.1318 -0.1411  0.0495
 3879TIP3    H133052   6.594   2.065   5.046  0.0912 -0.8671 -0.3456
 3879TIP3    H233053   6.548   1.961   5.146 -0.3142 -0.2942  0.0709
 3880TIP3   OH233054   0.156   0.425   4.427 -0.1325 -0.5633 -0.2033
 3880TIP3    H133055   0.066   0.445   4.403  0.3311 -0.0837 -1.6602
 3880TIP3    H233056   0.177   0.487   4.497 -0.7913 -0.4084 -0.1408
 3881TIP3   OH233057   0.530   0.719  12.312 -0.4811 -0.1821 -0.1222
 3881TIP3    H133058   0.615   0.754  12.342  0.2485 -2.1251  0.1920
 3881TIP3    H233059   0.528   0.629  12.344 -2.5155 -0.3031 -0.4781
 3882TIP3   OH233060   4.381   5.406  13.586 -0.1924  0.6310 -0.3782
 3882TIP3    H133061   4.452   5.346  13.561 -0.2080  0.4648 -0.0330
 3882TIP3    H233062   4.311   5.349  13.616 -0.0907  0.8312  0.2542
 3883TIP3   OH233063   1.298   5.371   1.509  0.0136  0.2272 -0.1907
 3883TIP3    H133064   1.273   5.280   1.529  0.9392 -0.3749 -1.5764
 3883TIP3    H233065   1.249   5.424   1.572 -1.0088 -1.1945  0.2673
 3884TIP3   OH233066   0.610   4.513   0.364 -0.4799  0.0640 -0.4105
 3884TIP3    H133067   0.619   4.424   0.398 -0.1346  0.4100  0.4368
 3884TIP3    H233068   0.666   4.516   0.286 -1.2159 -0.7179 -0.9815
 3885TIP3   OH233069   2.439   0.527  15.587  0.4496 -0.0151  0.1162
 3885TIP3    H133070   2.417   0.531  15.680  2.1697  0.5817  0.5324
 3885TIP3    H233071   2.423   0.616  15.555  1.5712  0.2652  0.2862
 3886TIP3   OH233072   3.131   2.025   4.750 -0.2859  0.2422 -0.1851
 3886TIP3    H133073   3.076   1.967   4.697  0.4071 -0.3398 -0.2832
 3886TIP3    H233074   3.184   1.966   4.803 -1.6433  0.8190  1.9042
 3887TIP3   OH233075   5.863   6.711  11.203 -0.2763 -0.4070  0.2591
 3887TIP3    H133076   5.943   6.660  11.191  0.1610  0.3369  0.0122
 3887TIP3    H233077   5.820   6.708  11.118  0.1324  0.2833  0.0257
 3888TIP3   OH233078   0.193   6.021   1.601 -0.1259  0.1340 -0.4669
 3888TIP3    H133079   0.234   6.104   1.625  1.8178 -0.1571 -2.4374
 3888TIP3    H233080   0.179   5.975   1.684  0.9395  1.4607  0.4698
 3889TIP3   OH233081   0.075   5.392   0.557  0.2562  0.2125 -0.1028
 3889TIP3    H133082   0.106   5.474   0.519 -0.1596 -0.3683 -1.7886
 3889TIP3    H233083   0.113   5.390   0.645 -0.1606  2.4417  0.1805
 3890TIP3   OH233084   5.771   6.597  14.414  0.2897  0.0202  0.5450
 3890TIP3    H133085   5.825   6.532  14.459  1.0518  0.4880  0.3216
 3890TIP3    H233086   5.747   6.555  14.331  2.4176  0.7131 -0.4956
 3891TIP3   OH233087   0.205   4.508  15.499  0.3526 -0.0164  0.1880
 3891TIP3    H133088   0.191   4.511  15.593  1.6115 -0.7799  0.4234
 3891TIP3    H233089   0.161   4.586  15.465  0.9579  0.9482  1.5507
 3892TIP3   OH233090   6.326   6.313   0.599  0.0775 -0.0349  0.3962
 3892TIP3    H133091   6.313   6.407   0.585  0.6366 -0.0686 -0.3802
 3892TIP3    H233092   6.311   6.274   0.513 -0.7385 -0.7332  0.8430
 3893TIP3   OH233093   4.918   1.920  11.094 -0.2366  0.3798 -0.1740
 3893TIP3    H133094   4.941   1.996  11.041 -0.4518  0.1684 -0.5726
 3893TIP3    H233095   4.985   1.918  11.164 -0.8032  1.5030  0.4244
 3894TIP3   OH233096   3.606   0.380   1.702 -0.2308 -0.1880  0.1547
 3894TIP3    H133097   3.564   0.464   1.683 -1.4278 -0.9095 -0.5036
 3894TIP3    H233098   3.698   0.403   1.721 -0.2205  1.1274 -1.2838
 3895TIP3   OH233099   6.407   3.712  16.378  0.0091  0.0451 -0.3739
 3895TIP3    H133100   6.471   3.701  16.308 -1.2985 -0.7822 -1.4858
 3895TIP3    H233101   6.406   3.627  16.422 -0.1029  0.1581 -0.1587
 3896TIP3   OH233102   1.951   5.879   4.819 -0.1175  0.3555 -0.1464
 3896TIP3    H133103   1.882   5.849   4.877 -0.8026 -0.5251 -1.3512
 3896TIP3    H233104   1.937   5.973   4.810 -0.3579  0.3966  0.6437
 3897TIP3   OH233105   3.284   1.856  16.970  0.1504  0.3781  0.4109
 3897TIP3    H133106   3.212   1.823  17.024 -0.9463 -1.2364 -1.8674
 3897TIP3    H233107   3.241   1.895  16.894  1.6130 -1.2608 -1.3538
 3898TIP3   OH233108   6.570   0.279   3.065  0.0733 -0.1933 -0.2773
 3898TIP3    H133109   6.498   0.303   3.005 -0.2390  0.5624  0.3824
 3898TIP3    H233110   6.624   0.358   3.070  1.2974 -0.9391 -1.2189
 3899TIP3   OH233111   2.169   1.618  15.776  0.0330 -0.0997  0.1179
 3899TIP3    H133112   2.157   1.524  15.786  0.3092 -0.3840 -1.8441
 3899TIP3    H233113   2.231   1.627  15.703  0.3388  1.5965  0.5399
 3900TIP3   OH233114   3.852   4.742   2.362 -0.1495 -0.2367  0.1060
 3900TIP3    H133115   3.898   4.662   2.387 -0.0153 -0.0027  0.6173
 3900TIP3    H233116   3.850   4.740   2.266  0.2745 -0.6119  0.1028
 3901TIP3   OH233117   3.165   0.696   1.375 -0.0351  0.8829 -0.0288
 3901TIP3    H133118   3.096   0.689   1.308 -0.3299  0.6493  0.2939
 3901TIP3    H233119   3.154   0.617   1.428  0.2542  1.0266  0.2435
 3902TIP3   OH233120   1.302   1.123   0.209  0.2246 -0.0197 -0.0646
 3902TIP3    H133121   1.387   1.084   0.233  1.3643  1.7000 -1.0999
 3902TIP3    H233122   1.318   1.217   0.212 -1.8831  0.3593  0.3935
 3903TIP3   OH233123   0.204   0.738   0.547  0.2865  0.3657 -0.7663
 3903TIP3    H133124   0.295   0.762   0.564 -0.1907  1.3004  0.6911
 3903TIP3    H233125   0.201   0.715   0.455  2.5609 -2.3510 -0.2696
 3904TIP3   OH233126   6.128   4.374  14.197  0.2598 -0.1883  0.8243
 3904TIP3    H133127   6.087   4.292  14.225  0.1503  0.5565  3.0836
 3904TIP3    H233128   6.156   4.415  14.279 -0.2262  2.3232 -0.1950
 3905TIP3   OH233129   0.676   3.859   0.054 -0.0675 -0.3360 -0.1955
 3905TIP3    H133130   0.595   3.813   0.031 -1.3978  1.1153  1.2617
 3905TIP3    H233131   0.671   3.868   0.149  1.1125  1.0329 -0.2379
 3906TIP3   OH233132   1.288   3.986   3.860 -0.0908  0.3284  0.2577
 3906TIP3    H133133   1.333   3.902   3.854 -0.3965  0.2344 -1.2836
 3906TIP3    H233134   1.282   4.016   3.769  2.0414  3.1226  0.8765
 3907TIP3   OH233135   3.482   0.091  12.119  0.0319  0.5539  0.1197
 3907TIP3    H133136   3.476   0.042  12.202  0.1572  0.1149 -0.1264
 3907TIP3    H233137   3.571   0.073  12.088  0.5240  1.9531  0.6424
 3908TIP3   OH233138   0.751   6.185  15.401 -0.2662  0.1616 -0.5226
 3908TIP3    H133139   0.739   6.192  15.496  1.8823 -0.8533 -0.1023
 3908TIP3    H233140   0.770   6.274  15.373 -1.1597  0.5099 -0.0358
 3909TIP3   OH233141   4.847   0.570   0.877 -0.6234  0.0386  0.1183
 3909TIP3    H133142   4.809   0.593   0.962 -1.2024  0.5264 -0.2578
 3909TIP3    H233143   4.927   0.622   0.871 -0.4762 -0.1512  0.4524
 3910TIP3   OH233144   2.434   1.847   2.554 -0.1428 -0.2915  0.2888
 3910TIP3    H133145   2.514   1.891   2.524 -1.4189  1.3850 -0.8347
 3910TIP3    H233146   2.365   1.884   2.500 -1.7911 -1.2882  1.6214
 3911TIP3   OH233147   0.876   1.467   0.465 -0.2468 -0.5241  0.4125
 3911TIP3    H133148   0.914   1.503   0.545 -0.5157 -0.8666  0.7004
 3911TIP3    H233149   0.944   1.479   0.398  0.6369 -1.7034  1.0556
 3912TIP3   OH233150   0.878   6.330   3.218  0.0084 -0.3460 -0.0926
 3912TIP3    H133151   0.974   6.334   3.221 -0.0300  0.4111  0.5433
 3912TIP3    H233152   0.857   6.330   3.125  0.6741 -2.5311 -0.2981
 3913TIP3   OH233153   1.277   1.177   4.373 -0.3263 -0.0516  0.5301
 3913TIP3    H133154   1.191   1.156   4.335 -0.6485 -1.0004  1.7357
 3913TIP3    H233155   1.274   1.272   4.386 -1.2637 -0.0913  0.7045
 3914TIP3   OH233156   5.196   3.914  15.322 -0.0071 -0.0260  0.2994
 3914TIP3    H133157   5.209   3.822  15.300 -2.1532 -0.8450  2.0594
 3914TIP3    H233158   5.205   3.917  15.418  1.6594  1.9378  0.1459
 3915TIP3   OH233159   5.797   1.844  16.264 -0.1033  0.2522 -0.6486
 3915TIP3    H133160   5.719   1.801  16.299 -0.6600  0.7096 -1.2832
 3915TIP3    H233161   5.796   1.931  16.304  0.3793  0.0787 -0.2544
 3916TIP3   OH233162   3.559   1.478   0.147  0.0163  0.3688  0.1710
 3916TIP3    H133163   3.545   1.401   0.202  0.5501  0.7306  0.8207
 3916TIP3    H233164   3.606   1.444   0.070  0.0030  0.0007  0.3236
 3917TIP3   OH233165   4.656   1.201   5.473 -0.8422 -0.3280  0.2070
 3917TIP3    H133166   4.693   1.288   5.486 -2.1389  0.2303  0.3734
 3917TIP3    H233167   4.675   1.181   5.381  1.4018 -0.8681  0.7268
 3918TIP3   OH233168   1.284   1.881   4.837 -0.1706  0.0656 -0.0276
 3918TIP3    H133169   1.303   1.942   4.908 -0.0583 -1.7179  1.5607
 3918TIP3    H233170   1.365   1.830   4.826  0.1721  0.9459 -2.1821
 3919TIP3   OH233171   5.745   1.435  13.578 -0.5769  0.2332 -0.1527
 3919TIP3    H133172   5.686   1.441  13.503 -0.9488 -1.0139  0.0206
 3919TIP3    H233173   5.830   1.465  13.545 -0.8248  0.0353 -0.9799
 3920TIP3   OH233174   5.838   1.460   1.439 -0.5580  0.1127 -0.3503
 3920TIP3    H133175   5.842   1.522   1.366 -0.0934  0.7042  0.1676
 3920TIP3    H233176   5.920   1.412   1.433  0.1332  1.1222  0.5978
 3921TIP3   OH233177   4.325   6.471  10.963  0.3872  0.1253 -0.0939
 3921TIP3    H133178   4.246   6.467  10.910 -0.2589  0.0998  0.8388
 3921TIP3    H233179   4.306   6.416  11.039  1.3991 -0.0832  0.0302
 3922TIP3   OH233180   4.049   3.399   5.221  0.1862 -0.1567 -0.2157
 3922TIP3    H133181   3.975   3.340   5.217 -0.9913  1.3142 -0.9576
 3922TIP3    H233182   4.082   3.390   5.311 -3.0008  1.6021  1.2655
 3923TIP3   OH233183   5.884   5.036   0.154  0.6572  0.0160 -0.1233
 3923TIP3    H133184   5.923   4.974   0.215  0.6751  0.2028  0.0568
 3923TIP3    H233185   5.831   5.094   0.210  1.2005  0.5975 -0.2055
 3924TIP3   OH233186   0.120   0.405   0.808 -0.1228 -0.2785 -0.5913
 3924TIP3    H133187   0.185   0.374   0.745  2.4710 -0.1556  1.8008
 3924TIP3    H233188   0.116   0.500   0.794  0.5156 -0.2412 -0.5341
 3925TIP3   OH233189   2.004   1.040  12.420  0.0907 -0.3438 -0.0457
 3925TIP3    H133190   1.944   1.106  12.454  0.8560  0.9896 -1.2046
 3925TIP3    H233191   2.081   1.047  12.476 -1.4243 -3.4705  2.8032
 3926TIP3   OH233192   5.136   3.920  16.290 -0.1955  0.2888  0.4098
 3926TIP3    H133193   5.174   3.836  16.263 -0.7854  0.0181  0.4112
 3926TIP3    H233194   5.144   3.921  16.385  0.9855  0.8085  0.3202
 3927TIP3   OH233195   5.306   2.826  16.269 -0.1902  0.1062  0.6074
 3927TIP3    H133196   5.381   2.770  16.248 -1.6570 -1.2772 -1.2631
 3927TIP3    H233197   5.333   2.914  16.242  0.6783 -0.4021 -0.2236
 3928TIP3   OH233198   3.948   6.175  17.123  0.1307  0.2656 -0.2062
 3928TIP3    H133199   4.014   6.174  17.054 -1.2391  0.8804 -1.5869
 3928TIP3    H233200   3.969   6.253  17.175  2.3388 -1.2454  1.3556
 3929TIP3   OH233201   6.337   6.315  15.708 -0.1097  0.0110 -0.0344
 3929TIP3    H133202   6.354   6.232  15.663 -0.5429 -0.4944  0.7156
 3929TIP3    H233203   6.254   6.345  15.672  1.2125  1.4301 -2.1643
 3930TIP3   OH233204   6.048   5.033   4.584  0.1086 -0.2050  0.0695
 3930TIP3    H133205   6.119   5.097   4.585 -1.9421  2.2999 -1.2322
 3930TIP3    H233206   6.009   5.042   4.497 -0.7813 -2.7212  0.1239
 3931TIP3   OH233207   5.729   5.074   3.016  0.2522 -0.2639  0.0605
 3931TIP3    H133208   5.729   5.125   3.097  1.3164  0.1354 -0.1630
 3931TIP3    H233209   5.809   5.022   3.021 -0.1610 -0.9449 -0.3131
 3932TIP3   OH233210   2.251   0.757  14.607  0.1874 -0.2750 -1.4093
 3932TIP3    H133211   2.338   0.748  14.646 -0.0174  0.8901 -0.6014
 3932TIP3    H233212   2.242   0.682  14.549  1.5310 -0.6843 -1.1201
 3933TIP3   OH233213   4.410   5.449  13.005  0.2966  0.5860  0.4620
 3933TIP3    H133214   4.317   5.438  12.983  0.7565 -0.5196 -0.9911
 3933TIP3    H233215   4.413   5.437  13.100 -0.6530 -2.4399  0.2089
 3934TIP3   OH233216   1.911   1.779   4.835  0.2434  0.1953  0.2139
 3934TIP3    H133217   1.891   1.707   4.775 -0.9538  0.1820  0.5880
 3934TIP3    H233218   1.832   1.835   4.832  0.5532  0.6945  1.0427
 3935TIP3   OH233219   6.163   2.426  13.550  0.2253 -0.4032  0.1099
 3935TIP3    H133220   6.219   2.503  13.545 -0.5413  0.2255  0.8958
 3935TIP3    H233221   6.137   2.409  13.459 -1.2740  1.5502  0.0978
 3936TIP3   OH233222   3.121   0.140   4.613 -0.3547  0.1462 -0.2519
 3936TIP3    H133223   3.064   0.063   4.609  1.9427 -1.7561  1.2087
 3936TIP3    H233224   3.162   0.144   4.527  0.1792 -0.8327 -0.0511
 3937TIP3   OH233225   0.172   6.259   0.867 -0.0635  0.3715  0.1013
 3937TIP3    H133226   0.187   6.166   0.849 -0.7862  0.2544  0.0849
 3937TIP3    H233227   0.096   6.282   0.813  0.1906  1.0023  0.0104
 3938TIP3   OH233228   1.567   3.839  11.607 -0.2656  0.3007 -0.0957
 3938TIP3    H133229   1.502   3.779  11.572 -2.2783  2.3940 -0.1683
 3938TIP3    H233230   1.527   3.876  11.685  1.0376  1.3137  0.1357
 3939TIP3   OH233231   0.308   0.934  14.503 -0.4799 -0.1763  0.5963
 3939TIP3    H133232   0.378   0.956  14.564 -0.1577 -0.0634  0.1931
 3939TIP3    H233233   0.287   1.017  14.459  1.5633 -0.8065 -1.7971
 3940TIP3   OH233234   2.953   6.666   4.624 -0.0994  0.1055 -0.1658
 3940TIP3    H133235   2.915   6.645   4.538  0.0213 -0.8083 -0.0016
 3940TIP3    H233236   2.923   6.596   4.682  0.1671  0.4892  0.4468
 3941TIP3   OH233237   0.924   2.715   0.215 -0.5142 -0.0922  0.4380
 3941TIP3    H133238   0.902   2.764   0.137 -1.1657 -0.1735  0.5599
 3941TIP3    H233239   0.866   2.750   0.283  0.0385 -0.0243  0.8827
 3942TIP3   OH233240   6.295   3.259   0.633 -0.4104  0.3879  0.0021
 3942TIP3    H133241   6.306   3.170   0.600  0.9495  0.8891 -1.0367
 3942TIP3    H233242   6.248   3.305   0.564 -1.2813  0.4426  0.6175
 3943TIP3   OH233243   0.888   2.219   5.523  0.4095  0.6958  0.1023
 3943TIP3    H133244   0.950   2.248   5.455  0.2423 -3.1719 -2.0168
 3943TIP3    H233245   0.803   2.251   5.492  0.5258  0.2434 -0.7221
 3944TIP3   OH233246   3.439   2.800   4.514 -0.3939  0.4388 -0.1590
 3944TIP3    H133247   3.346   2.777   4.506  0.0330 -1.3294 -0.5110
 3944TIP3    H233248   3.440   2.875   4.574 -2.0550  0.6575 -0.3481
 3945TIP3   OH233249   2.635   5.923  12.345 -0.3265 -0.4849  0.8389
 3945TIP3    H133250   2.664   5.882  12.264  0.5944 -0.9310  1.3741
 3945TIP3    H233251   2.683   5.876  12.414  0.0267  0.8686  1.5380
 3946TIP3   OH233252   0.636   6.166  11.585  0.6154 -0.0696  0.2412
 3946TIP3    H133253   0.650   6.252  11.546 -1.2503 -0.4396 -1.4054
 3946TIP3    H233254   0.663   6.176  11.676  0.4720  2.2561  0.0775
 3947TIP3   OH233255   3.873   1.253  16.937 -0.2848  0.2706  0.0857
 3947TIP3    H133256   3.794   1.246  16.884  0.2208 -0.7553 -0.5525
 3947TIP3    H233257   3.923   1.174  16.917  1.1426  1.1425  0.0862
 3948TIP3   OH233258   3.492   6.441  16.688 -0.3776  0.2046 -0.1799
 3948TIP3    H133259   3.523   6.510  16.629 -0.9145  1.1650  0.6286
 3948TIP3    H233260   3.543   6.454  16.768 -0.8259 -0.0371  0.1503
 3949TIP3   OH233261   4.006   5.308   3.149  0.1412 -0.1348 -0.0165
 3949TIP3    H133262   3.952   5.278   3.076  1.1883 -0.9707 -0.4785
 3949TIP3    H233263   4.026   5.399   3.128 -0.1551 -0.1538 -0.4032
 3950TIP3   OH233264   5.830   3.555  12.790 -0.0406  0.6596 -0.3587
 3950TIP3    H133265   5.737   3.577  12.781 -0.4127 -0.9528 -0.7385
 3950TIP3    H233266   5.845   3.488  12.723  0.4207 -1.9842  2.2090
 3951TIP3   OH233267   3.270   3.927   3.116  0.3302 -0.5760 -0.1715
 3951TIP3    H133268   3.306   3.928   3.028  1.4149 -0.5556  0.2543
 3951TIP3    H233269   3.282   4.016   3.148  0.9684 -0.8566  0.3923
 3952TIP3   OH233270   6.708   2.749   1.826 -0.2677  0.4301 -0.2019
 3952TIP3    H133271   6.615   2.770   1.839  0.0052  0.9032  1.0976
 3952TIP3    H233272   6.719   2.747   1.731 -1.9050 -0.9824 -0.4145
 3953TIP3   OH233273   3.434   1.472  12.251  0.2771 -0.3388 -0.5092
 3953TIP3    H133274   3.372   1.488  12.180 -1.4094 -2.3030  0.4369
 3953TIP3    H233275   3.400   1.522  12.325  0.6017 -0.3359 -0.3572
 3954TIP3   OH233276   0.071   3.415   1.490 -0.0391  0.0934  0.0037
 3954TIP3    H133277   0.049   3.442   1.579 -1.5960 -1.8232  0.2953
 3954TIP3    H233278   0.115   3.330   1.501  1.7504  0.8422 -0.9803
 3955TIP3   OH233279   2.928   0.923  16.926 -0.0334 -0.0533  0.1142
 3955TIP3    H133280   2.866   0.851  16.932  0.5091 -0.7106 -1.5884
 3955TIP3    H233281   2.895   0.988  16.987 -0.0657 -2.0511  2.3465
 3956TIP3   OH233282   2.694   2.837   1.388  0.2566 -0.4136  0.0297
 3956TIP3    H133283   2.603   2.823   1.414  0.4182  0.2003  0.9661
 3956TIP3    H233284   2.736   2.873   1.466  0.9617  0.6667 -0.8273
 3957TIP3   OH233285   0.692   2.865  13.351 -0.2177  0.7539  0.1537
 3957TIP3    H133286   0.725   2.891  13.265 -0.5004 -0.4803 -0.3466
 3957TIP3    H233287   0.761   2.810  13.388 -0.5481  0.4091  0.2663
 3958TIP3   OH233288   6.645   4.741   0.311  0.4071  0.0327 -0.1251
 3958TIP3    H133289   6.635   4.673   0.378 -1.4199  1.7255  1.4634
 3958TIP3    H233290   6.562   4.740   0.264  0.1760  1.3910  0.2043
 3959TIP3   OH233291   1.514   4.537   0.860  0.0320 -0.4388  0.2530
 3959TIP3    H133292   1.447   4.490   0.910 -0.2881 -1.4013 -1.0300
 3959TIP3    H233293   1.465   4.582   0.791  0.4138  1.2741  1.0707
 3960TIP3   OH233294   3.882   2.055  15.867  0.0481 -0.6327  0.2527
 3960TIP3    H133295   3.902   2.063  15.961 -0.7167  1.3418  0.2968
 3960TIP3    H233296   3.825   1.978  15.861 -1.8538  0.5784  1.7786
 3961TIP3   OH233297   2.916   1.377   0.131 -0.2357  0.5809 -0.1651
 3961TIP3    H133298   2.838   1.364   0.185  1.0998  0.9989  1.9498
 3961TIP3    H233299   2.927   1.472   0.129 -0.1079  0.5617 -1.0192
 3962TIP3   OH233300   0.258   3.017  17.181  0.1070 -0.2974  0.0442
 3962TIP3    H133301   0.342   2.971  17.186  1.3259  1.7671  0.0708
 3962TIP3    H233302   0.269   3.077  17.107 -2.2607 -1.5962 -1.4823
 3963TIP3   OH233303   4.477   2.085  12.304 -0.3466 -0.2383  0.4010
 3963TIP3    H133304   4.404   2.029  12.280 -1.9936  1.7028  0.5739
 3963TIP3    H233305   4.491   2.141  12.227  0.5043 -0.1274  0.6220
 3964TIP3   OH233306   4.011   3.509  16.951  0.4079 -0.7287  0.1339
 3964TIP3    H133307   4.102   3.521  16.978  1.0700  1.7000 -2.6416
 3964TIP3    H233308   3.963   3.575  17.001  0.9642  0.9539 -1.4326
 3965TIP3   OH233309   4.673   6.184  12.668  0.2505  0.1569  0.1293
 3965TIP3    H133310   4.676   6.271  12.708  0.0429  1.0175 -1.6315
 3965TIP3    H233311   4.609   6.136  12.720 -1.6821  1.9459 -0.4386
 3966TIP3   OH233312   3.005   0.290   1.398 -0.3019  0.5104  0.2871
 3966TIP3    H133313   2.925   0.259   1.356  0.1781 -1.0066  0.4620
 3966TIP3    H233314   2.976   0.326   1.482 -0.8233  0.1273  0.2754
 3967TIP3   OH233315   0.623   0.004  13.672 -0.2938  0.0899  0.2397
 3967TIP3    H133316   0.656   0.078  13.621 -0.5694 -0.5496 -0.8880
 3967TIP3    H233317   0.528   0.016  13.672 -0.3107 -0.0449  0.3976
 3968TIP3   OH233318   2.111   6.485   4.132  0.2116  0.4583 -0.7759
 3968TIP3    H133319   2.046   6.425   4.094  0.7440 -0.4053 -0.3447
 3968TIP3    H233320   2.064   6.568   4.143 -0.7838 -0.1297 -0.5547
 3969TIP3   OH233321   1.189   5.449  12.453 -0.9949 -0.0960  0.1849
 3969TIP3    H133322   1.281   5.445  12.425 -1.0180  2.4046 -0.4130
 3969TIP3    H233323   1.149   5.370  12.415  0.3553  0.0424 -1.6431
 3970TIP3   OH233324   2.739   4.547  14.951 -0.0336  0.6339 -0.0564
 3970TIP3    H133325   2.742   4.466  15.003  2.0166  1.0121  0.4821
 3970TIP3    H233326   2.791   4.610  15.001 -1.4790  2.2894 -0.5241
 3971TIP3   OH233327   3.715   2.493  17.047 -0.1486 -0.1319 -0.0488
 3971TIP3    H133328   3.729   2.587  17.039 -1.8632  0.0445 -1.9859
 3971TIP3    H233329   3.719   2.475  17.141 -1.0264  2.0894  0.4721
 3972TIP3   OH233330   4.762   0.985   2.813 -0.0613 -0.1657  0.7544
 3972TIP3    H133331   4.780   0.901   2.771  1.3571  1.2574 -1.7388
 3972TIP3    H233332   4.699   1.028   2.755 -1.0013  0.3916  2.1557
 3973TIP3   OH233333   6.403   2.196  16.269 -0.7300  0.8439 -0.7160
 3973TIP3    H133334   6.434   2.106  16.283  0.3479  1.0686 -1.4850
 3973TIP3    H233335   6.381   2.228  16.356 -0.4969  0.0511 -0.3573
 3974TIP3   OH233336   4.213   3.068  16.297 -0.4125 -0.1187 -0.3965
 3974TIP3    H133337   4.204   2.983  16.253 -0.4106  0.1783 -0.9821
 3974TIP3    H233338   4.176   3.054  16.384  1.1189 -1.1863  0.1241
 3975TIP3   OH233339   4.589   4.632  12.985  0.4137  0.5493 -0.1518
 3975TIP3    H133340   4.554   4.666  13.068 -1.4639  0.4175 -0.8347
 3975TIP3    H233341   4.671   4.589  13.010 -0.7633 -0.6865  1.8874
 3976TIP3   OH233342   5.447   1.166   3.164 -0.2624 -0.4083  0.1372
 3976TIP3    H133343   5.365   1.175   3.115 -0.1104  1.3141  0.1267
 3976TIP3    H233344   5.499   1.105   3.112 -0.3563  0.8800 -1.5685
 3977TIP3   OH233345   2.321   1.552  13.256  0.0558 -0.0788 -0.0622
 3977TIP3    H133346   2.298   1.509  13.339  1.0306 -1.2956 -0.4008
 3977TIP3    H233347   2.243   1.543  13.202 -0.5037  0.5109  0.6212
 3978TIP3   OH233348   3.182   2.291  14.391 -0.3009 -0.1116 -0.2069
 3978TIP3    H133349   3.148   2.303  14.303 -1.7799  0.7403  0.4423
 3978TIP3    H233350   3.264   2.243  14.379 -0.2444  0.3773 -2.0641
 3979TIP3   OH233351   3.348   1.798   2.343  0.5583 -0.3048 -0.2155
 3979TIP3    H133352   3.336   1.766   2.432 -0.0007  3.4367  1.2409
 3979TIP3    H233353   3.388   1.725   2.296 -0.1820 -2.8168  2.7515
 3980TIP3   OH233354   3.788   0.918   0.983 -0.1910 -0.3061 -0.0144
 3980TIP3    H133355   3.831   0.957   1.059 -0.4888  0.3085 -0.1577
 3980TIP3    H233356   3.860   0.897   0.923  0.4316 -3.6762  1.6442
 3981TIP3   OH233357   0.909   5.659   1.098  0.4809 -0.4044 -0.3022
 3981TIP3    H133358   0.908   5.622   1.186  0.4512 -1.8623 -0.8889
 3981TIP3    H233359   0.999   5.644   1.068 -0.1275 -2.1582 -1.3932
 3982TIP3   OH233360   3.422   6.050   5.100  0.1851  0.5652  0.7793
 3982TIP3    H133361   3.496   6.086   5.051  0.4927  0.1552  0.9383
 3982TIP3    H233362   3.462   6.010   5.177 -0.0029 -1.2327 -0.0063
 3983TIP3   OH233363   0.632   6.101  14.987 -0.2489  0.3895 -0.0794
 3983TIP3    H133364   0.558   6.151  15.022  0.1061  1.6437 -1.0307
 3983TIP3    H233365   0.690   6.089  15.063 -0.5334  1.0795  0.2597
 3984TIP3   OH233366   3.939   6.431   2.564  0.2152 -0.4000 -0.0838
 3984TIP3    H133367   3.987   6.481   2.498 -0.6160 -0.1397 -0.5051
 3984TIP3    H233368   4.006   6.406   2.628  1.3632 -2.1336 -1.8517
 3985TIP3   OH233369   3.500   3.442  16.486  0.1246 -0.4487  0.6347
 3985TIP3    H133370   3.499   3.532  16.455 -0.8529 -0.3307  0.9733
 3985TIP3    H233371   3.415   3.430  16.527 -1.1985 -2.5603 -2.3440
 3986TIP3   OH233372   5.586   3.218   5.278 -0.1488 -0.4989 -1.1656
 3986TIP3    H133373   5.558   3.139   5.325 -1.8812  0.9714  0.4039
 3986TIP3    H233374   5.505   3.256   5.244  0.3902  1.6458 -0.1799
 3987TIP3   OH233375   6.286   3.896  15.603 -0.3180  0.4360  0.3691
 3987TIP3    H133376   6.209   3.841  15.606 -0.4401  0.6051  0.3719
 3987TIP3    H233377   6.276   3.948  15.522  0.7555 -0.9278 -0.6876
 3988TIP3   OH233378   5.442   6.569  10.895 -0.1533 -0.2046  0.1955
 3988TIP3    H133379   5.357   6.611  10.888  0.8606  1.7375 -1.3766
 3988TIP3    H233380   5.426   6.478  10.872 -1.6560  0.3206 -0.9514
 3989TIP3   OH233381   1.177   2.725   4.618 -0.3938 -0.2618  0.3835
 3989TIP3    H133382   1.130   2.651   4.657 -0.2711 -0.2424  0.5686
 3989TIP3    H233383   1.261   2.727   4.664 -0.1566 -0.3747 -0.0361
 3990TIP3   OH233384   1.526   0.245  13.605  0.0252  0.1343 -0.1001
 3990TIP3    H133385   1.477   0.327  13.601  1.7670  1.2189 -0.2117
 3990TIP3    H233386   1.545   0.224  13.514  4.0656  2.5371 -0.0632
 3991TIP3   OH233387   3.218   1.569   0.958 -0.2386 -0.9147  0.5397
 3991TIP3    H133388   3.314   1.574   0.960 -0.2749  0.9292 -0.0827
 3991TIP3    H233389   3.193   1.544   1.047  0.8158 -1.5572  0.6690
 3992TIP3   OH233390   1.139   3.284  16.207  0.0158 -0.0079  0.3567
 3992TIP3    H133391   1.069   3.245  16.259  1.4280 -1.3492  1.3304
 3992TIP3    H233392   1.101   3.295  16.120 -0.7383 -2.9174  0.2172
 3993TIP3   OH233393   3.136   4.092  16.830  0.0582  0.1453  0.4536
 3993TIP3    H133394   3.156   4.035  16.904  1.2916  0.1923  0.1744
 3993TIP3    H233395   3.198   4.164  16.837 -0.2421  0.4846 -0.2637
 3994TIP3   OH233396   5.324   2.085  13.003  0.7659  0.7894  0.1497
 3994TIP3    H133397   5.291   2.173  12.982  0.4109  0.9633  1.3141
 3994TIP3    H233398   5.375   2.059  12.927 -0.2138  1.4616 -0.7543
 3995TIP3   OH233399   0.206   0.946   2.848  0.3940  0.6804 -0.3448
 3995TIP3    H133400   0.245   0.870   2.805 -1.0304 -0.4724  0.3213
 3995TIP3    H233401   0.250   0.952   2.932  1.5864  1.5691 -0.9925
 3996TIP3   OH233402   1.592   2.748  16.211 -0.5837 -0.2047 -0.2358
 3996TIP3    H133403   1.589   2.767  16.117 -0.0162  0.6815 -0.0913
 3996TIP3    H233404   1.503   2.766  16.242  0.0061  3.0190 -0.0136
 3997TIP3   OH233405   3.878   4.487   0.547  0.0252 -0.0451 -0.3110
 3997TIP3    H133406   3.897   4.525   0.461  0.7163 -0.4376 -0.3345
 3997TIP3    H233407   3.929   4.406   0.549  1.0280  0.6006  0.9910
 3998TIP3   OH233408   3.824   6.143   3.688  0.6119  0.0019  0.0781
 3998TIP3    H133409   3.838   6.083   3.615  0.8641 -0.4290  0.4685
 3998TIP3    H233410   3.741   6.187   3.668  0.7712  0.0250 -0.5516
 3999TIP3   OH233411   1.598   1.302  14.531 -0.1709  0.4147  0.0261
 3999TIP3    H133412   1.629   1.242  14.462 -2.0158  0.7294 -1.1646
 3999TIP3    H233413   1.518   1.261  14.563 -1.1064  1.8841 -0.3418
 4000TIP3   OH233414   3.414   4.935  15.424 -0.4935 -0.3463  0.1862
 4000TIP3    H133415   3.417   4.854  15.475 -1.6504 -0.0936  0.6688
 4000TIP3    H233416   3.360   4.995  15.475  1.1634  1.1150  0.3407
 4001TIP3   OH233417   1.304   5.936  12.780  0.4117 -1.0936 -0.3768
 4001TIP3    H133418   1.301   5.912  12.688 -0.3381 -1.1742 -0.3366
 4001TIP3    H233419   1.259   5.865  12.825 -0.8910 -0.1516 -0.1509
 4002TIP3   OH233420   1.588   4.303   4.793 -0.3616  0.2725  0.4622
 4002TIP3    H133421   1.495   4.310   4.814  0.0517  0.4248  2.4460
 4002TIP3    H233422   1.631   4.293   4.878  1.4862  0.6794 -0.3736
 4003TIP3   OH233423   6.499   5.394  16.144 -0.2080 -0.2748 -0.5488
 4003TIP3    H133424   6.468   5.303  16.146  0.1713 -0.4020 -0.4442
 4003TIP3    H233425   6.478   5.424  16.055 -1.3568 -0.0973 -0.2383
 4004TIP3   OH233426   3.626   4.290  16.709 -0.2182 -0.0927  0.1689
 4004TIP3    H133427   3.561   4.280  16.779  0.1900  0.9074  0.7306
 4004TIP3    H233428   3.710   4.268  16.751  0.2454  2.0598  0.5031
 4005TIP3   OH233429   0.212   0.677  14.611 -0.0429  0.6006 -0.1232
 4005TIP3    H133430   0.305   0.700  14.623 -0.0358 -0.0296  1.2423
 4005TIP3    H233431   0.182   0.654  14.699 -1.0179 -0.9577 -0.8271
 4006TIP3   OH233432   3.263   2.092  12.355 -0.0381  0.2905  0.0848
 4006TIP3    H133433   3.329   2.024  12.340 -1.4218 -0.9969 -0.3734
 4006TIP3    H233434   3.244   2.086  12.449 -1.3257 -1.1234 -0.2272
 4007TIP3   OH233435   3.353   4.022   1.310 -0.1386 -0.5574  0.5433
 4007TIP3    H133436   3.263   4.040   1.283  0.3396 -0.4225 -1.1064
 4007TIP3    H233437   3.387   3.963   1.242  1.0974 -0.3910  0.9907
 4008TIP3   OH233438   1.455   6.545  15.654  0.9962 -0.1934  0.2019
 4008TIP3    H133439   1.430   6.565  15.744  0.4868 -0.7564  0.1918
 4008TIP3    H233440   1.551   6.547  15.655  1.0057 -0.6115  0.8522
 4009TIP3   OH233441   6.704   4.327   1.079  0.2414 -0.3475  0.3828
 4009TIP3    H133442   6.722   4.420   1.083  1.0844 -0.4353 -0.8135
 4009TIP3    H233443   6.789   4.286   1.064 -0.2184 -1.2398  0.0896
 4010TIP3   OH233444   5.128   1.622  14.702  0.4910  0.6344  0.6748
 4010TIP3    H133445   5.178   1.667  14.770  1.4883  0.6339 -0.0372
 4010TIP3    H233446   5.076   1.557  14.749  0.8961  0.8796  1.4664
 4011TIP3   OH233447   4.537   6.138   3.841  0.2264 -0.3330  0.7517
 4011TIP3    H133448   4.623   6.177   3.823  0.8355 -1.8964  0.0879
 4011TIP3    H233449   4.520   6.083   3.765 -2.6663  1.9985 -0.4706
 4012TIP3   OH233450   2.826   1.623   3.521 -0.1568  0.3826 -0.2890
 4012TIP3    H133451   2.792   1.572   3.595  0.2718  0.1306 -0.2631
 4012TIP3    H233452   2.898   1.674   3.558  0.1610  0.1382 -0.5609
 4013TIP3   OH233453   1.098   4.925   4.084 -0.8924  0.0595 -0.1771
 4013TIP3    H133454   1.046   4.844   4.085 -0.3820 -0.3616 -2.1211
 4013TIP3    H233455   1.142   4.927   4.169 -0.3517 -2.1192 -0.3405
 4014TIP3   OH233456   1.253   4.990  14.415 -0.6686  0.2875 -0.1668
 4014TIP3    H133457   1.309   4.913  14.422 -3.2817 -1.8895 -1.1667
 4014TIP3    H233458   1.226   5.008  14.505 -1.7432 -1.4461 -0.0854
 4015TIP3   OH233459   3.122   3.645   2.940 -0.1494  0.3558  0.1014
 4015TIP3    H133460   3.156   3.661   3.028  0.2648 -0.6174  0.1330
 4015TIP3    H233461   3.193   3.672   2.882  0.3158 -0.7416  0.1366
 4016TIP3   OH233462   0.845   1.185  11.129 -0.2202  0.2982 -0.1441
 4016TIP3    H133463   0.895   1.105  11.111  0.6314  1.1991 -2.0842
 4016TIP3    H233464   0.911   1.248  11.159 -0.5696  0.8008 -0.4232
 4017TIP3   OH233465   4.167   2.506   2.982  0.2093  0.6463  0.1749
 4017TIP3    H133466   4.109   2.472   3.051  0.8178  1.4099  1.0989
 4017TIP3    H233467   4.125   2.480   2.900 -1.3313  0.9943  0.8166
 4018TIP3   OH233468   3.888   2.056   1.446 -0.1270 -0.0881 -0.2058
 4018TIP3    H133469   3.860   2.144   1.422  1.7421  0.4327 -0.5656
 4018TIP3    H233470   3.814   2.000   1.422 -2.0971  1.5345  1.6379
 4019TIP3   OH233471   1.822   6.337   1.870 -0.2019  0.7883 -0.0305
 4019TIP3    H133472   1.912   6.361   1.892  0.2762  0.1809 -1.2556
 4019TIP3    H233473   1.825   6.314   1.777 -1.6088  0.6730 -0.0686
 4020TIP3   OH233474   3.322   3.284   3.984 -0.8386  0.0366 -0.1539
 4020TIP3    H133475   3.371   3.213   4.026  0.3358  1.5506  1.1238
 4020TIP3    H233476   3.233   3.275   4.018 -0.0970  0.7313  2.1249
 4021TIP3   OH233477   0.574   5.083   3.591  0.3386 -0.5924  0.2372
 4021TIP3    H133478   0.538   5.084   3.680 -0.8438  1.0333 -0.2203
 4021TIP3    H233479   0.509   5.129   3.538  1.2615 -1.0762 -1.3938
 4022TIP3   OH233480   4.362   6.579   1.535 -0.1601  0.3832 -0.2139
 4022TIP3    H133481   4.336   6.543   1.450  1.0750  0.7017 -0.7542
 4022TIP3    H233482   4.282   6.577   1.587 -1.0515  0.5602 -1.5146
 4023TIP3   OH233483   0.341   2.293  15.767 -0.4133 -0.0173 -0.2083
 4023TIP3    H133484   0.397   2.215  15.766 -0.3962 -0.0767  1.7932
 4023TIP3    H233485   0.374   2.347  15.695  1.9256 -0.2646  0.5898
 4024TIP3   OH233486   0.454   0.418  11.208  0.1386  0.0272  0.2443
 4024TIP3    H133487   0.387   0.431  11.276 -1.9662  1.3199 -1.9108
 4024TIP3    H233488   0.533   0.458  11.245 -0.8795  0.5469  2.0020
 4025TIP3   OH233489   4.957   1.294  13.822  0.1974 -0.0057  0.0846
 4025TIP3    H133490   4.950   1.200  13.836 -2.3336  0.1074 -0.0177
 4025TIP3    H233491   4.899   1.333  13.888 -0.7435  1.3051 -1.4473
 4026TIP3   OH233492   5.641   1.779   2.723  0.3361  0.3932 -0.4243
 4026TIP3    H133493   5.666   1.714   2.658  1.1746  0.8945 -0.6134
 4026TIP3    H233494   5.651   1.736   2.807 -0.7096 -0.2450 -0.6041
 4027TIP3   OH233495   5.870   6.455  13.276 -0.3300 -0.4133 -0.1069
 4027TIP3    H133496   5.814   6.498  13.341 -1.5717  0.4710 -1.6726
 4027TIP3    H233497   5.822   6.376  13.252  0.2864 -0.9112  0.2601
 4028TIP3   OH233498   6.106   0.088  11.369  0.0340 -0.3570  0.6243
 4028TIP3    H133499   6.153   0.058  11.292 -1.1943 -1.3566  0.2410
 4028TIP3    H233500   6.163   0.154  11.407  0.3183  0.7596 -1.5797
 4029TIP3   OH233501   0.672   0.252  14.241  0.0833  0.0196  0.1761
 4029TIP3    H133502   0.670   0.344  14.213 -0.0813  0.8101  2.5567
 4029TIP3    H233503   0.581   0.225  14.240  0.0770  0.0521 -0.0647
 4030TIP3   OH233504   5.802   4.777  14.685  0.3623 -0.3777 -0.8266
 4030TIP3    H133505   5.892   4.793  14.654  0.7861 -1.1231 -0.0402
 4030TIP3    H233506   5.809   4.695  14.735 -0.2959  0.7242  1.1559
 4031TIP3   OH233507   5.133   1.477  16.264  0.4888  0.0525  0.0227
 4031TIP3    H133508   5.056   1.430  16.234  2.2890 -0.8431 -3.9522
 4031TIP3    H233509   5.099   1.559  16.300 -2.3768 -1.6036  1.3904
 4032TIP3   OH233510   4.273   2.972  11.636 -0.7077  0.0445  0.0191
 4032TIP3    H133511   4.214   2.911  11.591 -0.3206 -0.1880 -0.1704
 4032TIP3    H233512   4.328   3.008  11.567  1.0702 -1.6091  0.5020
 4033TIP3   OH233513   0.451   3.316  14.816 -0.1976 -0.1424 -0.3778
 4033TIP3    H133514   0.464   3.407  14.840  0.0952  0.2024 -1.7470
 4033TIP3    H233515   0.467   3.267  14.896 -0.8733  1.0395  0.5040
 4034TIP3   OH233516   1.597   1.106   6.517  0.2635 -0.2297 -0.3001
 4034TIP3    H133517   1.503   1.118   6.511  0.0743 -1.4013 -0.0090
 4034TIP3    H233518   1.618   1.046   6.446  1.0940  1.4539 -1.5248
 4035TIP3   OH233519   0.915   1.902   0.747  0.3649  0.2064  0.0741
 4035TIP3    H133520   0.866   1.974   0.786 -0.1778 -0.4788  0.6912
 4035TIP3    H233521   1.006   1.933   0.745  0.1749  0.8098  0.5492
 4036TIP3   OH233522   4.858   2.198   4.849  0.4267 -0.1140  0.2439
 4036TIP3    H133523   4.794   2.135   4.815  2.4956 -2.3760  0.2808
 4036TIP3    H233524   4.813   2.282   4.845 -2.5974 -1.5896  0.4519
 4037TIP3   OH233525   1.162   0.976   2.498  0.5687 -0.4625  0.2540
 4037TIP3    H133526   1.220   0.905   2.526  1.4785  0.4919  0.8659
 4037TIP3    H233527   1.205   1.012   2.420 -0.4264 -1.2154 -0.6759
 4038TIP3   OH233528   1.196   3.090  12.341  0.5711  0.2226 -0.5581
 4038TIP3    H133529   1.233   3.161  12.394  2.1284 -0.5394 -0.5661
 4038TIP3    H233530   1.229   3.106  12.253  1.2287 -0.6990 -0.4867
 4039TIP3   OH233531   2.045   0.457   3.795  0.1024 -0.0272  0.1881
 4039TIP3    H133532   2.048   0.533   3.853  2.4751  0.0402  0.0797
 4039TIP3    H233533   2.069   0.491   3.709  1.3959 -0.8747  0.1722
 4040TIP3   OH233534   1.877   0.005  12.846 -0.2262  0.1791  0.0244
 4040TIP3    H133535   1.898   0.007  12.753 -1.8324 -1.3685 -0.4321
 4040TIP3    H233536   1.803   0.065  12.856  2.0575  3.0555  1.0172
 4041TIP3   OH233537   5.163   0.474  11.121 -0.3801  0.0347  0.2326
 4041TIP3    H133538   5.219   0.522  11.182  1.2367  1.1359 -1.9781
 4041TIP3    H233539   5.224   0.427  11.064 -1.6427  1.0226 -2.0924
 4042TIP3   OH233540   3.031   0.167   2.255 -0.0231  0.0236 -0.2270
 4042TIP3    H133541   2.938   0.153   2.272  0.3384 -1.2620  0.8493
 4042TIP3    H233542   3.076   0.108   2.315  1.5264  1.3733  0.0043
 4043TIP3   OH233543   4.843   2.500   3.385  0.5911 -0.4963  0.0720
 4043TIP3    H133544   4.892   2.526   3.463 -0.0329  1.6392 -0.1781
 4043TIP3    H233545   4.756   2.538   3.397  0.8481  0.9715 -2.1873
 4044TIP3   OH233546   2.459   2.010  17.290  0.1751  0.1908  0.4887
 4044TIP3    H133547   2.471   2.042  17.379 -3.0872  1.6310  0.5484
 4044TIP3    H233548   2.395   1.939  17.298  1.7609 -1.4621 -0.5158
 4045TIP3   OH233549   0.980   3.319  15.619  0.9019 -0.2267 -0.0293
 4045TIP3    H133550   0.974   3.276  15.534 -1.5297 -1.6620  0.7720
 4045TIP3    H233551   0.978   3.247  15.682  0.8493  0.8843  1.2883
 4046TIP3   OH233552   6.714   1.067   4.811  0.2818 -0.0108  0.1128
 4046TIP3    H133553   6.709   0.971   4.809  0.4467 -0.0349 -1.8484
 4046TIP3    H233554   6.632   1.095   4.850  0.4033 -0.9443  1.0915
 4047TIP3   OH233555   5.716   3.970   4.075  0.0869 -0.4701  0.3367
 4047TIP3    H133556   5.789   3.922   4.035  0.6324 -0.5736  1.4395
 4047TIP3    H233557   5.702   4.045   4.017 -0.1933 -1.4497 -0.9257
 4048TIP3   OH233558   0.332   6.178   5.634  0.1079 -0.0054 -0.4956
 4048TIP3    H133559   0.366   6.099   5.677  2.2416  0.3179 -1.4445
 4048TIP3    H233560   0.327   6.243   5.704 -1.8619 -0.9677  0.3401
 4049TIP3   OH233561   1.851   1.858  11.163  0.3326  0.3986  0.2236
 4049TIP3    H133562   1.765   1.825  11.190  0.2572  0.6210  0.2557
 4049TIP3    H233563   1.832   1.940  11.116  0.5141  0.3606  0.0834
 4050TIP3   OH233564   0.030   1.900   2.057  0.4184  0.0435 -0.0740
 4050TIP3    H133565   0.028   1.991   2.029  0.9749  1.1680  3.1037
 4050TIP3    H233566   0.109   1.893   2.111 -0.1933 -2.0292  0.6632
 4051TIP3   OH233567   0.610   1.393   1.339 -0.1314 -0.2315  0.1748
 4051TIP3    H133568   0.672   1.320   1.334 -0.6491 -0.5865 -1.7061
 4051TIP3    H233569   0.531   1.355   1.378 -0.5618 -0.8216 -1.2344
 4052TIP3   OH233570   2.666   0.385  16.704 -0.0633 -0.3853  0.2239
 4052TIP3    H133571   2.633   0.458  16.652  1.5953  0.1468 -0.1604
 4052TIP3    H233572   2.749   0.417  16.741  0.2775 -1.7752  0.7512
 4053TIP3   OH233573   4.009   3.973  11.340 -0.4051 -0.4767  0.5802
 4053TIP3    H133574   4.090   3.923  11.332  1.1436  1.8041  1.0229
 4053TIP3    H233575   3.999   3.987  11.434  0.2123  1.4709  0.4071
 4054TIP3   OH233576   5.475   6.676   0.411  0.0353  0.4979  0.3563
 4054TIP3    H133577   5.554   6.649   0.457  0.7144  1.8190  0.0239
 4054TIP3    H233578   5.470   6.618   0.335  0.8052  0.5287  0.2759
 4055TIP3   OH233579   6.051   4.884   2.285 -0.0433  0.2011 -0.0252
 4055TIP3    H133580   6.052   4.965   2.235 -3.1306  0.6190  0.4067
 4055TIP3    H233581   6.140   4.850   2.277  1.2544  3.3875 -0.5548
 4056TIP3   OH233582   2.955   4.494  16.210  1.1040  0.0135 -0.5332
 4056TIP3    H133583   2.924   4.407  16.183  0.5746  0.1386 -0.3520
 4056TIP3    H233584   3.030   4.511  16.154 -0.3428  0.5469 -2.4227
 4057TIP3   OH233585   3.382   2.558   1.204 -0.3014 -0.2351 -0.2314
 4057TIP3    H133586   3.372   2.504   1.126 -0.9587 -0.5879  0.0926
 4057TIP3    H233587   3.415   2.498   1.271  2.7672  0.5473 -0.8422
 4058TIP3   OH233588   3.894   1.466  10.154  0.2653 -0.2459  0.4027
 4058TIP3    H133589   3.936   1.527  10.093 -0.4003  0.5590  0.7397
 4058TIP3    H233590   3.966   1.408  10.183  0.7993  0.0455 -0.3086
 4059TIP3   OH233591   2.047   6.273   1.154 -0.3361  0.8762  0.0824
 4059TIP3    H133592   2.124   6.217   1.147 -1.3252 -0.5304  0.0479
 4059TIP3    H233593   1.979   6.216   1.190 -1.2482  2.2007  0.5238
 4060TIP3   OH233594   1.807   5.376  12.762  1.1250  0.5399 -0.2199
 4060TIP3    H133595   1.757   5.295  12.771  2.8869 -0.5393  0.5481
 4060TIP3    H233596   1.746   5.446  12.784  0.3891 -0.8266  2.5171
 4061TIP3   OH233597   3.282   4.681  14.230 -0.0079 -0.2129  0.2574
 4061TIP3    H133598   3.232   4.759  14.255  0.0499  0.1549 -0.7282
 4061TIP3    H233599   3.254   4.614  14.292 -1.7224 -0.0134 -0.2473
 4062TIP3   OH233600   4.488   3.440  15.825  0.5401  0.0067 -0.4043
 4062TIP3    H133601   4.536   3.396  15.755  0.0883 -0.2979 -0.5300
 4062TIP3    H233602   4.555   3.466  15.888  0.7089 -2.0896  0.3639
 4063TIP3   OH233603   5.780   2.972  15.542 -0.1485  0.1710  0.3134
 4063TIP3    H133604   5.815   3.060  15.560  0.4313  0.1954 -0.8624
 4063TIP3    H233605   5.688   2.987  15.519 -0.4290  0.3103  1.4408
 4064TIP3   OH233606   5.810   5.675   3.569 -0.3085 -0.0365 -0.2441
 4064TIP3    H133607   5.794   5.584   3.596  0.9708 -0.5412 -1.1138
 4064TIP3    H233608   5.886   5.670   3.513 -1.3848  1.3240 -1.9128
 4065TIP3   OH233609   3.811   2.245  12.855 -0.2219  0.1555 -0.8305
 4065TIP3    H133610   3.750   2.310  12.819 -1.5982  0.0176  1.0751
 4065TIP3    H233611   3.757   2.193  12.915  1.8074  0.0712  1.0348
 4066TIP3   OH233612   2.615   1.749   2.173  0.8982  0.4729  0.0583
 4066TIP3    H133613   2.522   1.748   2.196  0.3297  0.5132 -1.9913
 4066TIP3    H233614   2.639   1.656   2.165  0.8256  0.4709 -0.1435
 4067TIP3   OH233615   0.511   5.497   3.497  0.3465 -0.1742 -0.0178
 4067TIP3    H133616   0.531   5.428   3.433  2.4691  2.2648 -2.2335
 4067TIP3    H233617   0.519   5.579   3.448 -1.0825  1.7605  2.6884
 4068TIP3   OH233618   2.082   3.174  15.790 -0.2016 -0.6570  0.0022
 4068TIP3    H133619   2.006   3.116  15.797  0.1525 -1.0806  0.3943
 4068TIP3    H233620   2.059   3.251  15.841 -1.2999  0.2523 -1.7586
 4069TIP3   OH233621   1.002   0.536  11.787  0.9628  0.1103 -0.2422
 4069TIP3    H133622   0.949   0.508  11.713  2.2197 -2.5236 -0.2254
 4069TIP3    H233623   1.073   0.587  11.748  1.3993 -0.9312 -0.8433
 4070TIP3   OH233624   4.283   6.197   3.897 -0.0642 -0.4756  0.0071
 4070TIP3    H133625   4.253   6.256   3.828 -0.3905 -0.4051  0.2053
 4070TIP3    H233626   4.378   6.191   3.884 -0.0752 -0.1827 -0.2281
 4071TIP3   OH233627   2.226   1.389  12.442  0.4351 -0.1006  0.2551
 4071TIP3    H133628   2.158   1.374  12.377 -0.7075 -1.1614  1.6451
 4071TIP3    H233629   2.186   1.448  12.506  0.1153 -2.1885  2.0713
 4072TIP3   OH233630   0.127   3.209   6.321 -0.3696  0.0075 -0.0711
 4072TIP3    H133631   0.197   3.250   6.271 -0.5935  0.3761 -0.0845
 4072TIP3    H233632   0.069   3.281   6.346  0.4762  0.0781  1.9345
 4073TIP3   OH233633   4.908   2.062  16.618  0.5053  0.4671 -0.1622
 4073TIP3    H133634   4.841   1.998  16.594 -0.3586  1.1194  0.4729
 4073TIP3    H233635   4.925   2.045  16.711  0.8262  0.6667 -0.1839
 4074TIP3   OH233636   1.155   6.280   6.075 -0.1406  0.3151  0.9101
 4074TIP3    H133637   1.096   6.237   6.137 -0.8861  0.5363  0.3745
 4074TIP3    H233638   1.150   6.227   5.996 -1.0267  1.3085  0.2610
 4075TIP3   OH233639   6.481   2.629   0.739  0.2883  0.2191  0.4368
 4075TIP3    H133640   6.394   2.622   0.699  0.3980 -0.2756  0.2801
 4075TIP3    H233641   6.530   2.686   0.678 -0.0802  0.9403  0.8033
 4076TIP3   OH233642   2.700   3.135  17.379 -0.1351 -0.6893  0.1410
 4076TIP3    H133643   2.669   3.046  17.398 -0.8323 -0.5165 -0.1543
 4076TIP3    H233644   2.703   3.178  17.464 -2.3210 -0.2118  0.0410
 4077TIP3   OH233645   0.389   1.907  12.254  0.0688  0.4587 -0.5925
 4077TIP3    H133646   0.432   1.992  12.263 -0.4006  0.8707 -2.0354
 4077TIP3    H233647   0.404   1.864  12.338 -0.3438  2.2642  0.4558
 4078TIP3   OH233648   6.032   6.026   1.563 -0.2113 -0.8051  0.4960
 4078TIP3    H133649   6.112   6.051   1.609 -0.6336  0.4092  0.6149
 4078TIP3    H233650   5.961   6.061   1.618 -0.7309  0.8329 -1.1055
 4079TIP3   OH233651   5.328   3.319   5.220 -0.1916  0.0852  0.1014
 4079TIP3    H133652   5.308   3.396   5.274  0.1440  0.4111 -0.2362
 4079TIP3    H233653   5.265   3.323   5.148 -0.3032 -0.0653  0.1909
 4080TIP3   OH233654   5.339   0.227   4.586 -0.2745 -0.3058 -0.1328
 4080TIP3    H133655   5.413   0.250   4.643  0.7401 -0.9302 -1.1522
 4080TIP3    H233656   5.295   0.310   4.569  1.7603  0.5430 -1.6137
 4081TIP3   OH233657   2.993   1.115  12.936 -0.1384  0.0180  0.2877
 4081TIP3    H133658   2.939   1.155  12.867  2.5867 -0.2506 -2.1896
 4081TIP3    H233659   3.021   1.189  12.990 -1.8451  0.3081  0.8383
 4082TIP3   OH233660   2.718   5.782  15.553 -0.5623  0.0276  0.0645
 4082TIP3    H133661   2.798   5.818  15.591 -1.6642  0.9419  1.6581
 4082TIP3    H233662   2.712   5.694  15.590 -0.3427 -0.0082  0.0177
 4083TIP3   OH233663   0.034   4.373   4.531  0.0520  0.3089  0.1214
 4083TIP3    H133664   0.130   4.371   4.534  0.1002  0.4451 -0.9108
 4083TIP3    H233665   0.007   4.296   4.581  0.7300 -0.2061 -0.2729
 4084TIP3   OH233666   1.768   4.546   1.255  0.5930 -0.4820  0.0098
 4084TIP3    H133667   1.848   4.594   1.232  0.4116  0.6064  1.5365
 4084TIP3    H233668   1.707   4.568   1.184  0.8399  0.7561  0.1551
 4085TIP3   OH233669   2.301   4.026  14.995  0.0279  0.4291 -0.6165
 4085TIP3    H133670   2.356   4.044  14.918  0.2761  2.4495 -0.0334
 4085TIP3    H233671   2.300   4.109  15.042 -0.4973 -0.6436  1.3335
 4086TIP3   OH233672   5.445   4.771   5.069  0.6586 -0.6919 -0.0204
 4086TIP3    H133673   5.493   4.757   5.150 -0.6478 -1.2190  0.7013
 4086TIP3    H233674   5.433   4.683   5.033 -1.8443 -0.8912  1.0992
 4087TIP3   OH233675   5.485   4.275  15.869 -0.0310  0.1859  0.4191
 4087TIP3    H133676   5.442   4.227  15.940  1.0193 -0.6473  0.5252
 4087TIP3    H233677   5.541   4.210  15.827  2.6430  1.5746  1.5239
 4088TIP3   OH233678   6.560   3.167   3.695 -0.3094  0.1953 -0.1710
 4088TIP3    H133679   6.539   3.111   3.769  1.1855  0.1845  0.2900
 4088TIP3    H233680   6.476   3.198   3.663 -1.0331 -0.5610  0.9375
 4089TIP3   OH233681   5.147   3.841  11.604 -0.7809 -0.0222  0.4343
 4089TIP3    H133682   5.198   3.836  11.523  0.8363  0.3169  1.4040
 4089TIP3    H233683   5.147   3.751  11.638 -0.1907  0.1183  0.8116
 4090TIP3   OH233684   6.193   0.889  16.659  0.5685 -0.1788  0.4442
 4090TIP3    H133685   6.269   0.852  16.615  0.7981  1.2249 -0.4025
 4090TIP3    H233686   6.139   0.814  16.682  1.0776 -1.0486 -1.0755
 4091TIP3   OH233687   3.854   0.739  10.619 -0.6078 -0.2103  0.4350
 4091TIP3    H133688   3.880   0.819  10.573 -1.3587 -1.0680 -1.6372
 4091TIP3    H233689   3.848   0.673  10.550 -3.0105 -1.3030  1.5597
 4092TIP3   OH233690   5.322   1.474   4.162 -0.0563 -0.5019 -0.5962
 4092TIP3    H133691   5.399   1.488   4.107  0.5852 -1.7209 -0.0592
 4092TIP3    H233692   5.347   1.400   4.219 -1.3002 -0.3448  0.1847
 4093TIP3   OH233693   4.128   4.655  16.465  0.6589  0.1902 -0.5134
 4093TIP3    H133694   4.152   4.584  16.405  0.2330 -0.2980 -0.1261
 4093TIP3    H233695   4.160   4.734  16.423  2.6733 -0.3772 -0.1660
 4094TIP3   OH233696   4.113   5.162  16.967 -0.7592 -0.1832 -0.1680
 4094TIP3    H133697   4.062   5.230  17.011  0.3034  0.6297 -0.1374
 4094TIP3    H233698   4.049   5.112  16.916 -1.8204 -0.3330  1.2734
 4095TIP3   OH233699   2.448   1.475  14.035  0.2542  0.2001 -0.0259
 4095TIP3    H133700   2.520   1.527  14.070  0.8321  0.6670 -1.8032
 4095TIP3    H233701   2.370   1.510  14.078  0.9813  0.1190  1.4422
 4096TIP3   OH233702   2.036   2.722   1.260 -0.5460  0.5377  0.8488
 4096TIP3    H133703   2.037   2.799   1.204  0.2058 -1.2418 -1.7611
 4096TIP3    H233704   1.943   2.704   1.274 -0.7501  1.1143  0.2762
 4097TIP3   OH233705   2.477   2.118   3.263  0.4367  0.8099  0.4920
 4097TIP3    H133706   2.489   2.040   3.208  1.8396 -0.4046  2.4010
 4097TIP3    H233707   2.382   2.124   3.275  0.3407 -1.4041  1.3133
 4098TIP3   OH233708   5.704   5.479   4.482  0.4657 -0.2028 -0.4410
 4098TIP3    H133709   5.636   5.415   4.461 -0.1441  0.1962  0.2576
 4098TIP3    H233710   5.741   5.449   4.565  0.4902  0.1048 -0.3400
 4099TIP3   OH233711   5.884   4.679   3.364 -0.4956 -0.4075 -0.0071
 4099TIP3    H133712   5.851   4.651   3.450 -1.9014 -1.3314 -0.8069
 4099TIP3    H233713   5.825   4.637   3.301  0.2458  0.6000 -1.4234
 4100TIP3   OH233714   4.405   1.294  11.945 -0.3746  0.1731 -0.3011
 4100TIP3    H133715   4.357   1.272  11.866 -1.0924 -1.6555  0.5647
 4100TIP3    H233716   4.340   1.286  12.015  0.0570  2.4671  0.4305
 4101TIP3   OH233717   0.229   5.100  14.802  0.1274  0.0229 -0.3594
 4101TIP3    H133718   0.310   5.077  14.849 -1.2306 -1.4215  1.4001
 4101TIP3    H233719   0.206   5.186  14.837  0.6120  0.2076 -0.4799
 4102TIP3   OH233720   2.031   2.664  16.725 -0.4214  0.6635  0.3244
 4102TIP3    H133721   2.056   2.582  16.682 -1.4480  0.7265 -0.4113
 4102TIP3    H233722   2.009   2.638  16.814 -2.3676 -0.1626 -0.3550
 4103TIP3   OH233723   4.194   2.479   5.140  0.3314 -0.2128 -0.2466
 4103TIP3    H133724   4.162   2.482   5.050 -2.5325  1.2323  0.6881
 4103TIP3    H233725   4.153   2.401   5.177 -1.2754  0.9642  0.6160
 4104TIP3   OH233726   0.446   5.630  14.309 -0.0159 -0.0423 -0.0183
 4104TIP3    H133727   0.371   5.625  14.369 -0.1124 -0.0531 -0.1409
 4104TIP3    H233728   0.479   5.540  14.306 -0.7590 -0.3046 -0.9419
 4105TIP3   OH233729   0.790   3.210  15.241  0.5868  0.5834  0.0907
 4105TIP3    H133730   0.859   3.235  15.180 -0.1127  1.3987 -0.3761
 4105TIP3    H233731   0.824   3.131  15.283  0.9033 -0.2520 -1.6506
 4106TIP3   OH233732   4.684   1.064  13.899 -0.1331  0.1042 -0.7598
 4106TIP3    H133733   4.763   1.010  13.893 -0.1673  0.0331 -0.5633
 4106TIP3    H233734   4.691   1.124  13.825  1.3497  1.7645  0.6280
 4107TIP3   OH233735   4.823   5.777  13.382 -0.7784 -0.2436  0.1413
 4107TIP3    H133736   4.805   5.694  13.338 -0.5239 -0.2760  0.0970
 4107TIP3    H233737   4.838   5.839  13.311  3.2001 -1.0321  0.0704
 4108TIP3   OH233738   4.565   2.839   5.661 -0.5628 -0.4258 -0.2143
 4108TIP3    H133739   4.660   2.847   5.663 -0.2661 -2.4864 -2.3001
 4108TIP3    H233740   4.541   2.817   5.751  1.3419 -3.0710 -0.2614
 4109TIP3   OH233741   5.136   0.975   2.756 -0.5091 -0.2592 -0.9581
 4109TIP3    H133742   5.205   0.908   2.748  1.4468  1.5656 -0.2505
 4109TIP3    H233743   5.074   0.938   2.818  0.9631 -1.1163  0.0793
 4110TIP3   OH233744   1.844   3.346  13.083 -0.0619  0.1723  0.1073
 4110TIP3    H133745   1.876   3.264  13.121  0.6197  0.4464  0.1297
 4110TIP3    H233746   1.913   3.410  13.101 -0.0242  0.4643 -1.0047
 4111TIP3   OH233747   2.312   3.816  16.065 -0.0160 -0.2352  0.3425
 4111TIP3    H133748   2.248   3.746  16.074 -1.1845  0.8367  0.7879
 4111TIP3    H233749   2.279   3.869  15.993  0.0418  0.6454  0.9422
 4112TIP3   OH233750   2.714   2.379  15.349  0.4914 -0.3275 -0.1859
 4112TIP3    H133751   2.737   2.400  15.440  1.7313  0.9172 -0.7529
 4112TIP3    H233752   2.790   2.331  15.315  0.5056  0.1739 -0.8812
 4113TIP3   OH233753   3.252   1.377  15.880 -0.5046  0.1860 -0.0736
 4113TIP3    H133754   3.321   1.336  15.828  0.8998  2.1961  0.0730
 4113TIP3    H233755   3.208   1.304  15.924  2.8548 -1.1270  1.4275
 4114TIP3   OH233756   4.988   2.005   1.233 -0.6040  0.1690  0.0306
 4114TIP3    H133757   5.008   1.920   1.196  0.0965  0.6584 -0.7464
 4114TIP3    H233758   4.898   2.023   1.205 -0.4423  0.0720 -0.5537
 4115TIP3   OH233759   2.838   3.570  16.241  0.2419 -0.7099 -0.2621
 4115TIP3    H133760   2.759   3.573  16.295  0.4522  0.0158  0.0122
 4115TIP3    H233761   2.862   3.477  16.239  0.4783 -0.7069  1.2783
 4116TIP3   OH233762   6.065   4.322  16.584 -0.9163 -0.1852  0.2229
 4116TIP3    H133763   6.044   4.248  16.641  0.2209 -1.7095 -1.2377
 4116TIP3    H233764   6.103   4.387  16.642  0.6771 -1.8939  1.1938
 4117TIP3   OH233765   2.524   1.713  11.514 -0.1719 -0.1252  0.0116
 4117TIP3    H133766   2.572   1.795  11.526  0.2269 -0.1626 -1.2290
 4117TIP3    H233767   2.589   1.652  11.478 -0.9513 -0.3868 -0.9948
 4118TIP3   OH233768   1.842   3.161   3.295 -0.4398  0.2342 -0.4055
 4118TIP3    H133769   1.834   3.082   3.349  0.4083  0.9188  0.7495
 4118TIP3    H233770   1.769   3.216   3.324 -0.8994 -0.0185 -1.0570
 4119TIP3   OH233771   5.465   3.529  11.590  0.6059 -0.1915  0.5112
 4119TIP3    H133772   5.500   3.608  11.548  2.3994 -0.8287  0.7282
 4119TIP3    H233773   5.374   3.552  11.612  0.8277  1.5072 -0.1867
 4120TIP3   OH233774   0.471   5.635   0.182 -0.5765  0.6923  0.5115
 4120TIP3    H133775   0.470   5.717   0.232 -0.1655  0.1904  1.3785
 4120TIP3    H233776   0.458   5.567   0.249 -0.1258  0.0071 -0.0894
 4121TIP3   OH233777   2.545   0.564  17.304 -0.7647 -0.1145 -0.1403
 4121TIP3    H133778   2.592   0.626  17.359 -1.3410 -1.2556  1.7475
 4121TIP3    H233779   2.574   0.478  17.334 -3.3599 -0.8574  0.5362
 4122TIP3   OH233780   1.640   5.325  11.121 -0.0297 -0.2237  0.1991
 4122TIP3    H133781   1.641   5.393  11.054 -0.6892  0.3495  0.7594
 4122TIP3    H233782   1.549   5.295  11.125 -0.3608  0.8584  1.9119
 4123TIP3   OH233783   6.526   1.098   6.185  0.0302  0.2772  0.3342
 4123TIP3    H133784   6.558   1.010   6.165 -0.2812 -0.0049  1.0359
 4123TIP3    H233785   6.451   1.084   6.243  0.9757  1.0423  1.8153
 4124TIP3   OH233786   6.481   4.545  16.229  0.0380 -0.3236  0.0730
 4124TIP3    H133787   6.402   4.592  16.256 -1.1592 -1.0435 -2.0034
 4124TIP3    H233788   6.550   4.611  16.233 -1.0109  0.8180  0.1042
 4125TIP3   OH233789   5.163   1.460  12.409  0.0938  0.3630  0.3001
 4125TIP3    H133790   5.234   1.434  12.350 -0.3331 -0.3613  0.0961
 4125TIP3    H233791   5.187   1.548  12.437 -0.1065  1.0668 -1.6039
 4126TIP3   OH233792   6.677   3.447   4.189  0.1362  0.1686  0.8236
 4126TIP3    H133793   6.747   3.444   4.124 -0.2683 -0.0205  0.3944
 4126TIP3    H233794   6.622   3.372   4.168 -0.2350  0.3584  1.1193
 4127TIP3   OH233795   1.875   5.448  13.458  0.3151  0.1938  0.8501
 4127TIP3    H133796   1.934   5.375  13.477  0.6013  1.0162  3.4515
 4127TIP3    H233797   1.930   5.512  13.412 -0.0324 -1.2629 -1.8176
 4128TIP3   OH233798   1.496   2.272   9.909  0.5787 -0.6237 -0.1193
 4128TIP3    H133799   1.557   2.336   9.946 -0.4250  0.1403  0.2756
 4128TIP3    H233800   1.489   2.204   9.975  1.4370 -1.0064 -0.4158
 4129TIP3   OH233801   5.811   3.776  16.073 -0.1812  0.8160 -0.2882
 4129TIP3    H133802   5.788   3.732  15.991  0.3954 -0.6388  0.2826
 4129TIP3    H233803   5.873   3.844  16.047 -0.6587  0.9350 -1.1498
 4130TIP3   OH233804   5.301   2.279   3.944  0.0221  0.7399  0.1043
 4130TIP3    H133805   5.228   2.334   3.972 -0.9951 -1.1112  1.2831
 4130TIP3    H233806   5.266   2.227   3.872  0.8890  1.3482 -0.7988
 4131TIP3   OH233807   2.442   1.201  12.268 -0.2761  0.3792 -0.1106
 4131TIP3    H133808   2.400   1.283  12.240 -0.3076  0.8081  1.1191
 4131TIP3    H233809   2.441   1.205  12.364  0.8021 -0.5210 -0.0394
 4132TIP3   OH233810   1.376   1.632  14.004  0.3654 -0.2543  0.5592
 4132TIP3    H133811   1.285   1.618  13.978  0.3373  0.0959  0.4683
 4132TIP3    H233812   1.385   1.583  14.086  0.1248 -0.3754  0.5145
 4133TIP3   OH233813   0.266   2.942  12.119 -0.2449 -0.0613  0.5852
 4133TIP3    H133814   0.291   2.881  12.188  2.0544  0.0401 -0.0951
 4133TIP3    H233815   0.170   2.949  12.126 -0.0642  0.4088  4.0993
 4134TIP3   OH233816   5.741   4.777  14.359 -0.4026 -0.1552  0.0075
 4134TIP3    H133817   5.824   4.824  14.360 -0.3506 -0.2546  0.2527
 4134TIP3    H233818   5.682   4.831  14.412 -1.1222  1.0691 -1.8928
 4135TIP3   OH233819   5.836   0.035   0.323  0.2338  0.0162  0.0111
 4135TIP3    H133820   5.833  -0.060   0.321 -1.7380 -0.0614  2.3755
 4135TIP3    H233821   5.762   0.063   0.269 -0.3464  0.1208  0.8403
 4136TIP3   OH233822   0.291   1.781   2.232  0.1543 -0.1092  0.8558
 4136TIP3    H133823   0.359   1.848   2.218 -0.0137 -0.0756  0.1407
 4136TIP3    H233824   0.311   1.714   2.167 -1.6856  0.8531 -0.8171
 4137TIP3   OH233825   3.422   2.756  12.736 -0.6287  0.0910 -0.2400
 4137TIP3    H133826   3.466   2.763  12.821 -0.8402 -0.4126 -0.0806
 4137TIP3    H233827   3.461   2.678  12.696 -1.6746 -0.6362  0.0979
 4138TIP3   OH233828   1.461   3.902  16.565  0.7865  0.5907 -0.0153
 4138TIP3    H133829   1.533   3.887  16.503  0.6985  0.8529 -0.1788
 4138TIP3    H233830   1.451   3.817  16.609 -0.6817 -0.3291 -1.9620
 4139TIP3   OH233831   1.540   0.744  17.363  0.0092  0.0705 -0.4132
 4139TIP3    H133832   1.456   0.784  17.384 -0.1801  1.2407 -2.9695
 4139TIP3    H233833   1.519   0.676  17.299  0.7792 -1.3755  0.8226
 4140TIP3   OH233834   4.710   5.864  11.767 -0.5628 -0.2220 -0.0804
 4140TIP3    H133835   4.622   5.896  11.746 -0.1992  1.0855  0.2964
 4140TIP3    H233836   4.722   5.789  11.709 -1.1507  0.8336 -1.6590
 4141TIP3   OH233837   5.128   4.302   5.215  0.2426 -0.3814  0.1018
 4141TIP3    H133838   5.134   4.308   5.310  0.6488  1.3699  0.0057
 4141TIP3    H233839   5.216   4.324   5.183  0.3376 -1.7719 -0.6715
 4142TIP3   OH233840   3.349   0.917   0.024 -0.4230  0.2484  0.3826
 4142TIP3    H133841   3.313   0.966  -0.050 -1.1603  0.0939  0.6218
 4142TIP3    H233842   3.334   0.825   0.002  1.9385  0.0193 -0.5660
 4143TIP3   OH233843   4.354   3.413  14.570 -0.2819  0.0619 -0.0305
 4143TIP3    H133844   4.378   3.347  14.506 -0.2684  1.2773 -1.3327
 4143TIP3    H233845   4.267   3.388  14.600 -0.1354 -0.7218 -0.2439
 4144TIP3   OH233846   3.495   2.423   1.445  0.3673 -0.0064  0.2872
 4144TIP3    H133847   3.543   2.500   1.476 -1.2984  1.7519 -1.2557
 4144TIP3    H233848   3.447   2.393   1.523  0.0421  1.3317  0.6375
 4145TIP3   OH233849   6.384   2.767  11.885 -0.0033  0.2298 -0.0993
 4145TIP3    H133850   6.357   2.798  11.972  0.9586 -0.2110  0.3688
 4145TIP3    H233851   6.400   2.848  11.835 -2.9113  0.5409 -0.6758
 4146TIP3   OH233852   2.773   0.669  13.009 -0.2371 -0.2821  0.1462
 4146TIP3    H133853   2.748   0.584  13.045  0.2637 -0.3317  0.3891
 4146TIP3    H233854   2.864   0.681  13.036 -0.2952  0.3237  0.1040
 4147TIP3   OH233855   4.109   2.232  16.632  0.3013  0.0428  0.1394
 4147TIP3    H133856   4.117   2.287  16.553  0.8001  0.7722  0.6784
 4147TIP3    H233857   4.100   2.143  16.598  4.2032 -0.1787 -0.7818
 4148TIP3   OH233858   0.086   6.624   5.307  0.2840  0.0513  0.1479
 4148TIP3    H133859   0.007   6.650   5.355 -1.3565 -2.2192 -1.0713
 4148TIP3    H233860   0.054   6.606   5.218  2.1992 -0.8494 -0.4047
 4149TIP3   OH233861   6.687   5.633   0.828 -0.2234 -0.2266 -0.6973
 4149TIP3    H133862   6.639   5.643   0.909  1.7829  0.6362  0.4681
 4149TIP3    H233863   6.654   5.703   0.772  1.1089  1.7572  0.8736
 4150TIP3   OH233864   6.125   5.266  16.588 -0.1850  0.0929 -0.1339
 4150TIP3    H133865   6.051   5.294  16.534 -0.1786 -2.1349 -1.4344
 4150TIP3    H233866   6.086   5.205  16.651  0.6445 -2.4162 -1.8868
 4151TIP3   OH233867   4.121   6.414  16.885 -0.4354 -0.3330 -0.2774
 4151TIP3    H133868   4.211   6.432  16.858  0.2530 -1.2295  1.2721
 4151TIP3    H233869   4.077   6.498  16.879  1.3893  0.9362  2.0402
 4152TIP3   OH233870   1.233   2.142  11.625 -0.0871 -0.2820  0.8382
 4152TIP3    H133871   1.307   2.204  11.628  0.5664 -1.0514  0.8391
 4152TIP3    H233872   1.212   2.135  11.532 -0.3114  0.1045  0.8555
 4153TIP3   OH233873   4.819   4.558   3.819 -0.0737  0.3223 -0.1766
 4153TIP3    H133874   4.756   4.510   3.873  0.8088  0.1860  0.7777
 4153TIP3    H233875   4.766   4.610   3.759 -1.0720 -1.2258 -0.6926
 4154TIP3   OH233876   0.937   5.348   2.019  1.2812  0.6395 -0.3033
 4154TIP3    H133877   1.026   5.325   1.993  2.2232  3.2100  0.3304
 4154TIP3    H233878   0.913   5.421   1.962 -1.0396 -0.8586 -1.4139
 4155TIP3   OH233879   2.793   4.977   5.261 -0.0513 -0.3492 -0.3717
 4155TIP3    H133880   2.865   5.004   5.318  0.0351  0.6348 -0.9247
 4155TIP3    H233881   2.743   5.057   5.245 -0.9683 -0.9224 -0.4221
 4156TIP3   OH233882   3.639   2.326   3.382 -0.4017  0.5303  0.0500
 4156TIP3    H133883   3.587   2.356   3.307  0.6828  0.4994 -0.7434
 4156TIP3    H233884   3.607   2.377   3.456 -0.4007  1.7236 -0.7479
 4157TIP3   OH233885   0.265   5.684   1.589  0.6105  0.1562  0.1237
 4157TIP3    H133886   0.249   5.630   1.512  0.7452 -0.2247  0.3597
 4157TIP3    H233887   0.348   5.651   1.625  0.0843 -0.2982  0.9584
 4158TIP3   OH233888   0.402   5.136   2.358  0.0973 -0.0713  0.1882
 4158TIP3    H133889   0.484   5.181   2.337 -0.5597  1.1982  0.2525
 4158TIP3    H233890   0.340   5.207   2.377 -1.7877 -0.8213 -2.5471
 4159TIP3   OH233891   5.292   6.371   3.402  0.5098  0.0058 -0.0967
 4159TIP3    H133892   5.214   6.425   3.408  1.7900  1.8448  0.9569
 4159TIP3    H233893   5.270   6.292   3.451 -1.5088 -0.7004 -1.9447
 4160TIP3   OH233894   5.860   1.381  17.329 -0.3026  0.7211  0.2829
 4160TIP3    H133895   5.876   1.432  17.249  0.7006 -0.8816 -0.5876
 4160TIP3    H233896   5.765   1.382  17.339 -0.3267  2.4963  0.1333
 4161TIP3   OH233897   4.478   5.834  12.026 -1.0371 -0.0700  0.2015
 4161TIP3    H133898   4.427   5.856  12.104 -1.5587  0.4231 -0.2750
 4161TIP3    H233899   4.480   5.738  12.025 -0.3638 -0.0787  1.2414
 4162TIP3   OH233900   3.211   6.213  12.551 -0.2997 -0.3849  0.9607
 4162TIP3    H133901   3.124   6.177  12.531 -1.3614  0.7218  3.2566
 4162TIP3    H233902   3.233   6.266  12.475 -1.4238 -1.0475  0.1441
 4163TIP3   OH233903   6.042   2.940   4.263  0.2827  0.4064  0.1997
 4163TIP3    H133904   6.080   3.023   4.235 -0.3073  0.3398 -0.8208
 4163TIP3    H233905   5.948   2.954   4.260  0.1521 -0.6023 -0.9565
 4164TIP3   OH233906   3.242   0.091   2.020 -0.0046  0.3591 -0.0148
 4164TIP3    H133907   3.258   0.101   2.114  1.9725 -0.3426 -0.2364
 4164TIP3    H233908   3.302   0.153   1.979  0.4033 -0.5755 -0.8637
 4165TIP3   OH233909   3.717   0.659   3.580  0.1981  0.5640 -0.1119
 4165TIP3    H133910   3.680   0.680   3.666  1.4610  1.6204  0.2154
 4165TIP3    H233911   3.667   0.584   3.549 -1.6794  1.4501  0.6188
 4166TIP3   OH233912   0.079   6.650   3.921 -0.2957  0.3683 -0.1708
 4166TIP3    H133913   0.089   6.737   3.959 -3.0577  0.1709  1.2441
 4166TIP3    H233914   0.046   6.666   3.832  0.9827  0.7298 -0.6100
 4167TIP3   OH233915   1.006   0.238   3.223  0.5815 -0.5853  0.3617
 4167TIP3    H133916   1.076   0.182   3.256  1.8839  0.5543 -0.3748
 4167TIP3    H233917   1.031   0.326   3.250 -1.6086 -0.3322  1.8127
 4168TIP3   OH233918   2.954   4.680  13.616  0.4893  0.4081  0.4388
 4168TIP3    H133919   2.873   4.686  13.666  0.7922  0.8136  0.8819
 4168TIP3    H233920   3.023   4.705  13.677  0.8926  0.6302 -0.0964
 4169TIP3   OH233921   0.697   5.667   6.393  0.2696  0.2901 -0.3532
 4169TIP3    H133922   0.662   5.634   6.476 -1.1365  2.4912  0.0400
 4169TIP3    H233923   0.768   5.607   6.371 -1.3401 -2.2089  0.8040
 4170TIP3   OH233924   5.101   5.640   3.703 -0.6959 -0.4060  0.6063
 4170TIP3    H133925   5.006   5.629   3.709 -0.8624  0.2696 -0.4724
 4170TIP3    H233926   5.134   5.554   3.677 -1.3071 -0.0581 -1.5168
 4171TIP3   OH233927   5.658   2.355   4.919  0.3572 -0.0905 -0.2869
 4171TIP3    H133928   5.588   2.334   4.981  0.6566  1.0662  0.4741
 4171TIP3    H233929   5.637   2.305   4.840 -1.0007 -0.2146  0.1390
 4172TIP3   OH233930   2.525   6.528   2.765 -0.1185  0.1262  0.3261
 4172TIP3    H133931   2.534   6.571   2.851 -1.4581  3.7576 -1.1512
 4172TIP3    H233932   2.614   6.501   2.743  0.5993  0.9914  1.9619
 4173TIP3   OH233933   3.606   5.997   2.299 -0.0134  0.3023 -0.5284
 4173TIP3    H133934   3.571   5.955   2.377 -0.4054 -0.3388 -1.0453
 4173TIP3    H233935   3.571   6.086   2.302  0.5861  0.5248  0.4158
 4174TIP3   OH233936   0.605   4.441   5.721  0.1925  0.1853 -0.6369
 4174TIP3    H133937   0.534   4.397   5.674  0.0660  0.5433 -0.7852
 4174TIP3    H233938   0.561   4.510   5.770  0.2582 -0.4755  0.3860
 4175TIP3   OH233939   2.668   0.071  12.890  0.0820 -0.4441  0.3374
 4175TIP3    H133940   2.743   0.015  12.872  0.0875 -0.0813 -0.8111
 4175TIP3    H233941   2.685   0.152  12.842  0.6365  1.0592  2.8627
 4176TIP3   OH233942   2.957   2.665   5.663  0.6383 -0.1493 -0.0568
 4176TIP3    H133943   3.049   2.661   5.638  0.5365  0.2752 -0.5171
 4176TIP3    H233944   2.943   2.586   5.715  1.4689  0.2232  0.7510
 4177TIP3   OH233945   2.884   1.655  15.972  0.4856 -0.1820  0.0275
 4177TIP3    H133946   2.858   1.699  15.891  1.9987 -0.4709 -0.6602
 4177TIP3    H233947   2.837   1.572  15.970 -2.1605  1.1585  1.1864
 4178TIP3   OH233948   2.110   4.069   3.075  0.1208  1.0305  0.3684
 4178TIP3    H133949   2.181   4.125   3.105 -0.2563  0.8122  1.7203
 4178TIP3    H233950   2.055   4.126   3.022  1.0397  1.3160 -0.3153
 4179TIP3   OH233951   4.330   5.365   2.310  0.4842  0.6775 -0.2803
 4179TIP3    H133952   4.357   5.291   2.365 -0.5623 -0.4142 -1.1749
 4179TIP3    H233953   4.401   5.376   2.247 -0.4156 -1.2570 -1.7394
 4180TIP3   OH233954   4.926   1.471  14.914  0.3384  0.3096 -0.1970
 4180TIP3    H133955   4.892   1.419  14.841  0.4705  0.4516 -0.3594
 4180TIP3    H233956   5.015   1.437  14.928 -0.3847 -1.1590  1.2535
 4181TIP3   OH233957   5.314   3.994   1.739 -0.7248 -0.0090  0.2023
 4181TIP3    H133958   5.384   4.001   1.674  0.7088  0.2804  1.7056
 4181TIP3    H233959   5.268   4.077   1.735 -0.7129 -0.0339 -0.5014
 4182TIP3   OH233960   6.610   5.909  13.628  0.1540  0.6710 -0.4984
 4182TIP3    H133961   6.542   5.845  13.647  2.1617 -1.3559  0.2836
 4182TIP3    H233962   6.642   5.937  13.714  1.9800 -0.3854 -0.7621
 4183TIP3   OH233963   2.084   2.794   3.180 -0.2678  0.0902  0.3676
 4183TIP3    H133964   2.134   2.873   3.199  0.9723  0.1523 -2.5367
 4183TIP3    H233965   2.106   2.733   3.250 -1.0423  2.1497  2.5123
 4184TIP3   OH233966   2.981   1.700  13.001  0.4165 -0.1666  0.1944
 4184TIP3    H133967   2.943   1.754  13.071  1.8257  1.3612 -0.1263
 4184TIP3    H233968   2.907   1.672  12.948 -0.3718  2.0740  0.0002
 4185TIP3   OH233969   6.585   4.804  14.158 -0.0012 -0.1880 -0.4759
 4185TIP3    H133970   6.542   4.722  14.180 -0.4689  0.0679 -0.4158
 4185TIP3    H233971   6.580   4.857  14.238 -1.4586  0.6375 -1.0712
 4186TIP3   OH233972   6.241   2.138  13.290 -0.3205  0.3703  0.8501
 4186TIP3    H133973   6.171   2.074  13.303  0.0280 -0.6982 -1.7362
 4186TIP3    H233974   6.196   2.222  13.282 -1.1006 -0.0062  1.2190
 4187TIP3   OH233975   4.713   5.371   0.210  0.0576 -0.2341 -0.0228
 4187TIP3    H133976   4.654   5.335   0.144  0.1676 -1.2631  0.4237
 4187TIP3    H233977   4.772   5.299   0.231 -0.1636 -0.0219  1.4138
 4188TIP3   OH233978   2.853   0.195  15.461  0.3474  0.1986  0.7138
 4188TIP3    H133979   2.891   0.167  15.377  1.4432  0.9955  0.9263
 4188TIP3    H233980   2.810   0.279  15.441  1.4823  0.9036  1.1367
 4189TIP3   OH233981   5.832   4.621  13.421 -0.4550 -0.7331  0.1062
 4189TIP3    H133982   5.847   4.573  13.340 -0.5972 -0.5666 -0.0190
 4189TIP3    H233983   5.915   4.663  13.440 -1.0989  1.3629 -1.3502
 4190TIP3   OH233984   0.426   6.465   4.545 -0.6015  0.2509  0.2461
 4190TIP3    H133985   0.377   6.385   4.528  2.0814 -1.4950  0.1505
 4190TIP3    H233986   0.432   6.509   4.459 -0.5602 -0.3835 -0.0793
 4191TIP3   OH233987   6.089   5.040  17.354 -0.0261 -0.9049  0.2146
 4191TIP3    H133988   6.004   5.051  17.396  0.0620  0.6320  0.0431
 4191TIP3    H233989   6.145   5.004  17.422 -0.8741 -2.2584  0.2379
 4192TIP3   OH233990   2.010   5.103  11.853  0.2211 -0.0763  0.2546
 4192TIP3    H133991   2.105   5.110  11.863  0.0909  0.4534  1.3129
 4192TIP3    H233992   1.987   5.171  11.789  1.0085 -3.1015 -3.6427
 4193TIP3   OH233993   2.043   2.651   0.276  0.0076 -0.1571 -0.1382
 4193TIP3    H133994   2.028   2.566   0.317  1.0681 -0.1959  0.1757
 4193TIP3    H233995   2.115   2.689   0.325  0.7830  0.1362 -1.4733
 4194TIP3   OH233996   0.124   2.650   4.959 -0.4778  0.0895 -0.6669
 4194TIP3    H133997   0.151   2.558   4.952  0.7180  0.4685 -1.5406
 4194TIP3    H233998   0.143   2.675   5.049  3.2606  0.5858 -1.4131
 4195TIP3   OH233999   1.975   3.098  11.152 -0.0944  0.1270 -0.4078
 4195TIP3    H134000   1.889   3.136  11.170 -0.3382 -1.2894  1.8553
 4195TIP3    H234001   2.037   3.169  11.168 -0.7323  0.5768  0.1348
 4196TIP3   OH234002   3.102   6.412   1.102  0.5481 -0.5091 -0.1285
 4196TIP3    H134003   3.089   6.496   1.057  0.6433 -0.4848 -0.1113
 4196TIP3    H234004   3.149   6.434   1.182  3.1782 -0.8613 -1.4482
 4197TIP3   OH234005   6.026   3.402   1.286  0.3422  0.1074  0.7321
 4197TIP3    H134006   5.951   3.354   1.251  1.2419  1.1508 -3.0806
 4197TIP3    H234007   6.103   3.356   1.252  1.2666  2.1124 -0.1054
 4198TIP3   OH234008   1.781   4.956  15.798 -0.2636 -0.0516  0.2445
 4198TIP3    H134009   1.690   4.934  15.777 -0.2057  0.3494 -0.4483
 4198TIP3    H234010   1.821   4.873  15.820 -0.4853 -0.4154 -0.6719
 4199TIP3   OH234011   5.050   4.560   4.242 -0.5539 -0.8054 -1.1719
 4199TIP3    H134012   5.051   4.616   4.164  0.6273 -3.1304 -2.9927
 4199TIP3    H234013   4.987   4.491   4.220 -0.3383 -1.3967  0.0091
 4200TIP3   OH234014   5.760   5.962  12.606  0.1174  0.1639  0.9707
 4200TIP3    H134015   5.679   6.013  12.596 -1.3345 -2.1434  0.0109
 4200TIP3    H234016   5.786   5.941  12.516  0.2371 -1.3419  1.3272
 4201TIP3   OH234017   4.499   3.830  13.699 -0.2428  0.5294 -0.1574
 4201TIP3    H134018   4.552   3.821  13.778  1.0754 -0.3442 -1.1097
 4201TIP3    H234019   4.426   3.768  13.712  0.4594 -0.2842  0.0072
 4202TIP3   OH234020   4.567   0.044   4.487  0.1154 -0.3275  0.0191
 4202TIP3    H134021   4.628   0.069   4.418  0.7355 -1.7229  0.0453
 4202TIP3    H234022   4.544  -0.047   4.468 -0.1738 -0.5444  1.3072
 4203TIP3   OH234023   3.512   1.684   2.648 -0.2614 -0.0261 -0.6016
 4203TIP3    H134024   3.546   1.697   2.737 -1.3195 -0.9567 -0.0364
 4203TIP3    H234025   3.586   1.649   2.599  0.1063 -0.2898  0.1290
 4204TIP3   OH234026   4.552   4.154   0.225  0.2877 -0.1203 -0.4133
 4204TIP3    H134027   4.494   4.104   0.167  0.4896  0.4565 -1.1296
 4204TIP3    H234028   4.579   4.229   0.172 -0.9147  1.3751  1.0028
 4205TIP3   OH234029   3.914   5.339  15.058 -0.2289  0.0045 -0.0918
 4205TIP3    H134030   3.913   5.433  15.077 -0.5989  0.0733 -0.4356
 4205TIP3    H234031   3.910   5.297  15.144 -1.3620  0.3113  0.0225
 4206TIP3   OH234032   0.070   2.977  16.841 -0.4905 -0.0744 -0.3488
 4206TIP3    H134033   0.038   2.994  16.930  0.4284  2.0106 -0.3334
 4206TIP3    H234034   0.154   2.933  16.854 -0.6684 -0.3632 -0.1919
 4207TIP3   OH234035   2.125   5.910  11.497 -0.1755 -0.4687 -0.7680
 4207TIP3    H134036   2.041   5.947  11.522  0.1520  0.0613 -0.4138
 4207TIP3    H234037   2.113   5.815  11.504 -0.5560 -0.3790 -0.1040
 4208TIP3   OH234038   1.931   1.017   3.128  0.4940 -0.1585 -0.0901
 4208TIP3    H134039   1.846   1.029   3.087  0.6639  0.1870 -0.3453
 4208TIP3    H234040   1.972   1.103   3.123  0.2130  0.0989  1.4979
 4209TIP3   OH234041   6.239   5.507   4.973  0.0362  0.5416  0.5086
 4209TIP3    H134042   6.229   5.523   5.067 -0.1955  1.7721  0.2808
 4209TIP3    H234043   6.171   5.443   4.952 -0.6707  1.1326  0.9569
 4210TIP3   OH234044   4.823   4.684   0.577  0.1189  0.2216 -0.2752
 4210TIP3    H134045   4.855   4.759   0.526 -1.2018  0.9480 -0.0734
 4210TIP3    H234046   4.729   4.700   0.587 -0.4032 -1.9641 -1.0786
 4211TIP3   OH234047   6.584   5.915   0.761 -0.1302 -0.0629  0.1442
 4211TIP3    H134048   6.579   5.967   0.680 -1.4066 -1.0636 -0.4587
 4211TIP3    H234049   6.496   5.918   0.797  0.1393 -0.5968  0.8753
 4212TIP3   OH234050   2.391   1.712   3.976 -0.1093 -0.0302  0.3450
 4212TIP3    H134051   2.360   1.803   3.971 -0.8957 -0.2534  0.9017
 4212TIP3    H234052   2.398   1.695   4.070  2.1291  0.1269  0.2639
 4213TIP3   OH234053   2.763   2.080   3.322 -0.0716 -0.4345 -0.0436
 4213TIP3    H134054   2.669   2.094   3.332 -0.2387 -0.5017 -1.3311
 4213TIP3    H234055   2.770   2.009   3.258  0.8328  0.9270 -1.5584
 4214TIP3   OH234056   6.045   6.557  11.498  0.1248  0.3763  0.0778
 4214TIP3    H134057   6.053   6.632  11.439 -1.3158 -0.6330 -1.4946
 4214TIP3    H234058   6.118   6.501  11.475  2.4535  2.1032  2.6730
 4215TIP3   OH234059   4.431   4.990   3.368 -0.2448 -0.8167 -0.4770
 4215TIP3    H134060   4.374   4.938   3.311 -1.7003  0.2505 -0.0500
 4215TIP3    H234061   4.381   5.069   3.386  2.3860  1.4414 -2.2170
 4216TIP3   OH234062   4.428   3.665   2.602 -0.3368  0.5694 -0.1141
 4216TIP3    H134063   4.509   3.636   2.645 -0.5317  2.3042  1.5352
 4216TIP3    H234064   4.361   3.606   2.637 -0.0800  0.2953 -0.0719
 4217TIP3   OH234065   2.128   2.895  10.994  0.0220  0.8975  0.0027
 4217TIP3    H134066   2.151   2.942  10.913 -0.4459  1.8969  0.4345
 4217TIP3    H234067   2.115   2.964  11.059 -1.9287  0.2518  0.3483
 4218TIP3   OH234068   3.842   2.057   2.931  0.0630 -0.6756  0.0085
 4218TIP3    H134069   3.886   2.061   3.016  1.1721 -2.3012 -0.4468
 4218TIP3    H234070   3.898   2.107   2.872  1.0387 -2.2193 -0.4315
 4219TIP3   OH234071   5.989   0.236   0.973 -0.1464  0.0209 -0.0308
 4219TIP3    H134072   6.063   0.290   0.944 -0.0593 -1.2621 -2.5249
 4219TIP3    H234073   5.912   0.287   0.950 -0.0498 -0.5186 -1.7603
 4220TIP3   OH234074   2.246   0.242  14.864 -0.6700 -0.1329 -0.1221
 4220TIP3    H134075   2.303   0.315  14.839  0.1418 -0.0019  1.8503
 4220TIP3    H234076   2.164   0.284  14.890  0.2571  0.3354  2.3719
 4221TIP3   OH234077   2.592   2.966   5.469 -0.3995 -0.0466  0.1320
 4221TIP3    H134078   2.654   3.032   5.438 -1.3485  0.4746 -0.7045
 4221TIP3    H234079   2.646   2.888   5.484  0.2355 -0.1292 -2.2173
 4222TIP3   OH234080   4.753   0.759   4.760 -0.1504 -0.5087  0.5311
 4222TIP3    H134081   4.708   0.843   4.770  0.3110 -0.1972  0.0656
 4222TIP3    H234082   4.716   0.704   4.828 -2.6594 -0.8860 -1.0023
 4223TIP3   OH234083   4.690   2.638  15.681 -0.5883 -0.0020 -0.9031
 4223TIP3    H134084   4.749   2.637  15.756 -0.5535  1.4284 -0.8962
 4223TIP3    H234085   4.606   2.608  15.716  0.3703 -3.5876 -1.2108
 4224TIP3   OH234086   5.222   3.921   6.253  0.1265 -0.2097 -0.2740
 4224TIP3    H134087   5.302   3.877   6.224 -0.0292 -0.5110 -0.2546
 4224TIP3    H234088   5.181   3.858   6.312 -0.2901 -0.1952 -0.5445
 4225TIP3   OH234089   4.468   4.078   4.761  0.1235  0.5422  0.2582
 4225TIP3    H134090   4.409   4.150   4.782 -0.9826 -0.1784 -0.2633
 4225TIP3    H234091   4.433   4.004   4.811  0.3874  0.0202 -0.3208
 4226TIP3   OH234092   6.207   1.877   2.865  0.2106  0.3308 -0.1868
 4226TIP3    H134093   6.237   1.826   2.940 -0.1312 -0.1362 -0.3600
 4226TIP3    H234094   6.282   1.930   2.840  0.8264 -0.6388 -0.4675
 4227TIP3   OH234095   3.225   3.724  16.013 -0.2079 -0.6195 -0.1768
 4227TIP3    H134096   3.260   3.638  16.037  1.3440  0.3244  1.1646
 4227TIP3    H234097   3.145   3.733  16.064  0.3041 -0.7688  0.6698
 4228TIP3   OH234098   5.317   0.424  14.875  0.2820 -0.5696 -0.0098
 4228TIP3    H134099   5.295   0.439  14.967 -0.6705  3.9945 -0.7613
 4228TIP3    H234100   5.238   0.385  14.838 -1.7488  2.9888  0.1140
 4229TIP3   OH234101   0.495   2.441   1.100 -0.6079 -0.2886 -0.3859
 4229TIP3    H134102   0.431   2.395   1.045  0.8903 -1.7692 -0.9621
 4229TIP3    H234103   0.495   2.531   1.066 -0.5226 -0.8988 -2.0885
 4230TIP3   OH234104   6.448   2.170   0.168  0.3323  0.2795  0.1350
 4230TIP3    H134105   6.440   2.245   0.109 -1.5525 -2.1856 -3.1127
 4230TIP3    H234106   6.539   2.144   0.161  0.3611  0.6190 -0.9609
 4231TIP3   OH234107   0.672   6.117  12.438 -0.1003 -0.0146 -0.3966
 4231TIP3    H134108   0.741   6.147  12.498  0.2560 -1.0274 -0.2845
 4231TIP3    H234109   0.622   6.053  12.489  0.2679 -0.9603 -1.1996
 4232TIP3   OH234110   6.544   3.688  11.718  0.5528  0.0520 -0.6102
 4232TIP3    H134111   6.470   3.627  11.715 -0.3008  1.0230  0.0894
 4232TIP3    H234112   6.508   3.770  11.684  1.3020  0.5583 -0.1980
 4233TIP3   OH234113   1.392   4.082  12.824 -0.2433 -0.2589  0.3863
 4233TIP3    H134114   1.351   4.011  12.776  1.6590 -0.3696 -1.2077
 4233TIP3    H234115   1.458   4.039  12.879  0.7257  0.2295 -0.3775
 4234TIP3   OH234116   6.242   4.235  14.956  0.2603 -0.4519  0.7507
 4234TIP3    H134117   6.197   4.262  15.037 -0.8559 -0.8882  0.2953
 4234TIP3    H234118   6.177   4.250  14.887  1.2231 -0.0342 -0.0784
 4235TIP3   OH234119   3.010   5.524   0.602  0.0984  0.5068 -0.4067
 4235TIP3    H134120   3.079   5.542   0.538  1.1218 -0.3602  0.4289
 4235TIP3    H234121   2.931   5.512   0.548  0.8001  0.4271 -1.4504
 4236TIP3   OH234122   3.857   3.329   0.177  0.7322  0.3135 -0.3415
 4236TIP3    H134123   3.877   3.392   0.246 -0.5484  0.6405 -0.2493
 4236TIP3    H234124   3.861   3.244   0.221 -1.8447  0.6140  0.6369
 4237TIP3   OH234125   5.767   2.143   0.490  0.5706  0.0616  0.2507
 4237TIP3    H134126   5.686   2.095   0.473  1.1601 -0.5317 -1.0426
 4237TIP3    H234127   5.830   2.106   0.428  2.0808 -0.1151  1.8002
 4238TIP3   OH234128   4.518   1.761   2.513  0.3244 -0.2955 -0.2708
 4238TIP3    H134129   4.489   1.845   2.551  0.8527  0.8676 -2.3163
 4238TIP3    H234130   4.584   1.729   2.574 -1.4214 -0.3676  1.7044
 4239TIP3   OH234131   0.435   0.545  15.173 -0.3355  0.0916  1.1288
 4239TIP3    H134132   0.454   0.627  15.218  0.5951  0.1793  0.6038
 4239TIP3    H234133   0.501   0.540  15.104 -1.4929 -0.2338  0.0290
 4240TIP3   OH234134   0.289   4.017   2.617 -0.4176 -0.4724  0.7759
 4240TIP3    H134135   0.224   4.057   2.674 -0.7312  0.9016 -0.4810
 4240TIP3    H234136   0.239   3.985   2.542  0.4362  2.5760 -1.2962
 4241TIP3   OH234137   1.312   4.467   1.435  0.0304  0.1766  0.1599
 4241TIP3    H134138   1.324   4.390   1.491 -0.4979  0.8054  1.1543
 4241TIP3    H234139   1.240   4.443   1.377 -0.4934  0.1105  0.8249
 4242TIP3   OH234140   4.028   2.463  17.021  0.1539  0.5111 -0.3381
 4242TIP3    H134141   3.975   2.536  17.054 -1.3467 -0.6653  0.0155
 4242TIP3    H234142   3.978   2.429  16.947 -0.2302 -1.3509  0.7058
 4243TIP3   OH234143   6.251   1.113   5.451  0.1641 -0.2720  0.4726
 4243TIP3    H134144   6.270   1.023   5.476  0.2050 -0.3589  0.1322
 4243TIP3    H234145   6.157   1.113   5.433  0.1406 -0.2161  0.5886
 4244TIP3   OH234146   5.908   1.667  13.680  0.1677 -0.1985 -0.0955
 4244TIP3    H134147   5.855   1.741  13.651  1.2152  0.4195 -0.5070
 4244TIP3    H234148   5.989   1.674  13.629  0.2630 -1.6737 -0.1919
 4245TIP3   OH234149   5.759   3.174   3.720 -0.7590  0.1220 -0.6208
 4245TIP3    H134150   5.787   3.213   3.637 -0.4914 -0.4104 -0.7856
 4245TIP3    H234151   5.838   3.131   3.754 -1.0590 -0.3230 -0.4751
 4246TIP3   OH234152   4.887   5.459  11.931  0.2450 -0.2936  0.5467
 4246TIP3    H134153   4.826   5.533  11.936  2.4297  1.6819  0.0991
 4246TIP3    H234154   4.880   5.429  11.840  1.4966  1.4814 -0.2156
 4247TIP3   OH234155   6.137   0.344  11.716 -0.2271  0.2633  0.8480
 4247TIP3    H134156   6.185   0.377  11.791  1.0373 -1.2944  0.7728
 4247TIP3    H234157   6.161   0.252  11.710 -0.5213  0.2688 -1.2846
 4248TIP3   OH234158   3.106   2.779   2.407  0.2783 -0.5908 -0.0071
 4248TIP3    H134159   3.086   2.693   2.443  0.7739 -0.4750  0.5780
 4248TIP3    H234160   3.061   2.840   2.465  1.8642 -0.3569  1.0330
 4249TIP3   OH234161   3.031   1.916  15.765  0.1663 -0.8704 -0.2318
 4249TIP3    H134162   3.074   1.890  15.846 -1.2189 -0.6292  0.6105
 4249TIP3    H234163   3.089   1.982  15.727 -1.5243  3.0959  3.2785
 4250TIP3   OH234164   5.258   1.238  16.363  0.5056  0.2582 -0.2135
 4250TIP3    H134165   5.213   1.207  16.442  1.6833 -0.7792  0.0763
 4250TIP3    H234166   5.244   1.333  16.364 -1.2877  0.0349  0.0776
 4251TIP3   OH234167   5.363   0.632   1.011  0.2919  0.3664 -0.7507
 4251TIP3    H134168   5.373   0.567   1.080  3.3230  1.2296 -0.2655
 4251TIP3    H234169   5.368   0.581   0.930  2.2881 -0.1327 -0.3735
 4252TIP3   OH234170   2.127   1.963   4.903  0.0718 -0.2059  0.2812
 4252TIP3    H134171   2.176   2.008   4.971 -0.4338 -0.7847  1.0396
 4252TIP3    H234172   2.076   1.896   4.949  1.8105 -2.5083 -0.9158
 4253TIP3   OH234173   4.096   4.288   4.026 -0.1655 -0.2563 -0.1344
 4253TIP3    H134174   4.065   4.301   4.115 -1.2633  0.5568 -0.6182
 4253TIP3    H234175   4.087   4.194   4.010  0.8772 -0.5498  0.8907
 4254TIP3   OH234176   3.730   5.796   5.969  0.2953 -0.0591 -0.3294
 4254TIP3    H134177   3.707   5.758   6.054  2.1218  1.8056  1.1169
 4254TIP3    H234178   3.819   5.764   5.952  0.8804  1.4292 -0.2926
 4255TIP3   OH234179   0.049   1.312  14.306  0.3541 -0.3898  0.3004
 4255TIP3    H134180   0.006   1.398  14.312  0.0217 -0.6519  3.2788
 4255TIP3    H234181   0.075   1.304  14.214 -2.3293  1.5541 -0.7510
 4256TIP3   OH234182   5.087   1.646  12.108  0.1596 -0.7065  0.3811
 4256TIP3    H134183   5.015   1.703  12.080 -0.4308 -1.3286  0.5869
 4256TIP3    H234184   5.165   1.700  12.101 -0.2706 -0.1565 -0.2885
 4257TIP3   OH234185   0.888   2.414   0.152 -0.6578  0.3704  0.8043
 4257TIP3    H134186   0.868   2.507   0.162 -0.7912  0.3509  0.7280
 4257TIP3    H234187   0.804   2.374   0.130 -0.7260  0.1374  1.4596
 4258TIP3   OH234188   2.397   5.063   4.716 -0.6528 -0.6031 -0.7277
 4258TIP3    H134189   2.402   5.112   4.798 -1.8327 -0.7035 -0.5779
 4258TIP3    H234190   2.414   5.129   4.648 -2.2301  0.0499 -0.5311
 4259TIP3   OH234191   2.399   0.957  14.888  0.4296 -0.4267 -0.2043
 4259TIP3    H134192   2.436   1.026  14.834  2.7903 -0.3280  1.3704
 4259TIP3    H234193   2.315   0.992  14.918  1.0699  1.3159 -0.3290
 4260TIP3   OH234194   5.902   5.771   0.392  0.2411  0.1110 -0.1962
 4260TIP3    H134195   5.896   5.865   0.408  0.0825 -0.0061  0.4527
 4260TIP3    H234196   5.932   5.764   0.301  1.6848  0.8029  0.1985
 4261TIP3   OH234197   2.994   0.816  17.210  0.0664  0.3605 -0.0205
 4261TIP3    H134198   2.902   0.806  17.182 -0.6071  2.5780  1.1305
 4261TIP3    H234199   3.030   0.882  17.150  0.0554  1.5276  1.2172
 4262TIP3   OH234200   4.030   0.241   4.254  0.0657  0.3649  0.0247
 4262TIP3    H134201   3.945   0.282   4.236  0.0530  0.3914  0.1389
 4262TIP3    H234202   4.061   0.285   4.333 -0.3360 -0.4067  0.6429
 4263TIP3   OH234203   3.823   4.675   1.776  0.3162 -0.6175  0.3250
 4263TIP3    H134204   3.901   4.624   1.751 -0.5158 -1.2010 -1.2040
 4263TIP3    H234205   3.804   4.729   1.699 -0.3272  0.1206  0.9839
 4264TIP3   OH234206   6.499   5.101   6.472 -0.0553 -0.4373  0.0084
 4264TIP3    H134207   6.532   5.013   6.493 -0.0911 -0.2064  1.0899
 4264TIP3    H234208   6.406   5.087   6.453 -0.3652 -0.4809  1.4452
 4265TIP3   OH234209   6.291   4.600   0.110  0.3618  0.3212  0.6015
 4265TIP3    H134210   6.249   4.627   0.028  0.0149  3.0744  1.5957
 4265TIP3    H234211   6.384   4.615   0.095  0.3280  0.5552  0.6303
 4266TIP3   OH234212   0.619   0.722  15.544 -0.0650  0.6992  0.3364
 4266TIP3    H134213   0.630   0.776  15.622 -0.7071  1.1518  0.1282
 4266TIP3    H234214   0.667   0.641  15.563 -1.3453  0.2325  1.7716
 4267TIP3   OH234215   5.070   2.872   0.567 -0.0094  0.2188  0.1288
 4267TIP3    H134216   5.000   2.928   0.535  1.1020  1.6871  0.1774
 4267TIP3    H234217   5.054   2.867   0.662  0.4318  1.2986  0.2790
 4268TIP3   OH234218   2.987   2.992   0.287  0.5686 -0.0885 -0.0359
 4268TIP3    H134219   3.016   3.083   0.298 -0.5236  0.4374 -1.3389
 4268TIP3    H234220   3.065   2.946   0.254  1.9654 -0.3007  3.1407
 4269TIP3   OH234221   3.916   5.659   2.538 -0.1080  0.3664 -0.0089
 4269TIP3    H134222   3.918   5.572   2.579  0.5031  1.4932  2.5235
 4269TIP3    H234223   3.847   5.652   2.471 -0.9345 -1.7061  0.9603
 4270TIP3   OH234224   3.952   6.266   5.849 -0.1208 -0.3805 -0.3236
 4270TIP3    H134225   3.899   6.218   5.913  1.2288 -0.7701  0.5405
 4270TIP3    H234226   3.891   6.327   5.809 -1.5814 -1.8343 -0.4480
 4271TIP3   OH234227   6.288   2.971   0.166  0.6187  0.3289  0.2717
 4271TIP3    H134228   6.349   2.945   0.097 -0.6232  1.3574 -1.2852
 4271TIP3    H234229   6.344   2.990   0.242  2.0284 -0.7441 -0.4581
 4272TIP3   OH234230   2.513   2.400   1.046 -0.2404  0.1705 -0.3390
 4272TIP3    H134231   2.509   2.307   1.023  0.9845 -0.0261  0.1994
 4272TIP3    H234232   2.427   2.435   1.020 -1.1400 -1.3456  0.5078
 4273TIP3   OH234233   0.521   6.363   2.899  0.9166 -0.2813  0.1465
 4273TIP3    H134234   0.474   6.281   2.886  1.1641 -0.2356 -1.1738
 4273TIP3    H234235   0.487   6.397   2.982 -0.6000 -0.7570 -0.2495
 4274TIP3   OH234236   3.971   1.239  13.108  0.0618  0.0264  0.1724
 4274TIP3    H134237   4.000   1.223  13.018  1.3640 -0.5838  0.6705
 4274TIP3    H234238   3.906   1.172  13.125  1.9000 -1.7538  0.6055
 4275TIP3   OH234239   4.210   5.818  14.228 -0.4107 -0.2377 -0.1177
 4275TIP3    H134240   4.163   5.890  14.188  0.0740  0.8001  1.0909
 4275TIP3    H234241   4.286   5.803  14.171  0.0179  0.8934  0.1375
 4276TIP3   OH234242   2.803   5.812   5.437 -0.3995 -0.0547 -0.8430
 4276TIP3    H134243   2.744   5.883   5.462  0.1490  0.4468 -0.9587
 4276TIP3    H234244   2.861   5.850   5.371  0.0813 -0.5220 -0.7033
 4277TIP3   OH234245   1.087   0.626   1.822 -0.0601  0.4724 -0.1513
 4277TIP3    H134246   1.144   0.687   1.776 -0.0918  0.4970 -0.1578
 4277TIP3    H234247   1.056   0.566   1.755 -1.7720  1.7457 -0.5813
 4278TIP3   OH234248   6.684   3.659   0.177 -0.1057 -0.1173 -0.4708
 4278TIP3    H134249   6.599   3.681   0.214  0.1434  0.4996 -0.2385
 4278TIP3    H234250   6.743   3.726   0.213  0.7338 -1.3154  0.4385
 4279TIP3   OH234251   0.538   6.673  15.297  0.2059 -0.1699 -0.1850
 4279TIP3    H134252   0.537   6.700  15.389 -0.8226  1.4566 -0.6259
 4279TIP3    H234253   0.611   6.721  15.259 -0.3690  0.4326 -0.5463
 4280TIP3   OH234254   0.290   1.401   3.316  0.1342 -0.3995 -0.2167
 4280TIP3    H134255   0.269   1.323   3.367  0.7002 -0.7656 -0.5434
 4280TIP3    H234256   0.241   1.390   3.234  0.0003 -0.2776 -0.1545
 4281TIP3   OH234257   2.548   4.240  14.602 -0.5682 -0.3564 -0.1444
 4281TIP3    H134258   2.623   4.254  14.660  1.1362  0.7840 -2.4508
 4281TIP3    H234259   2.573   4.165  14.548 -1.7149 -0.8130 -0.0744
 4282TIP3   OH234260   1.148   3.646   3.828 -0.1072  0.1525  0.5710
 4282TIP3    H134261   1.119   3.708   3.895 -0.6181  0.5476 -0.0138
 4282TIP3    H234262   1.240   3.668   3.814  0.3808 -0.7612  2.0414
 4283TIP3   OH234263   3.700   6.535   2.922  0.0927 -0.3235 -0.3154
 4283TIP3    H134264   3.628   6.511   2.980  1.9673 -1.5312  1.6433
 4283TIP3    H234265   3.744   6.607   2.967  0.9493 -0.5504 -0.7612
 4284TIP3   OH234266   0.897   2.575  15.911  0.2066 -0.5677 -0.1516
 4284TIP3    H134267   0.810   2.549  15.882  0.0177 -2.4136  1.8110
 4284TIP3    H234268   0.882   2.655  15.963 -0.1775 -0.3800 -0.5471
 4285TIP3   OH234269   5.001   0.999   5.133 -0.2784  0.6433 -0.1234
 4285TIP3    H134270   4.912   0.969   5.155  0.4338 -3.0743 -1.5692
 4285TIP3    H234271   4.987   1.074   5.075 -2.5752 -0.3394 -0.9753
 4286TIP3   OH234272   5.820   5.608  13.595  0.0391  0.3521 -0.6064
 4286TIP3    H134273   5.892   5.548  13.613 -0.2135  0.7240  2.0662
 4286TIP3    H234274   5.741   5.553  13.597 -0.1790  0.6390  1.7097
 4287TIP3   OH234275   5.919   0.685   0.925 -0.2239  0.6032 -0.5340
 4287TIP3    H134276   5.888   0.718   0.840  0.9442  0.6756 -0.9430
 4287TIP3    H234277   5.842   0.690   0.982 -0.9085  0.9667 -1.4713
 4288TIP3   OH234278   4.075   4.181   1.352 -0.0160 -0.7247 -0.0802
 4288TIP3    H134279   4.017   4.148   1.284  0.4459 -2.2409  0.2107
 4288TIP3    H234280   4.056   4.274   1.358 -0.7743 -0.7611 -1.5718
 4289TIP3   OH234281   2.853   6.606   2.446  0.3947  0.2941  0.0353
 4289TIP3    H134282   2.940   6.569   2.431  0.3429 -0.5879  1.6996
 4289TIP3    H234283   2.814   6.550   2.513 -0.7194  1.8040  0.7129
 4290TIP3   OH234284   4.854   6.589   2.633 -0.0475  0.1388 -0.4036
 4290TIP3    H134285   4.767   6.616   2.661  0.8197  2.8730 -0.1283
 4290TIP3    H234286   4.865   6.502   2.671 -1.7001  0.7473  1.6700
 4291TIP3   OH234287   2.595   0.720   2.867 -0.0051 -0.3905 -0.3299
 4291TIP3    H134288   2.574   0.739   2.775 -1.3143  1.1923  0.2553
 4291TIP3    H234289   2.582   0.803   2.912  1.4100 -0.9428  1.1848
 4292TIP3   OH234290   0.387   4.393  13.356 -0.2873 -0.7257  0.0591
 4292TIP3    H134291   0.295   4.389  13.383 -0.4497 -1.0927 -0.5229
 4292TIP3    H234292   0.395   4.324  13.290 -0.2677  1.0318 -1.8650
 4293TIP3   OH234293   4.124   4.558  11.950  0.0840 -0.3682  0.6252
 4293TIP3    H134294   4.144   4.530  11.861 -0.9641 -1.1622  0.6140
 4293TIP3    H234295   4.123   4.477  12.001 -0.1277 -0.0146  1.1943
 4294TIP3   OH234296   4.493   6.611  12.679  0.9541  0.9153  0.3314
 4294TIP3    H134297   4.421   6.548  12.671  0.2650  1.3753  2.4821
 4294TIP3    H234298   4.558   6.580  12.616 -0.9870  0.3473 -1.5137
 4295TIP3   OH234299   0.841   3.678   5.517 -0.1315  0.3611 -0.2230
 4295TIP3    H134300   0.930   3.660   5.546 -0.0711 -1.4489 -1.3977
 4295TIP3    H234301   0.812   3.750   5.573  1.1581 -0.6817  1.9210
 4296TIP3   OH234302   6.013   0.820  10.605 -0.4041 -0.0202  0.4480
 4296TIP3    H134303   6.098   0.780  10.626  0.5018  0.0560 -2.6166
 4296TIP3    H234304   5.949   0.752  10.628  0.7887 -1.6099 -0.6315
 4297TIP3   OH234305   2.533   5.008   5.509 -0.0283  0.1016 -0.4678
 4297TIP3    H134306   2.556   4.953   5.434 -0.2238 -0.5542 -0.0577
 4297TIP3    H234307   2.606   4.998   5.569 -0.5336 -0.5512  0.0569
 4298TIP3   OH234308   0.281   2.694  15.105  0.5301 -0.1383 -0.3902
 4298TIP3    H134309   0.264   2.635  15.031 -1.3578  0.5173 -0.5469
 4298TIP3    H234310   0.196   2.701  15.149  0.7600  2.2160 -0.2097
 4299TIP3   OH234311   3.294   2.065   2.309 -0.0330  0.5990  0.8128
 4299TIP3    H134312   3.331   1.977   2.317 -0.2484  0.2483 -1.3706
 4299TIP3    H234313   3.364   2.124   2.340  0.9247 -0.2497  0.3348
 4300TIP3   OH234314   0.113   3.159  15.607 -0.2837 -0.3375 -0.0787
 4300TIP3    H134315   0.126   3.223  15.538 -1.7327  0.6118  0.4835
 4300TIP3    H234316   0.035   3.189  15.654 -0.3826 -1.9285  0.8661
 4301TIP3   OH234317   4.026   0.835   1.834 -0.3483 -0.4476  0.0165
 4301TIP3    H134318   4.060   0.921   1.859  0.7723 -0.8532 -0.0466
 4301TIP3    H234319   3.980   0.805   1.911  0.3289 -0.3133  0.4879
 4302TIP3   OH234320   3.782   0.882   4.542  0.1420 -0.4017  0.3234
 4302TIP3    H134321   3.695   0.901   4.577  0.4939  0.3200  0.8235
 4302TIP3    H234322   3.831   0.848   4.617  0.3011 -0.7695  0.0527
 4303TIP3   OH234323   5.901   1.371  11.509 -0.1345 -0.6590 -0.3480
 4303TIP3    H134324   5.865   1.349  11.595  1.7068 -0.1970  0.5941
 4303TIP3    H234325   5.871   1.461  11.493 -0.4640 -0.7369 -0.1789
 4304TIP3   OH234326   0.871   0.280   4.565  0.4938 -0.5742 -0.2650
 4304TIP3    H134327   0.806   0.218   4.598  0.2648 -0.0024  0.3982
 4304TIP3    H234328   0.818   0.353   4.531  0.7712 -0.4748 -0.4843
 4305TIP3   OH234329   3.323   0.940   0.547  0.6179 -0.0247  0.2665
 4305TIP3    H134330   3.247   0.899   0.506  0.8534 -1.7998  1.4897
 4305TIP3    H234331   3.384   0.954   0.474 -0.1503 -0.2897 -0.4525
 4306TIP3   OH234332   2.855   6.715  17.284 -0.2481  0.3665 -0.1055
 4306TIP3    H134333   2.855   6.626  17.251 -1.0338  0.3875 -0.1760
 4306TIP3    H234334   2.780   6.757  17.242  0.0995  1.0564 -0.0633
 4307TIP3   OH234335   6.721   4.955   4.056 -0.0609 -0.4446  0.0446
 4307TIP3    H134336   6.759   4.986   3.973 -0.5294  1.3057  0.4551
 4307TIP3    H234337   6.728   5.030   4.115 -1.7023 -0.9644  0.9422
 4308TIP3   OH234338   0.141   0.696  12.087  0.2041 -0.0397  0.0569
 4308TIP3    H134339   0.057   0.682  12.045  0.7178 -1.5990 -0.5259
 4308TIP3    H234340   0.123   0.687  12.181 -0.4470  0.6563  0.0013
 4309TIP3   OH234341   3.205   6.397  13.083 -0.7237 -0.4741 -0.4418
 4309TIP3    H134342   3.261   6.338  13.033  1.8419  2.6699 -1.6000
 4309TIP3    H234343   3.119   6.388  13.043  0.1202 -1.7046 -2.1013
 4310TIP3   OH234344   2.838   5.440   4.438 -0.0455 -0.4232 -0.2635
 4310TIP3    H134345   2.871   5.482   4.516  0.3170  0.2143 -0.7560
 4310TIP3    H234346   2.879   5.487   4.365 -1.3461 -0.1752 -0.8675
 4311TIP3   OH234347   0.550   3.276  15.746  0.3304  0.1162  0.2358
 4311TIP3    H134348   0.539   3.309  15.836 -0.9263  1.5259 -0.3853
 4311TIP3    H234349   0.479   3.213  15.734  0.4951 -0.0682  0.2271
 4312TIP3   OH234350   3.937   5.481   1.760 -0.3974 -0.1502  0.0198
 4312TIP3    H134351   3.966   5.571   1.743  0.1057  0.0756  1.8836
 4312TIP3    H234352   4.018   5.430   1.762 -0.8035 -1.3794 -4.2786
 4313TIP3   OH234353   5.645   0.095   0.135 -0.8801 -0.3839 -0.2397
 4313TIP3    H134354   5.593   0.022   0.102 -1.1729 -0.6371  0.7481
 4313TIP3    H234355   5.647   0.158   0.063 -0.0649 -1.6274 -1.3694
 4314TIP3   OH234356   4.372   5.922  13.592 -0.2242 -0.1202 -0.4087
 4314TIP3    H134357   4.418   5.980  13.530 -3.6734  2.6336 -0.6822
 4314TIP3    H234358   4.350   5.844  13.540  1.6859 -0.3311 -0.9847
 4315TIP3   OH234359   5.668   3.037   3.968 -0.4231  0.0261  0.0801
 4315TIP3    H134360   5.589   2.989   3.991 -0.7183  0.2817 -0.3984
 4315TIP3    H234361   5.652   3.069   3.880  0.1893  0.1357  0.0063
 4316TIP3   OH234362   3.392   2.949   3.439  0.1133  0.6387  0.4742
 4316TIP3    H134363   3.435   2.876   3.393 -0.0296  2.0113 -2.0181
 4316TIP3    H234364   3.298   2.933   3.426  0.0205  0.4595  1.3056
 4317TIP3   OH234365   3.862   3.368   2.315 -0.2256 -0.4499 -0.0592
 4317TIP3    H134366   3.813   3.387   2.235 -1.9434  0.0479  1.0438
 4317TIP3    H234367   3.941   3.324   2.285 -0.1349  0.9488 -2.1211
 4318TIP3   OH234368   2.490   4.068  11.470  0.9497  0.0116  0.1678
 4318TIP3    H134369   2.419   4.118  11.429 -0.0463 -0.5556  1.1245
 4318TIP3    H234370   2.472   3.977  11.446 -0.4473 -0.5244  2.8190
 4319TIP3   OH234371   5.619   1.055   4.363 -0.0823 -0.9570 -0.1718
 4319TIP3    H134372   5.590   1.038   4.273  0.3762 -0.3610 -0.4336
 4319TIP3    H234373   5.571   1.134   4.389 -0.3241 -1.2103  0.1642
 4320TIP3   OH234374   2.314   5.760   3.770 -0.2919  0.6737 -0.4368
 4320TIP3    H134375   2.360   5.802   3.697 -1.3182  2.7473  0.0222
 4320TIP3    H234376   2.221   5.777   3.753 -0.7913 -1.6644 -0.3115
 4321TIP3   OH234377   5.352   4.381   5.758 -0.1815 -0.6702  0.0952
 4321TIP3    H134378   5.445   4.400   5.750  0.0206 -2.2085 -2.7723
 4321TIP3    H234379   5.308   4.461   5.728  0.4052 -1.1621 -2.3440
 4322TIP3   OH234380   2.185   1.891   1.251 -0.1365  0.1436  0.1941
 4322TIP3    H134381   2.121   1.846   1.196 -1.4703  0.9036  1.0713
 4322TIP3    H234382   2.249   1.927   1.189 -1.6337  1.0485 -0.8937
 4323TIP3   OH234383   3.918   0.231   1.733  0.0784  0.4442 -0.9608
 4323TIP3    H134384   3.958   0.267   1.654 -1.2083  1.1793 -1.3029
 4323TIP3    H234385   3.892   0.142   1.708 -0.7595  0.8382 -1.5390
 4324TIP3   OH234386   4.499   1.486   5.004  0.4172  0.4576 -0.5731
 4324TIP3    H134387   4.508   1.579   4.983  0.9596  0.6163  0.3163
 4324TIP3    H234388   4.520   1.480   5.097 -0.5962 -0.4190 -0.3858
 4325TIP3   OH234389   4.273   4.806  16.627 -0.0745 -0.1376  0.2109
 4325TIP3    H134390   4.206   4.839  16.686 -0.6826 -1.7655  0.4750
 4325TIP3    H234391   4.237   4.725  16.592  1.3114 -0.4922 -0.4730
 4326TIP3   OH234392   3.613   5.845  11.626 -0.4382 -0.5628  0.7032
 4326TIP3    H134393   3.644   5.801  11.546 -1.1322 -1.8103  1.1032
 4326TIP3    H234394   3.536   5.895  11.597  1.0913  1.4978 -0.0205
 4327TIP3   OH234395   4.667   3.160   3.475  0.7184 -0.7226  0.1362
 4327TIP3    H134396   4.672   3.249   3.511  0.8521 -0.8069  0.3280
 4327TIP3    H234397   4.576   3.134   3.488  1.2054 -1.5532  2.3707
 4328TIP3   OH234398   0.372   0.383   4.938 -0.3683 -0.0888 -0.4079
 4328TIP3    H134399   0.341   0.299   4.902 -2.2912  0.8369 -1.0414
 4328TIP3    H234400   0.348   0.380   5.031  1.1658 -0.9235 -0.0061
 4329TIP3   OH234401   3.790   5.016  17.108  0.4767 -0.8716  0.0480
 4329TIP3    H134402   3.867   4.965  17.082 -0.2559 -1.8814 -0.1985
 4329TIP3    H234403   3.718   4.977  17.059 -0.0132  0.8589 -0.6731
 4330TIP3   OH234404   0.321   0.245  15.893 -0.1593 -0.8136  0.0003
 4330TIP3    H134405   0.385   0.174  15.899  3.1155  1.6595 -1.7717
 4330TIP3    H234406   0.265   0.221  15.819  0.2598 -2.0143  0.0542
 4331TIP3   OH234407   3.282   1.671  15.158  0.2312  0.4640 -0.0810
 4331TIP3    H134408   3.187   1.667  15.146  0.0504  1.1628  0.9332
 4331TIP3    H234409   3.301   1.765  15.165  0.7371  0.2695  1.4962
 4332TIP3   OH234410   4.527   6.192  15.713 -0.2859 -0.0540  0.0467
 4332TIP3    H134411   4.484   6.207  15.797  0.6208  2.0066  0.1992
 4332TIP3    H234412   4.618   6.173  15.735  0.1319  1.2576 -0.4662
 4333TIP3   OH234413   3.277   1.427  15.008 -0.1869  0.0929 -0.1386
 4333TIP3    H134414   3.258   1.468  14.924  2.2135  2.2065  0.1968
 4333TIP3    H234415   3.304   1.500  15.064  1.1740 -1.5994  1.5473
 4334TIP3   OH234416   0.907   4.602  15.541 -0.0599  0.0424  0.0233
 4334TIP3    H134417   0.898   4.574  15.450  0.9946  0.7731 -0.3142
 4334TIP3    H234418   0.949   4.687  15.537  2.3119 -0.9780  1.2742
 4335TIP3   OH234419   2.168   4.464  12.017 -0.1491  0.0831  0.0243
 4335TIP3    H134420   2.237   4.460  12.083 -2.4142  0.6178  2.5918
 4335TIP3    H234421   2.191   4.539  11.963  1.1688  0.3838  0.9508
 4336TIP3   OH234422   1.748   4.052   4.420  0.2516  0.3621  0.1580
 4336TIP3    H134423   1.661   4.085   4.397  0.7113  1.0086 -0.6913
 4336TIP3    H234424   1.734   3.959   4.438 -0.6312  0.4788  0.1307
 4337TIP3   OH234425   4.753   2.054   1.736  0.2187 -0.0454  0.7052
 4337TIP3    H134426   4.809   2.093   1.668  0.3927  2.2305  2.0681
 4337TIP3    H234427   4.699   2.126   1.767  0.0193 -1.0520  2.8642
 4338TIP3   OH234428   2.420   4.473   5.283  0.5385 -0.1378  0.3371
 4338TIP3    H134429   2.357   4.434   5.344 -0.5506  0.4629 -0.3778
 4338TIP3    H234430   2.473   4.399   5.253 -0.1606 -0.7466  0.5570
 4339TIP3   OH234431   2.004   1.438  11.207  0.2220  0.8002 -0.3216
 4339TIP3    H134432   1.980   1.345  11.206 -0.3007  0.9153  0.3888
 4339TIP3    H234433   1.947   1.476  11.274  0.9827  1.4796 -0.0497
 4340TIP3   OH234434   0.109   6.227  17.282  0.2484 -0.7430  0.0568
 4340TIP3    H134435   0.195   6.256  17.249 -0.3763  0.4447 -0.6141
 4340TIP3    H234436   0.129   6.177  17.361  1.6547 -1.7256 -0.8789
 4341TIP3   OH234437   1.286   3.127   5.534 -0.1998 -0.0309 -0.5985
 4341TIP3    H134438   1.380   3.137   5.545 -0.2226 -0.7345  0.3877
 4341TIP3    H234439   1.250   3.133   5.623 -0.8947 -1.5144 -0.7455
 4342TIP3   OH234440   6.554   0.374  15.470  1.0009  0.2563  0.1558
 4342TIP3    H134441   6.547   0.451  15.526  1.2106 -1.0467  2.0973
 4342TIP3    H234442   6.638   0.384  15.425  0.5653  1.6127 -0.4070
 4343TIP3   OH234443   1.741   2.073  17.068  0.2276  0.1073 -0.1152
 4343TIP3    H134444   1.743   2.002  17.133 -0.7072  2.4777  2.7073
 4343TIP3    H234445   1.828   2.071  17.029  0.3346 -2.3757  0.0463
 4344TIP3   OH234446   2.986   2.220  17.370 -0.2285  0.5065  0.1629
 4344TIP3    H134447   2.909   2.192  17.322  0.5075 -0.1174 -0.6869
 4344TIP3    H234448   3.060   2.181  17.323  0.5500  0.2315  1.5277
 4345TIP3   OH234449   2.735   0.953   3.175  0.6439  0.0392  0.7377
 4345TIP3    H134450   2.777   0.867   3.172 -2.7591 -1.8195 -1.3919
 4345TIP3    H234451   2.656   0.938   3.228  0.4313  2.1071  1.0613
 4346TIP3   OH234452   5.272   0.671   0.217 -0.0439  0.0323 -0.0407
 4346TIP3    H134453   5.338   0.633   0.159 -1.2549  0.1925 -1.5770
 4346TIP3    H234454   5.203   0.702   0.158 -0.8933  1.0604  1.4320
 4347TIP3   OH234455   3.854   1.545   4.505  0.2478  0.3774  0.2536
 4347TIP3    H134456   3.798   1.489   4.451 -0.3049  0.4937  0.6908
 4347TIP3    H234457   3.901   1.600   4.443 -1.1875  1.2737 -0.0957
 4348TIP3   OH234458   1.068   6.034  15.758 -0.1435  0.2235  0.9067
 4348TIP3    H134459   0.987   6.042  15.809  0.4336 -1.7365  2.2668
 4348TIP3    H234460   1.122   6.107  15.787 -0.5851  0.2462  1.7142
 4349TIP3   OH234461   3.366   1.757  13.359 -0.0376 -0.0619 -0.4608
 4349TIP3    H134462   3.370   1.699  13.435 -2.1482  0.3729  0.0300
 4349TIP3    H234463   3.274   1.755  13.331  0.0927  2.0134 -1.2379
 4350TIP3   OH234464   4.752   6.401  15.250  0.6586 -0.0942 -0.1522
 4350TIP3    H134465   4.772   6.484  15.295  1.5701 -1.1366  1.4594
 4350TIP3    H234466   4.751   6.424  15.158  0.8770  1.7337  0.2587
 4351TIP3   OH234467   4.451   2.692   3.934  0.6470 -0.1646 -0.4387
 4351TIP3    H134468   4.379   2.664   3.990 -0.6156  2.2121 -0.7167
 4351TIP3    H234469   4.447   2.634   3.858 -0.9798 -0.0789 -0.4381
 4352TIP3   OH234470   6.349   2.315   4.699  0.1578  0.6045  0.0867
 4352TIP3    H134471   6.315   2.244   4.643  1.2301  1.0952 -1.2303
 4352TIP3    H234472   6.285   2.385   4.689 -0.3274  0.2333  0.5167
 4353TIP3   OH234473   4.438   5.461  16.486  0.1687 -0.2820 -0.0272
 4353TIP3    H134474   4.422   5.445  16.579  1.2510  0.8350  0.3752
 4353TIP3    H234475   4.525   5.427  16.470 -0.9142 -2.7072 -1.2594
 4354TIP3   OH234476   5.732   6.346  11.973  0.8685 -0.4024  0.3102
 4354TIP3    H134477   5.676   6.417  11.939 -1.7041 -2.0234  0.8478
 4354TIP3    H234478   5.760   6.377  12.059 -0.5816 -0.1350  0.7261
 4355TIP3   OH234479   3.731   4.532   0.991  1.2737  0.1437 -0.7525
 4355TIP3    H134480   3.781   4.584   0.928 -0.6170 -0.6200 -3.0526
 4355TIP3    H234481   3.768   4.443   0.983 -0.0214 -0.3035 -2.0529
 4356TIP3   OH234482   0.887   1.762   5.856 -0.0816  0.3077 -0.2370
 4356TIP3    H134483   0.940   1.706   5.799  0.9743  0.6116  0.4140
 4356TIP3    H234484   0.932   1.760   5.940 -1.7522 -0.3512  0.7067
 4357TIP3   OH234485   1.698   5.749   4.939 -0.0204  1.1175 -0.2871
 4357TIP3    H134486   1.663   5.673   4.984 -1.4187  1.4368 -0.7911
 4357TIP3    H234487   1.679   5.823   4.997  1.1669  1.1234  0.1167
 4358TIP3   OH234488   3.115   6.602   0.306  0.0780 -0.3836  0.1609
 4358TIP3    H134489   3.195   6.630   0.349  0.8145 -2.9144  0.6150
 4358TIP3    H234490   3.099   6.669   0.239  2.1738  0.5553  0.5147
 4359TIP3   OH234491   2.213   1.364  12.927  0.5065 -0.4369  0.0789
 4359TIP3    H134492   2.260   1.314  12.994  0.8958  0.4008  0.4448
 4359TIP3    H234493   2.281   1.413  12.881  0.2226 -0.8743 -0.8361
 4360TIP3   OH234494   2.790   4.669  12.077 -0.0120 -0.3064 -0.0758
 4360TIP3    H134495   2.728   4.623  12.133 -3.1260  1.5492 -1.6947
 4360TIP3    H234496   2.798   4.756  12.117 -0.1346  0.1532 -1.0256
 4361TIP3   OH234497   6.486   1.135   3.895  0.4702 -0.0247  0.0197
 4361TIP3    H134498   6.399   1.164   3.867  0.2779 -0.9634 -0.3943
 4361TIP3    H234499   6.472   1.093   3.979  0.8465  1.5954  0.9320
 4362TIP3   OH234500   4.032   3.174  11.732  0.6018 -0.5708  0.1899
 4362TIP3    H134501   4.049   3.147  11.642 -0.8581  0.9139 -0.5909
 4362TIP3    H234502   4.062   3.265  11.736  0.7115 -0.6428  1.2265
 4363TIP3   OH234503   6.506   6.621  13.532 -0.1932  0.3977  0.7041
 4363TIP3    H134504   6.485   6.528  13.546  1.6048  0.1534  2.1526
 4363TIP3    H234505   6.440   6.651  13.471 -0.7761 -1.8780  0.1064
 4364TIP3   OH234506   3.759   1.618  13.665 -0.3956 -0.0184 -0.2821
 4364TIP3    H134507   3.691   1.656  13.720 -0.1972  1.6037 -1.1117
 4364TIP3    H234508   3.774   1.531  13.703 -1.0436  0.6058  1.5179
 4365TIP3   OH234509   0.493   0.231   6.032  0.2197 -0.5749 -0.0965
 4365TIP3    H134510   0.551   0.304   6.057  0.7529 -0.4531 -1.6029
 4365TIP3    H234511   0.550   0.154   6.035 -0.0619 -0.7729  0.3626
 4366TIP3   OH234512   1.312   2.680   3.131 -0.0589 -0.0860 -0.4562
 4366TIP3    H134513   1.258   2.601   3.122 -0.2964  0.0076  0.1049
 4366TIP3    H234514   1.260   2.738   3.187  1.1540 -0.4892  1.1549
 4367TIP3   OH234515   2.049   2.859  11.293 -0.6056  0.2135 -0.4494
 4367TIP3    H134516   1.992   2.831  11.365 -1.6180 -0.1808 -1.3708
 4367TIP3    H234517   2.020   2.948  11.272 -1.8716 -0.4617 -1.8066
 4368TIP3   OH234518   5.687   2.628  11.135 -0.3619 -0.6038 -0.2121
 4368TIP3    H134519   5.759   2.637  11.198 -0.0839 -3.0262 -0.0744
 4368TIP3    H234520   5.719   2.668  11.055  0.6424 -0.5095  0.2264
 4369TIP3   OH234521   3.877   6.071  14.850  0.4457  0.0661  0.5110
 4369TIP3    H134522   3.962   6.078  14.893  0.0424 -0.6384  1.4668
 4369TIP3    H234523   3.814   6.069  14.923 -0.2796 -0.8159 -0.1295
 4370TIP3   OH234524   6.217   3.606   5.732  0.0876  0.9508  0.3454
 4370TIP3    H134525   6.134   3.610   5.780 -0.5263  0.0046 -0.5823
 4370TIP3    H234526   6.219   3.687   5.682 -0.0691  1.1782  0.7028
 4371TIP3   OH234527   4.654   3.092   4.777 -0.3024  0.3987  0.9233
 4371TIP3    H134528   4.680   3.148   4.703 -0.5541 -0.5028  0.1328
 4371TIP3    H234529   4.595   3.148   4.829  1.0224  1.5404  1.2672
 4372TIP3   OH234530   6.598   3.317   3.368 -0.4308  0.3762  0.6077
 4372TIP3    H134531   6.556   3.332   3.453 -1.1438  1.7159  0.0412
 4372TIP3    H234532   6.528   3.328   3.304 -0.0038 -1.0636 -0.1541
 4373TIP3   OH234533   2.745   3.145   0.396 -0.1473  0.0295  0.5715
 4373TIP3    H134534   2.822   3.096   0.365  0.4747  0.8068  0.8689
 4373TIP3    H234535   2.732   3.115   0.486  2.2372  2.6825  1.9573
 4374TIP3   OH234536   3.095   5.975  14.554  0.2809 -0.1919  0.4876
 4374TIP3    H134537   3.065   5.886  14.568 -1.3136  0.3041  0.4704
 4374TIP3    H234538   3.111   5.981  14.460  0.6317 -0.5291  0.5269
 4375TIP3   OH234539   6.256   1.478  11.510 -0.1510  0.3776  0.1428
 4375TIP3    H134540   6.206   1.521  11.579  2.4561 -1.3334  3.4187
 4375TIP3    H234541   6.206   1.399  11.489 -0.3278  0.2023  1.1740
 4376TIP3   OH234542   5.922   3.615  11.109 -0.0139  0.1942 -0.3797
 4376TIP3    H134543   5.976   3.567  11.046 -0.1710  0.6490 -0.8682
 4376TIP3    H234544   5.877   3.681  11.056 -0.5179  0.2674  0.1325
 4377TIP3   OH234545   6.057   1.356  12.570 -0.0716  0.0231  0.1669
 4377TIP3    H134546   5.974   1.350  12.617  0.1303  1.3999  0.7458
 4377TIP3    H234547   6.038   1.321  12.483 -0.8423 -1.1449  0.7841
 4378TIP3   OH234548   3.806   2.956  13.196 -0.2708  0.2582  0.4206
 4378TIP3    H134549   3.889   2.996  13.172 -0.2525 -0.6801 -1.2793
 4378TIP3    H234550   3.757   2.953  13.113 -2.1470  1.1082  1.4413
 4379TIP3   OH234551   1.370   1.575   1.177  0.5220  0.4863 -0.2934
 4379TIP3    H134552   1.388   1.549   1.267 -1.3862  2.7439  0.8431
 4379TIP3    H234553   1.354   1.492   1.131  0.0879 -0.6559  1.7819
 4380TIP3   OH234554   0.170   5.281   2.466  0.1344  0.5074  0.1227
 4380TIP3    H134555   0.132   5.198   2.437  0.4523 -0.3732  2.0819
 4380TIP3    H234556   0.124   5.348   2.414 -0.5729 -0.8373 -1.0416
 4381TIP3   OH234557   4.888   3.476   5.198  0.1364  0.1932 -0.3903
 4381TIP3    H134558   4.840   3.452   5.278  1.5702 -1.6030 -0.0090
 4381TIP3    H234559   4.890   3.572   5.200  0.9313  0.2034  2.2628
 4382TIP3   OH234560   3.021   2.257  17.007  0.0780 -0.1478  0.3945
 4382TIP3    H134561   2.966   2.272  16.930  1.0987 -1.2805 -0.5876
 4382TIP3    H234562   2.979   2.308  17.076 -3.0979 -2.0890  0.1146
 4383TIP3   OH234563   0.629   1.268   4.662  0.6317  0.0283  0.5275
 4383TIP3    H134564   0.579   1.339   4.620 -1.8702 -0.6942  2.0256
 4383TIP3    H234565   0.586   1.256   4.747  0.3134 -3.8790 -0.0001
 4384TIP3   OH234566   6.473   6.305   1.631  0.1380  0.4461  0.3078
 4384TIP3    H134567   6.520   6.319   1.713  0.5083  1.4548 -0.0612
 4384TIP3    H234568   6.513   6.227   1.594  1.0203  0.8541  0.3681
 4385TIP3   OH234569   5.482   2.132   5.829  0.2733 -0.7653 -0.6462
 4385TIP3    H134570   5.503   2.222   5.856 -0.4566 -0.3443 -1.4593
 4385TIP3    H234571   5.486   2.082   5.911  2.8818 -0.4449 -0.4862
 4386TIP3   OH234572   5.690   2.074   6.147  0.2820 -0.5939 -0.0421
 4386TIP3    H134573   5.724   2.097   6.233 -0.1763  1.9320 -0.4312
 4386TIP3    H234574   5.598   2.053   6.162  0.5663 -1.6890  0.2513
 4387TIP3   OH234575   4.531   0.231  13.166 -1.0191  0.7755  0.0475
 4387TIP3    H134576   4.589   0.307  13.174  0.8349 -0.5638 -0.1166
 4387TIP3    H234577   4.538   0.186  13.250 -1.4135  0.3034 -0.1636
 4388TIP3   OH234578   6.358   1.473   2.242  0.0300  0.0037  0.1346
 4388TIP3    H134579   6.419   1.401   2.258 -1.0725 -0.9760  0.0713
 4388TIP3    H234580   6.336   1.466   2.149  0.2009  0.6500  0.0465
 4389TIP3   OH234581   1.368   5.554   3.197 -0.1672  0.3004  0.3360
 4389TIP3    H134582   1.458   5.540   3.226 -0.1269 -1.3505 -0.4167
 4389TIP3    H234583   1.319   5.568   3.277  0.8992  2.4545  0.6946
 4390TIP3   OH234584   1.220   5.970   5.563  0.2804  0.5035  0.2403
 4390TIP3    H134585   1.153   6.029   5.596 -0.0455  0.0076  0.4785
 4390TIP3    H234586   1.218   5.895   5.623 -1.8848 -1.5157 -2.0938
 4391TIP3   OH234587   3.658   2.930   4.703 -0.3035  0.8632 -0.0333
 4391TIP3    H134588   3.721   2.875   4.750 -0.4860 -0.8381 -1.6333
 4391TIP3    H234589   3.712   2.982   4.643 -0.3310 -0.2643 -1.0810
 4392TIP3   OH234590   4.387   2.909  11.862 -0.0497  0.1483 -0.3268
 4392TIP3    H134591   4.345   2.955  11.789 -0.0654 -0.3590 -0.6387
 4392TIP3    H234592   4.353   2.820  11.857  0.4110 -0.0452 -0.0577
 4393TIP3   OH234593   2.694   2.869  12.561  0.5524  0.2601  0.2700
 4393TIP3    H134594   2.775   2.820  12.576 -1.1376 -2.6059  0.6656
 4393TIP3    H234595   2.659   2.886  12.648  1.2153  2.4935  0.1520
 4394TIP3   OH234596   5.886   1.994  13.425 -0.3472 -0.3560 -0.0782
 4394TIP3    H134597   5.848   2.077  13.454 -1.0882 -0.7448  0.1107
 4394TIP3    H234598   5.817   1.929  13.443 -0.0433 -0.9052 -0.8540
 4395TIP3   OH234599   1.414   5.464  13.314  0.0646 -0.2772 -0.7226
 4395TIP3    H134600   1.492   5.464  13.259 -0.0577 -0.2823 -0.8969
 4395TIP3    H234601   1.386   5.556  13.317  0.5383 -0.1488  0.0018
 4396TIP3   OH234602   2.829   0.466  13.275  0.7440  0.7315 -0.4076
 4396TIP3    H134603   2.902   0.442  13.332  0.8629 -0.1379 -0.8998
 4396TIP3    H234604   2.870   0.517  13.205  0.6488  1.5072  0.0928
 4397TIP3   OH234605   0.055   3.130  16.279 -0.4281  0.2128 -0.4315
 4397TIP3    H134606   0.053   3.159  16.188  0.2755  1.6665 -0.0161
 4397TIP3    H234607   0.143   3.150  16.310 -0.2845 -1.3198  0.2636
 4398TIP3   OH234608   0.389   1.000  11.843 -0.1397  0.0068  0.3292
 4398TIP3    H134609   0.405   0.937  11.913 -1.1063  0.3153  0.8477
 4398TIP3    H234610   0.448   1.072  11.862 -0.2913  0.0226  0.7550
 4399TIP3   OH234611   5.186   5.977  15.257  0.7273  0.1016  1.1255
 4399TIP3    H134612   5.178   5.910  15.325  0.6015 -0.0739  0.9390
 4399TIP3    H234613   5.190   5.927  15.175 -1.5602  0.3745  0.7983
 4400TIP3   OH234614   1.026   6.581   5.720  0.6390 -0.4610  0.0432
 4400TIP3    H134615   0.951   6.524   5.741  2.1216 -1.9248  1.6641
 4400TIP3    H234616   1.100   6.539   5.763  2.2584  1.4367 -0.7767
 4401TIP3   OH234617   1.923   6.645  13.931  0.0649  0.5755 -0.1262
 4401TIP3    H134618   1.949   6.620  13.842 -1.4290  1.7127 -0.9231
 4401TIP3    H234619   1.839   6.691  13.920  1.2888  3.4642  1.5186
 4402TIP3   OH234620   2.338   0.691   5.107 -0.7264 -0.2813  0.1987
 4402TIP3    H134621   2.398   0.617   5.093 -1.1032 -0.5511  0.0044
 4402TIP3    H234622   2.395   0.762   5.136 -0.3757 -0.6834  0.5097
 4403TIP3   OH234623   2.642   3.996  15.416 -0.1973  0.0152 -0.0512
 4403TIP3    H134624   2.727   3.956  15.396  1.0714  1.5009  1.9458
 4403TIP3    H234625   2.626   4.057  15.343 -0.5174 -1.6112 -1.3916
 4404TIP3   OH234626   4.630   2.799   4.395  0.1545 -1.1546 -0.1679
 4404TIP3    H134627   4.707   2.835   4.440  0.6551 -0.3892 -1.5726
 4404TIP3    H234628   4.557   2.854   4.424  0.1046 -1.8588  1.1431
 4405TIP3   OH234629   1.731   2.700   5.829  0.0434 -0.2075 -0.4375
 4405TIP3    H134630   1.760   2.618   5.869  1.4858  0.2004 -0.5837
 4405TIP3    H234631   1.662   2.733   5.887 -2.0209 -2.4751 -1.4144
 4406TIP3   OH234632   6.197   3.047  11.037  0.0680  0.4470 -0.0104
 4406TIP3    H134633   6.150   3.114  11.086 -0.4058  0.5116 -0.5386
 4406TIP3    H234634   6.144   2.968  11.049 -0.0077  0.4438 -0.3378
 4407TIP3   OH234635   3.461   3.045   4.081  0.0928 -0.3316  0.2287
 4407TIP3    H134636   3.512   3.067   4.159  0.2424 -0.2901  0.1213
 4407TIP3    H234637   3.526   3.006   4.021 -0.2076 -1.2974  0.5087
 4408TIP3   OH234638   6.240   2.001   0.625 -0.3049 -0.6532  0.3674
 4408TIP3    H134639   6.232   1.923   0.680 -0.4712 -0.6242  0.3834
 4408TIP3    H234640   6.155   2.043   0.630  0.1104  0.1318  1.2666
 4409TIP3   OH234641   6.707   5.999   4.933 -0.0791  0.9826 -0.1462
 4409TIP3    H134642   6.800   5.976   4.931  0.0915  1.6779 -2.2758
 4409TIP3    H234643   6.682   6.007   4.841 -3.0380 -2.2327  0.1500
 4410TIP3   OH234644   1.625   3.335  14.302  0.2487  0.0206  0.1788
 4410TIP3    H134645   1.678   3.414  14.296 -0.0411  0.1708 -0.5431
 4410TIP3    H234646   1.562   3.342  14.230  2.2786 -2.3691 -2.0617
 4411TIP3   OH234647   5.661   4.172   3.878  0.1741  0.3741 -0.0864
 4411TIP3    H134648   5.607   4.214   3.945  2.2993  3.5134 -0.1340
 4411TIP3    H234649   5.621   4.196   3.795 -0.7659 -1.0069 -0.0595
 4412TIP3   OH234650   3.412   4.220  16.891 -0.1996 -0.4846  0.3858
 4412TIP3    H134651   3.456   4.269  16.961 -1.4143  0.4964  0.5138
 4412TIP3    H234652   3.363   4.287  16.843  0.3959 -1.1862 -1.2510
 4413TIP3   OH234653   0.447   4.198   3.218 -0.0778  0.0376  0.2327
 4413TIP3    H134654   0.484   4.111   3.231  0.4915  0.3942  1.1050
 4413TIP3    H234655   0.402   4.218   3.300 -2.9363 -0.6834 -1.0332
 4414TIP3   OH234656   3.494   2.530  16.559  0.1895 -0.2166 -0.9589
 4414TIP3    H134657   3.469   2.620  16.582 -0.4749 -0.9730  1.5463
 4414TIP3    H234658   3.412   2.481  16.564  0.6716 -1.1042 -1.6011
 4415TIP3   OH234659   3.763   4.614  16.627  0.8412 -0.6159  0.4213
 4415TIP3    H134660   3.784   4.707  16.618  0.6707 -0.6620 -0.5429
 4415TIP3    H234661   3.717   4.608  16.710 -0.1138  0.3465 -0.0187
 4416TIP3   OH234662   4.393   1.693  13.973 -0.1033  0.0265  0.2145
 4416TIP3    H134663   4.316   1.718  14.024  0.7843  1.0847  1.0977
 4416TIP3    H234664   4.454   1.657  14.038  0.5705  0.2311 -0.2925
 4417TIP3   OH234665   4.427   4.373   2.839  0.0482  0.0989  0.0663
 4417TIP3    H134666   4.388   4.380   2.926 -1.6930  0.9369 -0.7098
 4417TIP3    H234667   4.439   4.464   2.811  1.6866 -0.1578 -0.1251
 4418TIP3   OH234668   1.029   1.160   5.578  0.0192  0.3025 -0.5477
 4418TIP3    H134669   1.024   1.072   5.615 -0.0172  0.2312 -0.7182
 4418TIP3    H234670   1.033   1.218   5.654 -0.9614  0.2156 -0.4183
 4419TIP3   OH234671   4.286   4.201  14.974 -0.1400 -0.7061 -0.4091
 4419TIP3    H134672   4.234   4.132  14.933 -0.5729 -1.2123  0.9237
 4419TIP3    H234673   4.287   4.178  15.067  0.2394  0.7528 -0.0270
 4420TIP3   OH234674   5.905   3.680  15.346 -0.3231  0.1820 -0.4084
 4420TIP3    H134675   5.884   3.587  15.353 -1.6946  0.5313  0.6075
 4420TIP3    H234676   5.991   3.688  15.387 -1.0551 -0.3785  1.3501
 4421TIP3   OH234677   1.956   2.304  15.833  0.5863 -0.5291 -0.3449
 4421TIP3    H134678   1.884   2.255  15.873 -0.5304  1.3884  0.1519
 4421TIP3    H234679   1.969   2.263  15.748 -2.3005  0.0561 -1.1745
 4422TIP3   OH234680   5.145   0.053   4.571 -0.4153 -1.0410  0.9440
 4422TIP3    H134681   5.102   0.058   4.657  1.5337 -0.4620  1.9328
 4422TIP3    H234682   5.232   0.090   4.585 -0.6927  0.8789 -1.7641
 4423TIP3   OH234683   4.767   0.758  11.074  0.1037 -0.4973  0.1334
 4423TIP3    H134684   4.713   0.750  10.996  0.4563  0.4361 -0.2230
 4423TIP3    H234685   4.769   0.852  11.093  2.8450 -0.2453 -0.8149
 4424TIP3   OH234686   6.428   0.091  10.954 -0.2086 -0.1611  0.1161
 4424TIP3    H134687   6.449   0.080  10.861 -3.2466  1.8853 -0.9704
 4424TIP3    H234688   6.380   0.174  10.959  0.1495  0.0082  3.6110
 4425TIP3   OH234689   3.566   0.434  11.145 -0.0600 -0.4994  0.0691
 4425TIP3    H134690   3.611   0.392  11.071  0.7371  0.0554  0.2287
 4425TIP3    H234691   3.593   0.525  11.140 -1.3251 -0.1057  0.0674
 4426TIP3   OH234692   3.413   6.646   1.885  0.5261 -0.3231 -0.4829
 4426TIP3    H134693   3.499   6.683   1.864  0.1513  0.4750 -0.6545
 4426TIP3    H234694   3.400   6.667   1.978 -0.7212  2.2340 -1.1163
 4427TIP3   OH234695   4.425   3.831   3.538  0.0392  0.1261  0.6592
 4427TIP3    H134696   4.481   3.908   3.533 -0.9681  0.8023 -0.9738
 4427TIP3    H234697   4.367   3.849   3.612 -0.3275  1.0653  0.1685
 4428TIP3   OH234698   4.112   2.242   3.274  0.1021 -0.3826 -0.0033
 4428TIP3    H134699   4.193   2.191   3.270  0.8274  0.7896 -2.7034
 4428TIP3    H234700   4.134   2.317   3.328 -0.0127 -1.3043  1.3780
 4429TIP3   OH234701   6.571   3.180  14.466 -0.4047 -0.1324 -0.2628
 4429TIP3    H134702   6.619   3.152  14.388 -1.4141 -0.2273 -0.8680
 4429TIP3    H234703   6.559   3.100  14.517 -2.0924 -0.6240 -1.3353
 4430TIP3   OH234704   0.071   6.584   0.661  0.5938 -0.1259 -0.3204
 4430TIP3    H134705   0.157   6.602   0.622  0.4750 -1.1180 -1.0951
 4430TIP3    H234706   0.090   6.541   0.744  0.8658 -0.6002 -0.6202
 4431TIP3   OH234707   2.886   0.766   2.196 -0.0729  0.1074  0.4341
 4431TIP3    H134708   2.831   0.816   2.256 -0.6441  0.0726 -0.0577
 4431TIP3    H234709   2.968   0.752   2.244 -1.0317 -1.1516  1.7830
 4432TIP3   OH234710   0.559   3.575  13.889  0.0800 -0.4896 -0.1465
 4432TIP3    H134711   0.526   3.487  13.874 -0.6657 -0.2218 -0.0944
 4432TIP3    H234712   0.548   3.619  13.804 -1.1275  0.0580  0.2849
 4433TIP3   OH234713   3.177   2.538  12.015 -0.1896 -0.6645  0.5620
 4433TIP3    H134714   3.182   2.489  12.097 -0.4124 -0.7899  0.5039
 4433TIP3    H234715   3.238   2.611  12.026  2.3207 -2.4869 -0.4244
 4434TIP3   OH234716   3.304   4.183  11.121 -0.3597  0.3304  0.6065
 4434TIP3    H134717   3.267   4.238  11.190 -1.0489 -0.5231  0.9422
 4434TIP3    H234718   3.287   4.231  11.040 -0.6051  0.7904  0.9265
 4435TIP3   OH234719   2.978   3.316  17.333  0.1050 -0.0540 -0.1751
 4435TIP3    H134720   3.029   3.371  17.392  0.0329 -0.6168  0.4160
 4435TIP3    H234721   3.025   3.233  17.330  0.0180 -0.0857 -0.7827
 4436TIP3   OH234722   2.834   4.926  13.269 -0.7035 -0.5031  0.4387
 4436TIP3    H134723   2.763   4.955  13.326  0.1078  0.7419  0.8583
 4436TIP3    H234724   2.913   4.943  13.319 -0.0516 -0.9280 -0.4209
 4437TIP3   OH234725   6.005   1.649   1.818  0.1150 -0.0401 -0.0422
 4437TIP3    H134726   5.928   1.605   1.783  0.4477  0.4074 -1.4035
 4437TIP3    H234727   6.068   1.579   1.833  0.6628 -0.0987 -2.2483
 4438TIP3   OH234728   2.175   3.524  16.341 -0.2625  0.4734 -0.0930
 4438TIP3    H134729   2.172   3.433  16.370  0.0098  0.2887 -0.6203
 4438TIP3    H234730   2.196   3.519  16.248  1.0836  1.1092  0.1403
 4439TIP3   OH234731   0.957   0.835  12.069  0.1485 -0.0774  0.0083
 4439TIP3    H134732   0.920   0.791  11.992 -1.1696  1.0280 -0.0280
 4439TIP3    H234733   0.966   0.765  12.134  0.1665 -0.8060 -0.7505
 4440TIP3   OH234734   6.367   0.147   5.521  0.3451 -0.5293 -0.4536
 4440TIP3    H134735   6.446   0.097   5.539  1.9661  1.8629 -0.4285
 4440TIP3    H234736   6.295   0.084   5.533  2.0846 -2.3204  1.4123
 4441TIP3   OH234737   2.374   5.440   0.373  0.0660 -0.3804  0.1085
 4441TIP3    H134738   2.457   5.395   0.355 -0.0283 -1.1392  1.4027
 4441TIP3    H234739   2.357   5.421   0.466 -1.4901 -0.1203 -0.1046
 4442TIP3   OH234740   5.421   2.171  16.439 -0.1336  0.5667 -0.3231
 4442TIP3    H134741   5.454   2.089  16.476 -0.5049  0.2541 -0.6756
 4442TIP3    H234742   5.488   2.197  16.376  0.1071  0.6744 -0.0279
 4443TIP3   OH234743   4.685   2.714  16.394 -0.0316  0.0338 -0.1563
 4443TIP3    H134744   4.777   2.739  16.402 -0.4720  1.5873  0.3790
 4443TIP3    H234745   4.641   2.762  16.463 -1.2700 -0.6373 -0.4465
 4444TIP3   OH234746   1.791   2.629   4.219 -0.0423  0.0752 -0.1693
 4444TIP3    H134747   1.784   2.693   4.148 -0.5749 -0.6784 -0.8082
 4444TIP3    H234748   1.771   2.545   4.178 -1.0873 -0.2897  1.0055
 4445TIP3   OH234749   2.276   0.667  13.086  0.6996  0.1929 -0.3300
 4445TIP3    H134750   2.184   0.651  13.105  0.3230  1.1181 -1.2627
 4445TIP3    H234751   2.277   0.692  12.994  1.7640  1.1102 -0.0888
 4446TIP3   OH234752   3.647   1.435  12.687 -0.4570 -0.1895 -0.2877
 4446TIP3    H134753   3.683   1.351  12.714  1.3698  0.8429  0.7453
 4446TIP3    H234754   3.688   1.499  12.746 -2.0635  1.4026 -0.7777
 4447TIP3   OH234755   2.811   3.383  11.693  0.3623  0.1340  0.4750
 4447TIP3    H134756   2.858   3.466  11.696  1.7035 -0.6207  2.1459
 4447TIP3    H234757   2.719   3.407  11.694  0.7311  1.6044  0.9469
 4448TIP3   OH234758   3.642   5.780  15.355 -0.4088 -0.2520  0.5568
 4448TIP3    H134759   3.629   5.875  15.353 -0.8753 -0.3110 -1.0925
 4448TIP3    H234760   3.557   5.744  15.379 -0.0138 -0.2541  2.0540
 4449TIP3   OH234761   1.774   4.339   3.901  0.8897 -0.7553  0.7165
 4449TIP3    H134762   1.801   4.397   3.830  1.0191 -1.5666  0.0851
 4449TIP3    H234763   1.832   4.361   3.974 -0.4502  1.3866  1.2293
 4450TIP3   OH234764   6.155   5.312   2.815  0.2438 -0.6243  0.0934
 4450TIP3    H134765   6.227   5.295   2.754  0.0789 -0.8441 -0.0423
 4450TIP3    H234766   6.083   5.342   2.759  0.4365  0.2580  0.2977
 4451TIP3   OH234767   6.556   2.908   6.115 -0.0103  0.2539 -0.3549
 4451TIP3    H134768   6.472   2.905   6.161  0.8193  2.2095  1.3978
 4451TIP3    H234769   6.584   2.816   6.112 -0.0331 -0.0174  3.2732
 4452TIP3   OH234770   6.282   5.820   0.819  0.3163 -0.3997  0.5893
 4452TIP3    H134771   6.305   5.730   0.795 -1.6530 -0.7154 -0.3518
 4452TIP3    H234772   6.298   5.825   0.913  1.7355 -1.2985  0.4179
 4453TIP3   OH234773   0.712   0.284  11.728 -0.0585 -0.2139 -0.2847
 4453TIP3    H134774   0.649   0.238  11.673 -0.1660 -1.2104  0.6389
 4453TIP3    H234775   0.661   0.355  11.768  0.1630  0.8931 -1.8928
 4454TIP3   OH234776   3.773   0.018  16.692 -0.2357 -0.4875 -0.3313
 4454TIP3    H134777   3.754   0.111  16.680  0.1170 -0.6250 -2.3854
 4454TIP3    H234778   3.719  -0.027  16.627  1.0227 -1.5381 -0.7122
 4455TIP3   OH234779   6.504   4.685  13.411  0.0525  0.1802 -1.1365
 4455TIP3    H134780   6.577   4.698  13.471 -1.0405  1.8194 -0.0758
 4455TIP3    H234781   6.529   4.732  13.331  1.1622 -1.3324 -1.7274
 4456TIP3   OH234782   2.303   4.314   1.986  0.2988  0.0077 -0.5845
 4456TIP3    H134783   2.287   4.234   2.037 -0.2526  0.5255  0.0758
 4456TIP3    H234784   2.398   4.318   1.977  0.3457 -0.5776 -0.3693
 4457TIP3   OH234785   5.586   4.366  14.105  0.1988 -0.7190 -0.5456
 4457TIP3    H134786   5.643   4.372  14.029  1.1844  0.4463  0.2498
 4457TIP3    H234787   5.623   4.294  14.157  1.0345  0.0933  0.0125
 4458TIP3   OH234788   4.467   3.568   1.234  0.1887  0.2538  0.2293
 4458TIP3    H134789   4.556   3.535   1.227 -0.5467 -1.9927  0.3732
 4458TIP3    H234790   4.445   3.598   1.146  0.5323 -0.7801 -0.2215
 4459TIP3   OH234791   2.769   1.410   2.023  0.3299  0.3690  0.5266
 4459TIP3    H134792   2.860   1.411   1.995  0.7711 -0.4682  1.8205
 4459TIP3    H234793   2.772   1.425   2.118 -0.8839  0.4832  0.5731
 4460TIP3   OH234794   2.404   5.626  14.752 -0.4147  0.4607  0.5180
 4460TIP3    H134795   2.457   5.704  14.730 -1.3426  1.2839  1.1249
 4460TIP3    H234796   2.467   5.554  14.752  0.5293  1.2588  0.2386
 4461TIP3   OH234797   1.369   1.760   5.590  0.5808  0.4397  0.0814
 4461TIP3    H134798   1.276   1.758   5.611  0.5115  1.0138 -0.1536
 4461TIP3    H234799   1.375   1.815   5.512  1.2864  1.7760  1.0454
 4462TIP3   OH234800   0.248   4.135  11.646  0.2119  0.3477  0.1258
 4462TIP3    H134801   0.183   4.092  11.702  1.1480 -1.4815 -0.1222
 4462TIP3    H234802   0.278   4.211  11.698 -0.7057  0.1022  1.0478
 4463TIP3   OH234803   5.629   3.433   4.852  0.7199 -0.4102  0.4188
 4463TIP3    H134804   5.638   3.370   4.923  0.1540 -1.8000 -0.6797
 4463TIP3    H234805   5.646   3.518   4.892  1.0866 -1.2158  2.0463
 4464TIP3   OH234806   3.815   0.344  11.733  0.3282  0.1411 -0.2840
 4464TIP3    H134807   3.726   0.310  11.720  0.2131  0.7275 -1.1177
 4464TIP3    H234808   3.871   0.266  11.729 -0.2573 -0.4840  1.9910
 4465TIP3   OH234809   0.857   3.547   1.754  0.6267  0.1519  0.4449
 4465TIP3    H134810   0.863   3.531   1.848  0.8892  0.1375  0.4258
 4465TIP3    H234811   0.794   3.482   1.722  1.6770 -0.8543  0.3694
 4466TIP3   OH234812   4.232   4.904  12.448  0.6116 -0.6996  0.1446
 4466TIP3    H134813   4.274   4.889  12.363  0.2192  0.1543 -0.2073
 4466TIP3    H234814   4.142   4.926  12.426  0.1404 -1.8325  0.8629
 4467TIP3   OH234815   6.323   3.966  16.130 -0.1575 -0.1980  0.1381
 4467TIP3    H134816   6.271   3.946  16.052 -2.3703 -1.5107  1.7938
 4467TIP3    H234817   6.258   3.997  16.194  1.2248 -1.1441  2.0954
 4468TIP3   OH234818   0.600   6.338   5.970  0.0251  0.1567 -0.2052
 4468TIP3    H134819   0.538   6.389   5.918  0.8830  1.5597  0.0792
 4468TIP3    H234820   0.548   6.304   6.043 -0.2636  2.2054  0.6296
 4469TIP3   OH234821   2.146   3.190   1.533  0.0514 -0.5815 -0.2721
 4469TIP3    H134822   2.068   3.169   1.584 -1.2203 -0.3239 -1.9936
 4469TIP3    H234823   2.201   3.112   1.539 -0.4312 -0.8557  0.7949
 4470TIP3   OH234824   3.409   2.934  11.444 -0.0740  0.2442  0.0086
 4470TIP3    H134825   3.433   2.979  11.525  1.1718  0.8312 -0.6574
 4470TIP3    H234826   3.412   2.841  11.466  0.7896  0.3836  0.5069
 4471TIP3   OH234827   0.432   5.583   5.519  0.1166  0.4834  0.4024
 4471TIP3    H134828   0.407   5.492   5.498 -1.4001  0.8411  0.5559
 4471TIP3    H234829   0.522   5.576   5.551  0.3741 -0.8406 -0.5028
 4472TIP3   OH234830   0.986   0.196  10.645  0.0429 -0.5317 -0.0895
 4472TIP3    H134831   0.981   0.175  10.738  0.3238 -0.8668 -0.1466
 4472TIP3    H234832   0.913   0.149  10.605 -1.2369  1.0990  0.2096
 4473TIP3   OH234833   2.347   6.049   4.295  0.2155 -0.6599 -0.3663
 4473TIP3    H134834   2.427   6.101   4.287 -0.5155  0.6657  0.5306
 4473TIP3    H234835   2.377   5.958   4.299  1.5047 -0.3946 -2.4969
 4474TIP3   OH234836   4.822   5.777   0.703  0.4855 -0.2323 -0.3044
 4474TIP3    H134837   4.812   5.720   0.780 -0.4415 -0.6000 -0.6824
 4474TIP3    H234838   4.834   5.865   0.740  1.3193 -0.5720  0.2753
 4475TIP3   OH234839   5.896   0.350  12.228 -0.5631  0.0868  0.1265
 4475TIP3    H134840   5.896   0.433  12.179 -1.7406  0.2610  0.4024
 4475TIP3    H234841   5.808   0.344  12.264  0.0893 -0.3687  1.7009
 4476TIP3   OH234842   4.635   3.762  13.945  0.2976  0.1438  0.3439
 4476TIP3    H134843   4.669   3.701  14.010  0.8167  1.5653  1.4582
 4476TIP3    H234844   4.709   3.822  13.928  0.0283  0.0775 -1.2213
 4477TIP3   OH234845   1.297   1.674  15.668  0.2327 -0.2037  0.6041
 4477TIP3    H134846   1.345   1.749  15.705 -0.5931  0.3314  0.6035
 4477TIP3    H234847   1.205   1.692  15.687 -0.1665 -0.2648 -1.0599
 4478TIP3   OH234848   3.121   6.213   0.421 -0.4620  0.2927  0.0663
 4478TIP3    H134849   3.043   6.158   0.420 -1.1510  0.9147  3.6315
 4478TIP3    H234850   3.189   6.157   0.459  0.5111  0.1762 -1.7566
 4479TIP3   OH234851   0.544   5.580   2.572 -0.7870  0.7998 -0.2564
 4479TIP3    H134852   0.566   5.561   2.481 -1.0682 -1.2847  0.0735
 4479TIP3    H234853   0.458   5.621   2.568 -0.4245  1.5189 -0.9677
 4480TIP3   OH234854   5.288   1.569  15.992 -0.0599  0.5980  0.7386
 4480TIP3    H134855   5.282   1.527  15.906 -1.8607  0.1507  1.0558
 4480TIP3    H234856   5.248   1.507  16.052 -0.8237  1.8437  1.5591
 4481TIP3   OH234857   5.338   1.028  14.195 -0.4671 -0.0998 -0.0054
 4481TIP3    H134858   5.269   1.059  14.137  0.3706  0.4264 -0.7622
 4481TIP3    H234859   5.405   1.097  14.191  0.4105 -0.9147  0.1405
 4482TIP3   OH234860   0.483   6.588  16.760  0.1189  0.2961  0.1949
 4482TIP3    H134861   0.497   6.552  16.673 -1.5190 -0.2032  0.0997
 4482TIP3    H234862   0.397   6.554  16.786  0.5452  0.4941  1.9745
 4483TIP3   OH234863   3.601   0.096  13.569 -0.0949 -0.4152  0.0149
 4483TIP3    H134864   3.549   0.021  13.598  1.7328 -1.7105  0.1104
 4483TIP3    H234865   3.583   0.164  13.635 -1.1462 -1.0242  0.3894
 4484TIP3   OH234866   1.545   0.116  15.710  0.2937 -0.2172  0.2379
 4484TIP3    H134867   1.575   0.198  15.669  2.0341 -0.8956  0.0446
 4484TIP3    H234868   1.465   0.094  15.663  1.0847  0.1562 -1.3796
 4485TIP3   OH234869   3.354   5.665  15.094 -0.4297  0.1148  0.0091
 4485TIP3    H134870   3.388   5.739  15.043  1.3621 -0.3025  0.5327
 4485TIP3    H234871   3.429   5.606  15.103 -2.2794 -2.9026 -2.3086
 4486TIP3   OH234872   0.932   4.989  10.682  0.0813 -0.0914 -0.1241
 4486TIP3    H134873   1.017   5.026  10.658 -0.4716 -0.4486 -2.9567
 4486TIP3    H234874   0.943   4.895  10.670 -0.2039 -0.3456  1.4039
 4487TIP3   OH234875   3.126   6.588  10.918  0.1859 -0.6279  0.3896
 4487TIP3    H134876   3.184   6.511  10.912  0.9421 -0.0151 -0.3811
 4487TIP3    H234877   3.179   6.660  10.886 -0.8697  0.0458  0.1199
 4488TIP3   OH234878   0.447   4.873  11.611  0.3075  0.1225  0.4646
 4488TIP3    H134879   0.473   4.905  11.697  3.0421  1.3743 -0.7194
 4488TIP3    H234880   0.503   4.797  11.595  2.8056  2.2210 -1.7026
 4489TIP3   OH234881   2.668   2.948  14.555  0.1098  0.4390  0.0697
 4489TIP3    H134882   2.728   2.873  14.555 -0.3155  0.0699 -1.2343
 4489TIP3    H234883   2.584   2.912  14.526 -0.3870  1.2181  0.4968
 4490TIP3   OH234884   3.483   2.521  13.688  0.5034  0.2279  0.3347
 4490TIP3    H134885   3.427   2.530  13.764  1.6532  0.6697  1.1609
 4490TIP3    H234886   3.496   2.427  13.678 -1.3697  0.0162 -0.6572
 4491TIP3   OH234887   5.487   5.990   4.681 -0.0144 -0.1340 -0.6421
 4491TIP3    H134888   5.565   6.028   4.721 -0.3687  0.7281 -0.7594
 4491TIP3    H234889   5.484   6.026   4.593 -0.1947 -0.6676 -0.8584
 4492TIP3   OH234890   1.567   3.273  13.610  0.1004 -0.0468  0.4369
 4492TIP3    H134891   1.499   3.333  13.642  0.7221  0.9884 -0.1202
 4492TIP3    H234892   1.607   3.320  13.537  1.9955 -0.2391  1.2890
 4493TIP3   OH234893   4.302   3.688   1.429  0.0029  0.5083  0.1228
 4493TIP3    H134894   4.231   3.629   1.456 -1.1435  0.8334 -1.9835
 4493TIP3    H234895   4.369   3.629   1.392 -0.7283  0.4280 -1.1111
 4494TIP3   OH234896   0.507   4.772   1.621 -0.4602  0.2290  0.2899
 4494TIP3    H134897   0.598   4.799   1.629 -0.8523  1.6152  0.4700
 4494TIP3    H234898   0.484   4.792   1.531 -0.8746  0.9568  0.5402
 4495TIP3   OH234899   4.930   5.367  15.341 -0.2095  0.2150 -0.1969
 4495TIP3    H134900   4.999   5.383  15.405 -0.6937 -1.7270  0.8759
 4495TIP3    H234901   4.853   5.409  15.377  0.0199  1.0467 -0.6403
 4496TIP3   OH234902   4.091   2.598   2.103 -0.2982 -0.6906 -0.4073
 4496TIP3    H134903   4.169   2.646   2.131  0.4707 -2.5806  0.9334
 4496TIP3    H234904   4.017   2.653   2.131  0.5360  0.5138 -0.5101
 4497TIP3   OH234905   2.949   2.369  15.161  0.0773 -0.5441 -0.0148
 4497TIP3    H134906   2.862   2.351  15.125  0.9601  0.4981 -2.9982
 4497TIP3    H234907   2.990   2.283  15.166 -0.9073 -0.9853  0.8735
 4498TIP3   OH234908   0.569   3.089  16.706 -0.0807  0.1177  0.1715
 4498TIP3    H134909   0.476   3.111  16.699 -0.0844  0.8301  1.9567
 4498TIP3    H234910   0.570   2.998  16.733 -0.1927 -0.3274 -1.2153
 4499TIP3   OH234911   3.179   5.300   3.258  0.3682 -0.1436  0.3140
 4499TIP3    H134912   3.112   5.247   3.301  1.1767 -0.9744  0.5759
 4499TIP3    H234913   3.152   5.390   3.274 -1.5505 -0.4475 -0.9509
 4500TIP3   OH234914   2.625   2.753   0.412 -0.4649 -0.3945 -0.4849
 4500TIP3    H134915   2.682   2.799   0.474  1.1453 -1.5599 -1.0207
 4500TIP3    H234916   2.587   2.823   0.358  0.3791  0.4397 -0.0293
 4501TIP3   OH234917   1.010   2.362  12.705  0.3866 -0.2615 -0.5223
 4501TIP3    H134918   0.987   2.446  12.665 -0.4705 -0.1934  0.0679
 4501TIP3    H234919   1.100   2.374  12.736 -0.5577  1.4152  1.9109
 4502TIP3   OH234920   6.473   2.762  15.164  0.1304 -0.1184 -0.2896
 4502TIP3    H134921   6.451   2.855  15.170  0.6543  0.1324 -1.7742
 4502TIP3    H234922   6.390   2.718  15.148 -0.3627 -0.1308  1.9344
 4503TIP3   OH234923   1.687   5.128   0.402  0.5337  0.6347 -0.3499
 4503TIP3    H134924   1.594   5.153   0.399  0.1804 -0.7066 -1.6341
 4503TIP3    H234925   1.707   5.121   0.495 -0.8024  0.4425 -0.0581
 4504TIP3   OH234926   0.203   3.297  12.830  0.4988 -0.1705 -0.0126
 4504TIP3    H134927   0.240   3.383  12.809 -0.2793  0.0575 -0.5283
 4504TIP3    H234928   0.172   3.305  12.920 -1.0056  0.6414 -0.5588
 4505TIP3   OH234929   3.497   6.016   3.357 -0.5056  0.2657 -0.0745
 4505TIP3    H134930   3.455   6.102   3.361  1.0234  1.0642 -0.4264
 4505TIP3    H234931   3.457   5.967   3.429  0.4025  2.1418  1.8122
 4506TIP3   OH234932   3.323   2.339  15.735  0.2978  0.0645  0.0487
 4506TIP3    H134933   3.408   2.315  15.773  1.7565 -0.7127 -3.3456
 4506TIP3    H234934   3.337   2.427  15.699  0.3465 -0.7643 -2.1139
 4507TIP3   OH234935   6.365   4.441   1.545  0.0235 -0.0062  0.1966
 4507TIP3    H134936   6.282   4.393   1.545  0.5092 -0.8931  1.6057
 4507TIP3    H234937   6.398   4.431   1.455 -0.9461 -0.4107 -0.1283
 4508TIP3   OH234938   1.444   2.289   2.754 -0.2853  0.6074  0.1537
 4508TIP3    H134939   1.483   2.366   2.712  1.0139 -1.2055 -2.2649
 4508TIP3    H234940   1.503   2.268   2.826  1.9701 -0.5964 -1.8962
 4509TIP3   OH234941   0.294   1.760   0.319  0.8680 -0.0755  0.2884
 4509TIP3    H134942   0.229   1.692   0.304 -0.0251  0.1917  2.5827
 4509TIP3    H234943   0.371   1.732   0.269  0.1889 -2.2246  0.3706
 4510TIP3   OH234944   1.410   5.628  15.360 -0.1011  0.4234 -0.8626
 4510TIP3    H134945   1.495   5.658  15.392 -0.4862  1.1069 -0.4644
 4510TIP3    H234946   1.367   5.707  15.328 -1.3199  0.4182  0.6336
 4511TIP3   OH234947   4.030   0.345   1.509 -0.3661 -0.5533 -0.4142
 4511TIP3    H134948   4.125   0.341   1.522 -0.5245 -0.0625  1.0799
 4511TIP3    H234949   4.016   0.424   1.457  0.0938 -1.0659 -1.3423
 4512TIP3   OH234950   4.080   0.618   0.568  0.0905 -0.0147 -0.0766
 4512TIP3    H134951   4.073   0.569   0.486 -2.3148 -0.9589  0.6024
 4512TIP3    H234952   4.061   0.709   0.544  1.5026  0.1038 -0.8511
 4513TIP3   OH234953   0.955   1.693  10.568  0.3573  0.3173  0.1839
 4513TIP3    H134954   0.992   1.764  10.516 -1.2625 -0.0935 -1.6369
 4513TIP3    H234955   0.891   1.652  10.511 -1.0113 -0.6452  2.2818
 4514TIP3   OH234956   5.615   0.528  14.230  0.2762 -0.3730  0.1748
 4514TIP3    H134957   5.535   0.581  14.230  0.3363 -0.2543  1.3492
 4514TIP3    H234958   5.673   0.572  14.168 -0.1851  0.1435  0.1010
 4515TIP3   OH234959   4.509   6.012  11.669 -0.3221  0.3862 -0.0162
 4515TIP3    H134960   4.576   6.079  11.662 -0.1044  0.1186 -0.5862
 4515TIP3    H234961   4.526   5.954  11.595 -0.0973 -0.6786  0.8501
 4516TIP3   OH234962   4.827   6.640  15.357 -0.1398  0.1085  0.0979
 4516TIP3    H134963   4.799   6.638  15.449 -1.1889 -4.7111 -0.0725
 4516TIP3    H234964   4.919   6.613  15.360 -0.1454  0.0461 -0.2970
 4517TIP3   OH234965   3.427   5.812   3.545  0.6293  0.6905 -0.1261
 4517TIP3    H134966   3.384   5.730   3.570 -0.0002  0.7244 -1.0567
 4517TIP3    H234967   3.500   5.820   3.607  1.9391 -1.5816 -1.2014
 4518TIP3   OH234968   2.336   1.681   1.350 -0.4833  0.5206 -0.4779
 4518TIP3    H134969   2.415   1.715   1.393 -0.4880 -0.4747  0.3518
 4518TIP3    H234970   2.302   1.756   1.300  0.8251  1.0456 -0.6281
 4519TIP3   OH234971   5.322   0.021  16.174 -0.3570 -0.2934  0.2368
 4519TIP3    H134972   5.295  -0.060  16.217  0.0360 -0.7139 -0.2970
 4519TIP3    H234973   5.247   0.045  16.119 -0.5516 -0.1755  0.5455
 4520TIP3   OH234974   6.558   0.431  15.019 -0.1576 -0.4650 -0.3715
 4520TIP3    H134975   6.560   0.498  15.087 -0.7322  1.0555 -1.8026
 4520TIP3    H234976   6.613   0.361  15.054  0.6146  0.8051  1.0979
 4521TIP3   OH234977   4.930   4.311  17.219  0.3175  1.1147  0.0381
 4521TIP3    H134978   5.007   4.356  17.255  1.3556 -0.8105  0.3561
 4521TIP3    H234979   4.921   4.347  17.131 -1.9035  5.4942  1.7290
 4522TIP3   OH234980   3.067   4.301  12.775  0.1433 -0.6012  0.0990
 4522TIP3    H134981   2.978   4.280  12.801  0.4322 -1.8526  0.1642
 4522TIP3    H234982   3.099   4.360  12.843 -0.0689 -1.5329  1.0457
 4523TIP3   OH234983   5.142   3.615   5.078  0.0850 -0.9612  0.6709
 4523TIP3    H134984   5.060   3.647   5.039 -0.0461 -1.0869  0.8448
 4523TIP3    H234985   5.155   3.528   5.040  0.6445 -0.5582 -0.1029
 4524TIP3   OH234986   3.003   6.507  13.978  0.1086 -0.1766  0.0553
 4524TIP3    H134987   3.022   6.599  13.961 -1.2214  0.1254  0.1164
 4524TIP3    H234988   2.984   6.469  13.892 -0.4017 -0.1310  0.1431
 4525TIP3   OH234989   3.626   0.648   3.847 -0.2076  0.3623 -0.1898
 4525TIP3    H134990   3.610   0.673   3.938 -0.8979  4.3272 -1.2124
 4525TIP3    H234991   3.556   0.587   3.826  0.9290 -2.0514  2.2614
 4526TIP3   OH234992   3.498   6.514   0.722 -0.4658 -0.2360 -0.2592
 4526TIP3    H134993   3.469   6.586   0.778 -0.6063 -0.0609 -0.5587
 4526TIP3    H234994   3.426   6.500   0.660  0.7161  1.3326 -2.1099
 4527TIP3   OH234995   1.540   1.288   2.215 -0.3522  0.2216  0.9145
 4527TIP3    H134996   1.539   1.256   2.124 -0.7599 -2.2072  1.7123
 4527TIP3    H234997   1.614   1.243   2.255 -0.3586  1.0483  1.8818
 4528TIP3   OH234998   5.386   0.263   2.048  0.6079 -0.8193  0.2851
 4528TIP3    H134999   5.481   0.255   2.040  0.4960 -1.1632 -0.9370
 4528TIP3    H235000   5.358   0.178   2.083  0.7234 -0.7965  0.4364
 4529TIP3   OH235001   3.709   1.466  11.717 -0.4157 -0.3615  0.2797
 4529TIP3    H135002   3.793   1.425  11.734 -0.2279 -0.1943 -0.2140
 4529TIP3    H235003   3.719   1.507  11.631 -0.8234  0.1169  0.4512
 4530TIP3   OH235004   5.139   5.221   5.194 -0.1490 -0.1389 -0.0262
 4530TIP3    H135005   5.049   5.224   5.163 -0.3444 -0.4395  0.5079
 4530TIP3    H235006   5.168   5.131   5.174 -0.0620 -0.1335  0.0764
 4531TIP3   OH235007   2.725   1.415  13.655 -0.5385 -0.1033 -0.8798
 4531TIP3    H135008   2.645   1.368  13.676 -0.1826 -0.9402 -1.3436
 4531TIP3    H235009   2.707   1.459  13.572 -0.4611 -0.4447 -1.0795
 4532TIP3   OH235010   3.522   3.466   0.336 -0.4792  0.5914 -0.2791
 4532TIP3    H135011   3.599   3.518   0.313 -0.7811  1.5892  0.8534
 4532TIP3    H235012   3.467   3.469   0.257 -1.1443  3.2758  0.2001
 4533TIP3   OH235013   6.564   4.934   6.050 -0.4698 -0.1139 -0.2368
 4533TIP3    H135014   6.561   4.888   6.133  0.7845  0.6732  0.2815
 4533TIP3    H235015   6.575   5.026   6.074  2.0155 -0.0744 -1.2191
 4534TIP3   OH235016   3.411   1.098   4.113  0.7821  0.7846 -0.2770
 4534TIP3    H135017   3.382   1.051   4.192  0.1495  0.7251 -0.5375
 4534TIP3    H235018   3.374   1.185   4.122  1.8588  1.2092  0.1468
 4535TIP3   OH235019   4.299   0.668   0.756  0.0016  0.0228  0.1337
 4535TIP3    H135020   4.244   0.738   0.792 -0.6122  0.4953 -1.6248
 4535TIP3    H235021   4.254   0.641   0.676  1.4536 -0.7626 -0.4536
 4536TIP3   OH235022   1.030   3.316   5.720 -0.1528 -0.1348  0.0656
 4536TIP3    H135023   1.014   3.358   5.805 -1.2507 -1.3692  0.5119
 4536TIP3    H235024   1.000   3.226   5.732 -1.3123 -0.0794 -1.9355
 4537TIP3   OH235025   1.131   5.640   6.427  0.0871 -0.3050 -0.0182
 4537TIP3    H135026   1.135   5.725   6.382 -1.6952  0.1825  0.6308
 4537TIP3    H235027   1.133   5.662   6.520 -3.1389 -0.6182  0.2662
 4538TIP3   OH235028   5.234   3.542  12.231  0.3503  0.5554 -0.2015
 4538TIP3    H135029   5.240   3.596  12.153 -0.1463 -0.2798 -0.8385
 4538TIP3    H235030   5.158   3.576  12.279 -0.0071  0.3764 -0.6371
 4539TIP3   OH235031   5.169   5.413  12.492 -0.0740 -0.1608 -0.4851
 4539TIP3    H135032   5.146   5.494  12.447  0.6845  0.2814 -0.0898
 4539TIP3    H235033   5.213   5.441  12.572  3.1912 -0.9184 -1.8535
 4540TIP3   OH235034   4.306   1.857  11.164 -0.1330 -0.4003 -0.7142
 4540TIP3    H135035   4.335   1.768  11.146  1.3111  0.0465 -0.6807
 4540TIP3    H235036   4.364   1.888  11.233 -1.5580  0.0851  0.3212
 4541TIP3   OH235037   1.750   5.256   4.939 -0.4145 -0.1532 -0.6452
 4541TIP3    H135038   1.778   5.209   5.017 -0.4916 -3.2239 -2.3132
 4541TIP3    H235039   1.828   5.260   4.884 -0.3993  1.8371 -0.5703
 4542TIP3   OH235040   2.262   0.381  13.368 -0.1941 -0.2318  0.2942
 4542TIP3    H135041   2.281   0.289  13.348  1.1872 -0.2651  1.5793
 4542TIP3    H235042   2.342   0.428  13.346 -0.9064  0.6964 -0.3873
 4543TIP3   OH235043   5.752   1.894   4.353  0.0369  0.4572 -0.7116
 4543TIP3    H135044   5.761   1.893   4.448 -1.0453 -0.6710 -0.5875
 4543TIP3    H235045   5.697   1.970   4.334 -0.6136  0.0887 -0.3286
 4544TIP3   OH235046   1.849   4.144  12.169  0.4066  0.3553  0.2541
 4544TIP3    H135047   1.829   4.081  12.100  0.7666  0.5784 -0.0558
 4544TIP3    H235048   1.812   4.104  12.249 -0.4376  0.3261 -0.1375
 4545TIP3   OH235049   0.278   1.941  16.083  0.8902  0.0671  0.3151
 4545TIP3    H135050   0.224   1.992  16.143  1.7730 -0.6025  1.7316
 4545TIP3    H235051   0.229   1.860  16.071 -0.4413  1.1136 -1.8213
 4546TIP3   OH235052   3.038   3.111  15.565  0.1311  0.7171  0.2160
 4546TIP3    H135053   3.001   3.175  15.504 -0.0181 -0.6431 -1.2095
 4546TIP3    H235054   2.968   3.093  15.627 -1.1036 -0.5933 -1.4590
 4547TIP3   OH235055   1.373   2.270  16.942  0.3617  0.1002 -0.8404
 4547TIP3    H135056   1.351   2.346  16.995  0.6533  0.2920 -0.9875
 4547TIP3    H235057   1.457   2.240  16.976  1.3854  1.2210 -2.2221
 4548TIP3   OH235058   4.512   3.949  11.644  0.1229  0.0371 -0.7008
 4548TIP3    H135059   4.481   3.937  11.734  0.2819 -1.4989 -0.8102
 4548TIP3    H235060   4.607   3.934  11.650  0.0582 -0.6247 -1.1929
 4549TIP3   OH235061   3.460   2.761  14.057  0.0770  0.5468 -0.0373
 4549TIP3    H135062   3.447   2.720  14.143 -0.3614 -0.8673 -0.7545
 4549TIP3    H235063   3.391   2.826  14.051 -0.5754 -0.1093  0.2334
 4550TIP3   OH235064   1.449   0.012  14.795 -0.1388 -0.3483  0.2132
 4550TIP3    H135065   1.476   0.092  14.749 -3.2133  0.1823 -0.8955
 4550TIP3    H235066   1.407  -0.042  14.728 -0.8077 -1.5492  1.5439
 4551TIP3   OH235067   3.218   4.370   3.506 -0.2365 -0.5071  0.1516
 4551TIP3    H135068   3.256   4.403   3.425 -0.2386  0.3021  0.4782
 4551TIP3    H235069   3.125   4.359   3.487 -1.6102  5.2546  1.6066
 4552TIP3   OH235070   1.927   4.983  17.128 -0.0391  0.5125 -0.4230
 4552TIP3    H135071   2.018   4.954  17.129  0.2333  1.3457 -0.0067
 4552TIP3    H235072   1.884   4.930  17.195 -0.1096 -0.6143 -1.3337
 4553TIP3   OH235073   3.230   2.839  14.509 -0.1759 -0.0371 -0.2103
 4553TIP3    H135074   3.182   2.922  14.513 -1.6850 -0.8802 -0.1944
 4553TIP3    H235075   3.203   2.792  14.588 -0.0654 -0.9187 -0.6869
 4554TIP3   OH235076   2.443   5.625   1.977 -0.0737  0.4318 -0.3637
 4554TIP3    H135077   2.401   5.671   1.905 -0.6451 -0.2850 -0.4910
 4554TIP3    H235078   2.482   5.547   1.938 -0.3962  0.0328  0.0967
 4555TIP3   OH235079   2.912   5.127   4.326  0.4009 -0.3131  0.5049
 4555TIP3    H135080   2.903   5.104   4.233  0.0392  1.0712  0.1667
 4555TIP3    H235081   2.822   5.132   4.358  0.5540 -1.8440  1.2308
 4556TIP3   OH235082   6.345   6.321  16.969 -0.6900  0.1010  0.3914
 4556TIP3    H135083   6.266   6.346  16.921 -2.1636  0.0417  2.6026
 4556TIP3    H235084   6.415   6.373  16.929 -2.5362  3.1765  0.7801
 4557TIP3   OH235085   0.986   2.628  12.641 -0.4094 -0.1034  0.1405
 4557TIP3    H135086   0.931   2.677  12.579 -0.5401  0.3583  0.6099
 4557TIP3    H235087   1.026   2.696  12.695 -1.9009 -0.5515  1.9046
 4558TIP3   OH235088   1.827   4.809  16.954  0.2821 -0.0884  0.0570
 4558TIP3    H135089   1.857   4.894  16.984  0.6095 -0.3940  0.6181
 4558TIP3    H235090   1.888   4.746  16.993 -0.8053 -0.6935  0.8470
 4559TIP3   OH235091   3.027   3.227   4.159  0.5693  0.0757 -0.4290
 4559TIP3    H135092   3.002   3.146   4.115  0.1149 -0.1545  0.2286
 4559TIP3    H235093   2.972   3.229   4.238  2.1160 -0.0845  0.7081
 4560TIP3   OH235094   3.308   2.811  17.043  0.4120 -0.3445  0.3961
 4560TIP3    H135095   3.234   2.800  17.103  0.7283 -1.5480  0.5846
 4560TIP3    H235096   3.292   2.896  17.002  1.0608  1.3505  3.3764
 4561TIP3   OH235097   1.371   4.283   3.606 -0.2497 -0.2236 -0.0165
 4561TIP3    H135098   1.364   4.301   3.513 -0.0921 -1.3387 -0.2626
 4561TIP3    H235099   1.431   4.350   3.639  0.0208 -0.0706 -0.7927
 4562TIP3   OH235100   2.568   0.690  10.476 -0.2279 -0.0771 -0.4752
 4562TIP3    H135101   2.542   0.764  10.422  0.4031 -1.1378 -2.3460
 4562TIP3    H235102   2.650   0.717  10.517  0.5746 -0.0927 -2.0024
 4563TIP3   OH235103   1.596   6.387   4.998  0.4721  0.1279  0.1562
 4563TIP3    H135104   1.609   6.398   5.092  0.3276  1.3294  0.0605
 4563TIP3    H235105   1.684   6.391   4.961  0.4621  0.5273  0.1711
 4564TIP3   OH235106   2.115   3.176   4.308  0.1778  0.4539 -0.0828
 4564TIP3    H135107   2.153   3.091   4.327  0.9714  0.6005 -0.9329
 4564TIP3    H235108   2.183   3.221   4.257 -0.9881  0.8608 -1.3189
 4565TIP3   OH235109   3.170   2.577   0.689 -0.3247 -0.6678  0.1174
 4565TIP3    H135110   3.115   2.617   0.757  2.5410  1.0930  1.5802
 4565TIP3    H235111   3.186   2.648   0.626  1.4341 -0.6392  0.5399
 4566TIP3   OH235112   5.256   2.475  17.364 -1.0257 -0.1123 -0.4152
 4566TIP3    H135113   5.201   2.495  17.439 -2.2519 -1.4708 -0.9163
 4566TIP3    H235114   5.250   2.554  17.309 -2.1641 -0.0906 -0.2766
 4567TIP3   OH235115   4.596   3.830  12.066 -0.4822 -0.0299  0.2234
 4567TIP3    H135116   4.648   3.751  12.074  0.1210  0.3436  0.0735
 4567TIP3    H235117   4.533   3.825  12.138 -1.1108 -1.1120 -0.3679
 4568TIP3   OH235118   2.912   3.998   3.851 -0.1809 -0.2060 -0.4434
 4568TIP3    H135119   2.948   4.080   3.885 -0.3665 -0.2300 -0.1869
 4568TIP3    H235120   2.838   3.979   3.908  0.2539 -0.8967 -0.0944
 4569TIP3   OH235121   5.904   2.244   4.735  0.7892  0.4328  0.2643
 4569TIP3    H135122   5.834   2.300   4.769 -0.1150 -0.5008  0.0123
 4569TIP3    H235123   5.946   2.296   4.667 -0.3518  0.6402 -0.3126
 4570TIP3   OH235124   3.788   1.514  15.387  0.3151 -0.2702  0.0864
 4570TIP3    H135125   3.861   1.571  15.362  0.5315 -0.8635 -0.6731
 4570TIP3    H235126   3.710   1.557  15.352  0.5141 -0.5892 -0.7886
 4571TIP3   OH235127   3.279   2.264   4.787  0.3820 -0.1905  0.0442
 4571TIP3    H135128   3.297   2.237   4.877  0.1855 -0.4310  0.0124
 4571TIP3    H235129   3.207   2.207   4.759 -0.4866  0.8016  0.2016
 4572TIP3   OH235130   1.352   2.363   0.183  0.2699 -0.1054 -0.4431
 4572TIP3    H135131   1.355   2.458   0.187 -0.9673 -0.0640  0.0183
 4572TIP3    H235132   1.368   2.334   0.273 -1.1376 -0.2464 -0.2215
 4573TIP3   OH235133   4.960   2.213  11.336 -0.3878 -0.0066  0.1029
 4573TIP3    H135134   5.009   2.236  11.415 -0.7134 -0.8205  0.5426
 4573TIP3    H235135   4.926   2.297  11.305 -1.0847  0.2110  1.3772
 4574TIP3   OH235136   3.029   2.382   2.164  0.1255 -0.0900  0.0545
 4574TIP3    H135137   3.067   2.447   2.106  0.6611 -1.3731 -1.0727
 4574TIP3    H235138   2.934   2.391   2.152  0.1972  0.4512 -0.1108
 4575TIP3   OH235139   2.933   1.515  10.723  0.0124  0.0365 -0.1841
 4575TIP3    H135140   2.874   1.498  10.650  1.8295 -0.3458 -1.6209
 4575TIP3    H235141   3.021   1.507  10.686  1.0170 -0.9187  2.1921
 4576TIP3   OH235142   2.180   0.795   1.938 -0.2307 -0.1809 -0.0322
 4576TIP3    H135143   2.086   0.798   1.955 -0.0872 -2.9085  1.8887
 4576TIP3    H235144   2.189   0.739   1.861 -0.1599  0.9394 -0.8763
 4577TIP3   OH235145   4.175   0.805   4.090 -0.1441 -0.0832 -0.1323
 4577TIP3    H135146   4.156   0.859   4.167 -1.0886  0.9754 -1.0832
 4577TIP3    H235147   4.129   0.722   4.107  0.6490 -0.3310  0.9660
 4578TIP3   OH235148   5.914   2.671   4.022 -0.4811 -0.0707  0.1261
 4578TIP3    H135149   5.826   2.647   3.994 -0.1712 -1.8490  0.5916
 4578TIP3    H235150   5.922   2.636   4.110  0.4890  0.6158  0.3249
 4579TIP3   OH235151   4.649   0.962   6.060 -0.2673  0.0799 -0.6214
 4579TIP3    H135152   4.653   0.981   6.154 -2.0752  1.6128 -0.8006
 4579TIP3    H235153   4.733   0.919   6.041  0.4518  0.3877  1.5402
 4580TIP3   OH235154   3.567   4.703   5.534 -0.1615  0.0026  0.1930
 4580TIP3    H135155   3.581   4.737   5.445  0.5589  0.7012  0.5614
 4580TIP3    H235156   3.571   4.608   5.524 -0.3330  0.0681 -0.5620
 4581TIP3   OH235157   1.928   0.095   0.254 -0.2705 -0.1677 -0.0070
 4581TIP3    H135158   1.854   0.095   0.193 -0.7985 -0.8281  0.6066
 4581TIP3    H235159   2.005   0.099   0.198 -0.7176 -1.5171 -0.7860
 4582TIP3   OH235160   2.305   4.118  17.341 -0.0230  0.0697 -0.0057
 4582TIP3    H135161   2.225   4.162  17.312  0.1649  0.6016  0.2571
 4582TIP3    H235162   2.369   4.140  17.273 -0.3345 -1.1402 -0.7081
 4583TIP3   OH235163   6.619   4.935  14.405  0.0041 -0.1007  0.4058
 4583TIP3    H135164   6.574   4.966  14.484  2.6373  1.7536  1.3139
 4583TIP3    H235165   6.671   4.861  14.434 -0.1298 -0.3297  0.0643
 4584TIP3   OH235166   3.242   4.014  15.748 -0.1404  0.3189 -0.6092
 4584TIP3    H135167   3.201   3.934  15.782 -1.6974  1.2871 -0.0940
 4584TIP3    H235168   3.174   4.055  15.695  0.4495  1.5647 -0.4301
 4585TIP3   OH235169   2.825   5.409  10.319  0.2891 -0.1688 -0.4153
 4585TIP3    H135170   2.852   5.411  10.410 -0.0738  0.8073 -0.3175
 4585TIP3    H235171   2.907   5.399  10.270  0.4385 -1.2416  0.0224
 4586TIP3   OH235172   0.507   5.379   0.294  0.4089  0.1755  0.2960
 4586TIP3    H135173   0.444   5.330   0.240  0.4114 -1.8262  2.0092
 4586TIP3    H235174   0.496   5.344   0.382  2.9490  0.7714  0.9261
 4587TIP3   OH235175   2.887   6.018  14.065  0.2835  0.1796  0.2647
 4587TIP3    H135176   2.936   5.972  13.996  2.1410  0.3589  1.4071
 4587TIP3    H235177   2.863   5.950  14.127  1.3847  0.4337  1.0017
 4588TIP3   OH235178   3.701   2.359   6.025 -0.1345 -0.6495  0.4296
 4588TIP3    H135179   3.779   2.309   6.047 -0.5399 -1.5650 -0.1429
 4588TIP3    H235180   3.629   2.296   6.031 -0.3197 -1.0010 -3.2278
 4589TIP3   OH235181   4.241   2.311  10.925 -0.2249  0.4748 -0.5400
 4589TIP3    H135182   4.330   2.284  10.950 -0.4869  0.7160  0.7333
 4589TIP3    H235183   4.254   2.378  10.859  0.5014 -0.6357 -1.5618
 4590TIP3   OH235184   3.020   3.024  13.430  0.1348 -0.1522  0.0819
 4590TIP3    H135185   3.060   3.068  13.505  0.2029  0.6433 -0.4106
 4590TIP3    H235186   2.948   3.081  13.404 -1.8489 -1.8852  1.3945
 4591TIP3   OH235187   3.769   5.548   5.529  0.5465  0.2951 -0.7920
 4591TIP3    H135188   3.857   5.533   5.494  1.1858  0.9581  0.4257
 4591TIP3    H235189   3.753   5.473   5.586  0.5854  0.4694 -0.5478
 4592TIP3   OH235190   0.806   5.752   3.808 -0.1739  0.2720 -0.5779
 4592TIP3    H135191   0.850   5.817   3.753 -0.4078 -1.5127 -3.0496
 4592TIP3    H235192   0.788   5.679   3.749 -1.2813 -1.4388  1.7169
 4593TIP3   OH235193   0.153   1.153   4.625 -0.0664  0.0666  0.3453
 4593TIP3    H135194   0.091   1.128   4.694 -0.2732  1.0670  0.5354
 4593TIP3    H235195   0.239   1.135   4.663 -0.2076 -0.3539  0.4752
 4594TIP3   OH235196   0.307   4.288  17.008  0.2659 -0.3358  0.4345
 4594TIP3    H135197   0.247   4.266  17.080 -0.1080 -0.9886 -0.0681
 4594TIP3    H235198   0.392   4.302  17.051 -0.3408  1.2360  1.2457
 4595TIP3   OH235199   4.742   6.445  14.967  0.0983 -0.3450 -0.4537
 4595TIP3    H135200   4.831   6.428  14.938 -0.3483 -0.1678 -1.9920
 4595TIP3    H235201   4.687   6.387  14.914 -0.6782 -0.9099  0.8970
 4596TIP3   OH235202   3.659   2.232  14.884  0.6022  0.1362 -0.0699
 4596TIP3    H135203   3.754   2.234  14.872  0.3759  1.3585 -2.2280
 4596TIP3    H235204   3.628   2.175  14.813 -0.2347 -1.3599  1.4297
 4597TIP3   OH235205   3.830   3.374   0.576 -0.6876 -0.0804  0.3991
 4597TIP3    H135206   3.845   3.280   0.585  0.1204 -0.3001 -2.2168
 4597TIP3    H235207   3.889   3.414   0.639 -2.2448 -1.2899  2.7654
 4598TIP3   OH235208   2.076   3.589  17.385 -0.4939 -0.0225 -0.2770
 4598TIP3    H135209   2.119   3.595  17.470 -1.1101  2.6250 -0.0603
 4598TIP3    H235210   2.066   3.495  17.369  1.0982 -0.6066  1.7917
 4599TIP3   OH235211   6.736   1.607  14.076 -0.0493  0.4209 -0.2298
 4599TIP3    H135212   6.690   1.558  14.008 -1.1447  0.8190  0.1950
 4599TIP3    H235213   6.713   1.562  14.157 -0.0933  0.9166  0.0374
 4600TIP3   OH235214   0.935   5.993  14.077 -0.3929  0.0815 -0.0685
 4600TIP3    H135215   0.916   6.082  14.107  0.4976  0.5116 -0.7291
 4600TIP3    H235216   0.975   5.950  14.153 -2.8218 -0.5071  0.9992
 4601TIP3   OH235217   0.208   4.227   1.019  0.0083  0.2921  0.7560
 4601TIP3    H135218   0.216   4.233   0.924 -0.7382 -0.2854  0.6467
 4601TIP3    H235219   0.282   4.279   1.052  1.2870 -0.8797 -0.1290
 4602TIP3   OH235220   0.403   6.234  15.097  0.0635  0.0069  0.3612
 4602TIP3    H135221   0.363   6.259  15.014  0.2668 -0.6384  0.0593
 4602TIP3    H235222   0.356   6.155  15.123  1.8633 -1.4293 -0.5748
 4603TIP3   OH235223   3.242   3.186  13.951 -0.0882  0.3702 -0.7593
 4603TIP3    H135224   3.194   3.240  13.888 -0.9184 -0.8140 -1.1892
 4603TIP3    H235225   3.334   3.206  13.935 -0.3073  0.4856 -1.9977
 4604TIP3   OH235226   5.315   4.583  17.210  0.3397  0.1161  0.5322
 4604TIP3    H135227   5.350   4.666  17.178  0.9310  0.2141  1.4122
 4604TIP3    H235228   5.326   4.523  17.136  0.0341  0.7858 -0.0629
 4605TIP3   OH235229   6.196   6.371  14.116  0.2436  0.3724  0.0518
 4605TIP3    H135230   6.207   6.445  14.176 -2.3784  2.9209 -2.3157
 4605TIP3    H235231   6.152   6.304  14.168 -1.9296  2.4584  1.0638
 4606TIP3   OH235232   0.629   0.676  11.995  0.0141  0.3002 -0.0483
 4606TIP3    H135233   0.670   0.740  11.936 -0.1836  1.1270  0.6852
 4606TIP3    H235234   0.540   0.708  12.006  0.3910  0.8439  1.6406
 4607TIP3   OH235235   5.923   0.595  17.281 -0.2120 -0.2572 -0.4409
 4607TIP3    H135236   5.884   0.656  17.219  0.7927  0.4371 -0.4186
 4607TIP3    H235237   5.950   0.649  17.355 -0.7794 -0.9763  0.3165
 4608TIP3   OH235238   1.168   0.423  12.009 -0.4676 -0.5557 -0.4269
 4608TIP3    H135239   1.137   0.396  12.095 -0.1269  0.6640  0.1074
 4608TIP3    H235240   1.095   0.472  11.971 -0.5922 -1.0296 -0.8046
 4609TIP3   OH235241   2.545   4.383   0.300  0.1130  0.0664  0.0148
 4609TIP3    H135242   2.455   4.416   0.295 -0.2270 -0.7972  0.1223
 4609TIP3    H235243   2.558   4.338   0.216  0.2795 -0.2012  0.1838
 4610TIP3   OH235244   3.137   3.669   5.139 -0.3654 -0.3753  0.0926
 4610TIP3    H135245   3.228   3.654   5.114 -0.1025 -0.0506  0.8321
 4610TIP3    H235246   3.125   3.617   5.219 -1.1792 -1.3687 -0.6480
 4611TIP3   OH235247   5.695   1.798   3.425 -0.5139  0.2972 -0.1408
 4611TIP3    H135248   5.752   1.843   3.363 -1.1733 -0.0205 -0.9849
 4611TIP3    H235249   5.693   1.857   3.501 -0.3716  1.0937 -0.7345
 4612TIP3   OH235250   0.867   4.119  14.523 -0.2797 -0.0181 -0.1507
 4612TIP3    H135251   0.778   4.123  14.557 -0.2795  1.8296 -0.2300
 4612TIP3    H235252   0.913   4.190  14.568  0.6678  0.1815 -1.3656
 4613TIP3   OH235253   2.905   1.135   2.323  0.0399  0.4887  0.1222
 4613TIP3    H135254   3.000   1.136   2.310  0.0956 -0.5528  0.4141
 4613TIP3    H235255   2.893   1.106   2.413 -0.5983 -1.7245 -0.6184
 4614TIP3   OH235256   2.717   2.448   0.811  0.4198 -0.3806 -0.3170
 4614TIP3    H135257   2.658   2.384   0.770  0.0633 -0.7877  0.7987
 4614TIP3    H235258   2.672   2.474   0.891  0.7793  0.9438 -0.5353
 4615TIP3   OH235259   4.060   0.970  13.000  0.2059  0.3368 -0.3431
 4615TIP3    H135260   4.030   0.884  13.030  0.0163  0.7666  0.7203
 4615TIP3    H235261   4.155   0.968  13.012  0.0258  0.9361  1.5075
 4616TIP3   OH235262   0.706   2.902   4.888 -0.0603  0.1072 -0.2129
 4616TIP3    H135263   0.669   2.836   4.829  2.1412 -2.3235  0.9010
 4616TIP3    H235264   0.734   2.973   4.830 -2.8644  0.3183 -1.4272
 4617TIP3   OH235265   5.595   0.363   2.713  0.0805  0.5795 -0.4911
 4617TIP3    H135266   5.512   0.346   2.757  0.3295  0.2703 -0.1429
 4617TIP3    H235267   5.632   0.277   2.696  1.4674  0.7303  1.5247
 4618TIP3   OH235268   2.970   2.138   3.696  0.0018  0.4023  0.1591
 4618TIP3    H135269   3.035   2.181   3.750  0.5424 -0.1852 -0.0055
 4618TIP3    H235270   3.018   2.111   3.617 -0.4046 -0.1422  0.0892
 4619TIP3   OH235271   6.463   5.145   2.810 -0.2951  0.1734  0.3744
 4619TIP3    H135272   6.456   5.237   2.783  1.8984  0.3461  0.2280
 4619TIP3    H235273   6.380   5.106   2.782 -0.9279  1.9131 -0.3408
 4620TIP3   OH235274   5.150   6.468   3.763 -0.1221 -0.5321 -0.7645
 4620TIP3    H135275   5.144   6.547   3.817 -0.0821 -0.6485 -0.5898
 4620TIP3    H235276   5.215   6.413   3.807  0.5543 -0.2580 -1.4007
 4621TIP3   OH235277   0.036   5.002  14.652 -0.2335 -0.0363 -0.2276
 4621TIP3    H135278   0.113   5.048  14.684 -1.0148  0.3398  1.2291
 4621TIP3    H235279  -0.016   4.984  14.731 -0.8517 -1.7513 -0.9574
 4622TIP3   OH235280   3.578   0.420   1.309  0.2274 -0.1175 -0.4881
 4622TIP3    H135281   3.621   0.433   1.394  1.5894 -0.1052 -1.1597
 4622TIP3    H235282   3.528   0.501   1.296  1.2170  0.5326 -0.3754
 4623TIP3   OH235283   1.135   0.368  10.891 -0.1069 -0.3451 -0.8261
 4623TIP3    H135284   1.040   0.359  10.882 -0.3123 -1.8111  1.6091
 4623TIP3    H235285   1.170   0.291  10.847 -0.0902 -0.1082 -1.2270
 4624TIP3   OH235286   2.227   4.180   4.151 -0.0357  0.2316 -0.0476
 4624TIP3    H135287   2.240   4.154   4.059  1.3358 -1.0414  0.4648
 4624TIP3    H235288   2.190   4.102   4.193  0.1701  0.5124  0.6636
 4625TIP3   OH235289   2.102   4.701   2.153  0.2447  0.6884  0.3739
 4625TIP3    H135290   2.007   4.688   2.157  0.0521 -0.0858 -3.1519
 4625TIP3    H235291   2.137   4.614   2.134  1.2245  1.5122 -1.9452
 4626TIP3   OH235292   2.356   2.367   4.677  0.5484  0.3003 -0.6830
 4626TIP3    H135293   2.416   2.347   4.749  0.5650  1.6232 -0.2922
 4626TIP3    H235294   2.393   2.445   4.636 -0.5932  0.8051 -0.7935
 4627TIP3   OH235295   5.413   2.621  16.014  0.1090  0.6895  0.4700
 4627TIP3    H135296   5.363   2.659  16.087  0.8530  1.7684  0.4439
 4627TIP3    H235297   5.428   2.694  15.954 -1.2342 -0.3574 -1.2386
 4628TIP3   OH235298   6.283   0.542  11.935  0.1995 -0.1290 -0.0002
 4628TIP3    H135299   6.350   0.569  11.873  0.0775  1.3682  0.4912
 4628TIP3    H235300   6.212   0.605  11.924 -1.5397 -2.1057 -1.0579
 4629TIP3   OH235301   1.596   3.040   4.731 -0.4917 -0.0390 -0.1798
 4629TIP3    H135302   1.664   3.053   4.665  0.4083 -1.3518  0.4416
 4629TIP3    H235303   1.532   3.109   4.713  0.3719  0.4529 -1.5799
 4630TIP3   OH235304   5.044   1.089   3.842  0.0053  0.5759 -0.1435
 4630TIP3    H135305   4.968   1.036   3.865 -1.4488  1.3742 -2.6712
 4630TIP3    H235306   5.033   1.171   3.890 -0.0345  0.1953  0.4959
 4631TIP3   OH235307   5.912   3.607   3.509 -0.8701  0.2782  0.1047
 4631TIP3    H135308   5.904   3.699   3.533  0.0600  0.7078 -1.0878
 4631TIP3    H235309   5.825   3.581   3.482 -1.0211  0.9903 -0.1157
 4632TIP3   OH235310   2.079   0.363  13.075 -0.6024 -0.0102  0.0366
 4632TIP3    H135311   2.107   0.405  13.156 -0.1538 -0.9626  0.3863
 4632TIP3    H235312   2.028   0.431  13.029 -2.1803  0.0534  1.7851
 4633TIP3   OH235313   5.830   3.739  11.863 -0.0078 -0.6297  0.3886
 4633TIP3    H135314   5.918   3.706  11.879 -0.1151 -0.0758  2.4073
 4633TIP3    H235315   5.839   3.834  11.861 -0.1483 -0.5758 -2.5246
 4634TIP3   OH235316   2.456   5.837   2.332  0.4159  0.0412  0.3406
 4634TIP3    H135317   2.455   5.931   2.350  0.3954  0.4348 -1.5277
 4634TIP3    H235318   2.364   5.815   2.316  0.5579 -0.0088 -0.4713
 4635TIP3   OH235319   2.724   3.117  15.097  0.2179  0.0434  0.4643
 4635TIP3    H135320   2.747   3.087  15.009  2.2411  1.2888  0.5103
 4635TIP3    H235321   2.642   3.165  15.085 -0.2558 -0.9605 -0.4731
 4636TIP3   OH235322   4.819   2.511   1.415  0.3397  0.3992 -0.1534
 4636TIP3    H135323   4.748   2.572   1.399  0.4039  0.4364 -0.2973
 4636TIP3    H235324   4.843   2.477   1.328 -0.1682 -0.3678 -0.0020
 4637TIP3   OH235325   3.046   3.050  14.477  0.4938  0.5067 -0.3074
 4637TIP3    H135326   2.954   3.040  14.452 -0.1482  0.3045  1.9058
 4637TIP3    H235327   3.053   3.139  14.509  0.9702  0.3740 -0.0272
 4638TIP3   OH235328   4.855   6.262   4.383 -0.0503 -0.2142  0.0013
 4638TIP3    H135329   4.951   6.261   4.383 -0.0431 -1.0697  0.6787
 4638TIP3    H235330   4.832   6.291   4.472 -0.4018 -1.8650  0.4710
 4639TIP3   OH235331   2.836   3.118  11.760 -0.0606 -0.0529 -0.2453
 4639TIP3    H135332   2.793   3.200  11.737 -0.5144  0.0487  0.8889
 4639TIP3    H235333   2.846   3.122  11.855  1.3188 -0.6404 -0.3364
 4640TIP3   OH235334   6.247   5.484  16.322 -0.1548  0.3624  0.1741
 4640TIP3    H135335   6.293   5.414  16.367  2.0167  1.3785 -0.3650
 4640TIP3    H235336   6.210   5.538  16.392 -1.2826 -0.8911  0.5970
 4641TIP3   OH235337   2.802   5.086   2.335 -0.0376 -0.5579  0.3670
 4641TIP3    H135338   2.817   5.036   2.255  0.1314 -0.5946  0.4198
 4641TIP3    H235339   2.872   5.152   2.336  0.7973 -1.4208  1.1662
 4642TIP3   OH235340   4.283   0.463   1.543  0.0032  0.0224  0.6302
 4642TIP3    H135341   4.281   0.559   1.550  2.9550  0.1429  1.0873
 4642TIP3    H235342   4.344   0.435   1.610  1.3438 -1.9329 -1.2583
 4643TIP3   OH235343   6.262   0.892  13.144  0.4052 -0.5059  0.0653
 4643TIP3    H135344   6.261   0.806  13.187  1.6676 -0.6435 -0.1365
 4643TIP3    H235345   6.246   0.873  13.052  2.9123 -0.8253 -0.3748
 4644TIP3   OH235346   0.236   6.245  11.055  0.3212  0.3737  0.4385
 4644TIP3    H135347   0.283   6.254  11.138 -0.8994  0.9807  1.0887
 4644TIP3    H235348   0.146   6.271  11.075 -0.0972  0.1133 -0.9811
 4645TIP3   OH235349   3.125   2.314   5.716  0.1720 -0.1481  0.5211
 4645TIP3    H135350   3.215   2.338   5.739 -0.2497  0.9446  1.1112
 4645TIP3    H235351   3.085   2.289   5.798 -0.3902  0.5065  0.4551
 4646TIP3   OH235352   1.982   0.356   1.050 -0.2590 -0.5853 -0.4924
 4646TIP3    H135353   2.066   0.363   1.006 -0.3467 -0.8586 -0.7072
 4646TIP3    H235354   1.988   0.276   1.103  0.1850  0.2324  0.7396
 4647TIP3   OH235355   6.435   1.191  12.426  0.0238  0.2665  0.0846
 4647TIP3    H135356   6.456   1.101  12.452  0.0095 -0.2164 -1.4854
 4647TIP3    H235357   6.510   1.219  12.376 -0.7955  0.4180 -1.0956
 4648TIP3   OH235358   0.449   2.018   5.745 -0.5283  0.2415  0.8573
 4648TIP3    H135359   0.520   2.036   5.807 -0.1067  1.0967  0.1358
 4648TIP3    H235360   0.369   2.032   5.796 -0.1842  0.0933  1.4459
 4649TIP3   OH235361   4.842   5.995  16.253 -0.2241  0.2441  0.0673
 4649TIP3    H135362   4.895   5.941  16.313  1.1211  1.9757  0.5281
 4649TIP3    H235363   4.899   6.008  16.177 -1.4507 -0.8924 -1.0890
 4650TIP3   OH235364   5.469   1.266  15.241  0.1306  0.0090  0.7556
 4650TIP3    H135365   5.404   1.332  15.217  0.4703 -0.2290 -0.9481
 4650TIP3    H235366   5.538   1.276  15.175  0.3772 -1.7665  0.7056
 4651TIP3   OH235367   4.271   0.580  16.967  0.1377 -0.2014 -0.6032
 4651TIP3    H135368   4.177   0.597  16.973 -0.0931 -1.7050  0.5633
 4651TIP3    H235369   4.281   0.489  16.995  2.1179  0.4362  0.9590
 4652TIP3   OH235370   6.666   6.350   5.339 -0.3421 -0.0724 -0.4472
 4652TIP3    H135371   6.592   6.401   5.372 -0.1655 -0.2491  0.2318
 4652TIP3    H235372   6.702   6.404   5.268 -1.0530  0.0624 -0.7141
 4653TIP3   OH235373   4.395   2.044  14.394 -0.6062 -0.0612  0.0226
 4653TIP3    H135374   4.311   2.089  14.404  0.0495  1.1633  0.1250
 4653TIP3    H235375   4.375   1.952  14.413 -1.8211  0.2940  0.5509
 4654TIP3   OH235376   1.983   4.667   5.216  0.1612 -0.2310  0.1113
 4654TIP3    H135377   1.993   4.654   5.311  1.1918  1.9474  0.3533
 4654TIP3    H235378   2.063   4.631   5.179  0.2580 -0.0961  0.1864
 4655TIP3   OH235379   6.428   3.497   4.661 -0.0093 -0.2728  0.1911
 4655TIP3    H135380   6.498   3.477   4.598  0.9656  2.1068  0.4156
 4655TIP3    H235381   6.380   3.569   4.621 -2.2790 -1.6989  0.1544
 4656TIP3   OH235382   1.118   4.700  11.668 -0.3863  0.3080  0.0810
 4656TIP3    H135383   1.060   4.648  11.723 -0.8066  0.5221 -0.1513
 4656TIP3    H235384   1.112   4.788  11.703 -0.4840  0.4012 -0.1696
 4657TIP3   OH235385   2.145   4.453   0.794 -0.6836  0.6307  0.1361
 4657TIP3    H135386   2.161   4.467   0.887  0.4146  2.2828 -0.2584
 4657TIP3    H235387   2.227   4.418   0.760 -0.8138  0.7931 -0.3605
 4658TIP3   OH235388   4.765   4.763  16.320 -0.4189 -0.1672 -0.0874
 4658TIP3    H135389   4.727   4.851  16.315 -1.2605 -0.4475  0.8684
 4658TIP3    H235390   4.859   4.778  16.330 -0.3773  0.5772 -1.3289
 4659TIP3   OH235391   2.037   5.939   5.305  0.0548 -0.1869 -0.0853
 4659TIP3    H135392   2.071   5.979   5.385  0.4349  1.2486 -0.9265
 4659TIP3    H235393   2.079   5.987   5.234 -1.1645 -0.6450 -1.1610
 4660TIP3   OH235394   6.486   0.041   2.398  0.6064  0.3264  0.2130
 4660TIP3    H135395   6.510   0.020   2.488  0.4097  1.0301  0.4352
 4660TIP3    H235396   6.412   0.101   2.407 -0.2756 -0.6245 -0.4303
 4661TIP3   OH235397   3.653   4.810   2.736 -0.5623 -0.3920 -0.5110
 4661TIP3    H135398   3.741   4.834   2.704 -0.7138  1.7005  0.4408
 4661TIP3    H235399   3.601   4.799   2.657  0.3427 -0.8091 -1.0716
 4662TIP3   OH235400   3.346   4.435  13.521  0.2654 -0.1238  0.2127
 4662TIP3    H135401   3.344   4.469  13.611 -0.6068 -1.1520  0.6198
 4662TIP3    H235402   3.254   4.433  13.495  0.6042  1.5563 -1.2918
 4663TIP3   OH235403   1.200   4.292   1.663  0.0179 -0.1099  0.6734
 4663TIP3    H135404   1.256   4.214   1.658 -0.6901 -0.7020  1.5835
 4663TIP3    H235405   1.116   4.259   1.697 -1.0356  0.6827 -1.0538
 4664TIP3   OH235406   5.593   4.609   2.704  0.2020 -0.3316  0.7326
 4664TIP3    H135407   5.649   4.686   2.720  1.5052 -1.3303  1.1281
 4664TIP3    H235408   5.573   4.576   2.792 -1.9500  0.6200  0.6602
 4665TIP3   OH235409   1.830   6.115   0.151 -0.4346  0.2922 -0.4564
 4665TIP3    H135410   1.887   6.070   0.215  0.3114 -0.1981 -1.4422
 4665TIP3    H235411   1.859   6.206   0.154  0.4779  0.0354 -0.9997
 4666TIP3   OH235412   4.912   3.410  13.286 -0.2119 -0.1795 -0.1283
 4666TIP3    H135413   4.969   3.403  13.209 -0.9812  0.9400 -0.8307
 4666TIP3    H235414   4.845   3.473  13.260  0.2649  1.2426  1.9432
 4667TIP3   OH235415   2.861   5.770   1.022 -0.5139  0.1122 -0.0040
 4667TIP3    H135416   2.774   5.747   1.053  0.1673 -0.5901  1.4528
 4667TIP3    H235417   2.880   5.705   0.953 -0.3374 -1.0336  1.0960
 4668TIP3   OH235418   4.123   1.151  12.582 -0.2678 -0.4675  0.1252
 4668TIP3    H135419   4.100   1.237  12.547 -0.7942 -0.6431  0.0186
 4668TIP3    H235420   4.217   1.156  12.599 -0.5732  0.6817  1.7106
 4669TIP3   OH235421   5.570   3.657   0.613  0.1712 -0.3967  0.5031
 4669TIP3    H135422   5.479   3.659   0.584 -0.1479 -0.6842  1.4393
 4669TIP3    H235423   5.619   3.699   0.542 -0.7980  0.5505  0.3683
 4670TIP3   OH235424   2.940   3.501  11.314 -0.0310 -0.2284  0.4221
 4670TIP3    H135425   2.934   3.434  11.382 -0.3158  0.3254  0.9448
 4670TIP3    H235426   2.850   3.530  11.299  0.2183  1.0000  1.1731
 4671TIP3   OH235427   3.077   4.184   1.323  0.2016 -0.7629  0.1401
 4671TIP3    H135428   3.075   4.279   1.332 -0.9103 -0.9402  2.3171
 4671TIP3    H235429   3.002   4.163   1.268  0.2621 -0.4011 -0.0798
 4672TIP3   OH235430   4.846   3.527   1.409  0.0941  0.3225  0.3875
 4672TIP3    H135431   4.866   3.506   1.318 -0.4009 -0.5978  0.4786
 4672TIP3    H235432   4.762   3.484   1.426  0.3423  0.1973  1.3703
 4673TIP3   OH235433   6.017   5.552   3.197  0.7196  0.8068 -0.1491
 4673TIP3    H135434   6.026   5.583   3.287 -0.4062 -0.5765  0.4812
 4673TIP3    H235435   6.104   5.519   3.175  1.0237  1.2098  0.4043
 4674TIP3   OH235436   2.676   1.560   0.096 -0.2961  0.0365 -0.6174
 4674TIP3    H135437   2.654   1.529   0.184  2.8244  0.0360  0.2851
 4674TIP3    H235438   2.669   1.483   0.041 -0.9898 -0.2770 -0.0981
 4675TIP3   OH235439   6.262   1.560   0.933 -0.4733  0.2805 -0.2183
 4675TIP3    H135440   6.218   1.500   0.872 -2.6817  2.6199 -1.1182
 4675TIP3    H235441   6.225   1.538   1.019 -2.3413  1.1727 -0.7450
 4676TIP3   OH235442   4.321   2.549  15.412  0.4916 -0.7909  0.0278
 4676TIP3    H135443   4.401   2.584  15.373 -0.9563  3.0144  0.0889
 4676TIP3    H235444   4.350   2.470  15.458  3.7222 -0.8913 -1.8372
 4677TIP3   OH235445   3.446   2.967   1.261 -0.2512 -0.1813  0.0481
 4677TIP3    H135446   3.379   3.011   1.208 -0.0646  1.3728  1.0273
 4677TIP3    H235447   3.453   3.021   1.340 -0.5745 -2.4403  1.7249
 4678TIP3   OH235448   5.258   4.150  14.288  0.0511  0.4414 -0.5939
 4678TIP3    H135449   5.199   4.093  14.238 -1.8618  2.0900 -0.3665
 4678TIP3    H235450   5.274   4.225  14.230  1.3248  0.3965 -0.3358
 4679TIP3   OH235451   3.865   0.518   3.892  0.2865  0.0725  0.1236
 4679TIP3    H135452   3.800   0.567   3.841 -0.7627 -1.4294 -0.0323
 4679TIP3    H235453   3.906   0.459   3.829  0.4142 -0.3817  0.6231
 4680TIP3   OH235454   5.443   0.763  12.747  0.4478  0.1219 -0.1257
 4680TIP3    H135455   5.398   0.838  12.707 -0.9529 -1.6909 -2.1258
 4680TIP3    H235456   5.514   0.743  12.687 -0.1252 -1.0835 -0.4252
 4681TIP3   OH235457   2.837   2.750  11.512  0.6592  0.2696  0.0283
 4681TIP3    H135458   2.864   2.684  11.576  0.9554 -0.1690 -0.5403
 4681TIP3    H235459   2.742   2.755  11.522  0.7312  0.4515  0.7298
 4682TIP3   OH235460   2.658   6.325  11.816  0.1713 -0.4705 -0.2797
 4682TIP3    H135461   2.657   6.285  11.904 -1.4833  1.7938  0.8261
 4682TIP3    H235462   2.566   6.341  11.796  0.5399 -0.8112 -2.4063
 4683TIP3   OH235463   1.021   3.408  14.479  0.3642  0.5209 -0.3127
 4683TIP3    H135464   1.080   3.407  14.404  1.2553 -0.9435  0.3484
 4683TIP3    H235465   0.946   3.459  14.451  1.0271  0.6558 -1.9179
 4684TIP3   OH235466   5.195   2.371  12.838 -0.0404 -0.3039  0.0131
 4684TIP3    H135467   5.172   2.366  12.745  0.2013 -1.7914  0.0124
 4684TIP3    H235468   5.290   2.381  12.839  0.0062 -0.7692  0.1135
 4685TIP3   OH235469   5.141   4.514  12.735  0.0792 -0.0629 -0.0664
 4685TIP3    H135470   5.120   4.476  12.650  0.0308 -1.4352  0.5328
 4685TIP3    H235471   5.129   4.442  12.797  2.7856  0.0972  0.7898
 4686TIP3   OH235472   2.399   0.683  11.771  0.2112 -0.1111 -0.1338
 4686TIP3    H135473   2.429   0.698  11.861 -0.5260 -0.5302  0.1861
 4686TIP3    H235474   2.477   0.650  11.726  0.5613  0.0046  0.3742
 4687TIP3   OH235475   6.170   4.699   1.468  0.0210 -0.0618  0.8940
 4687TIP3    H135476   6.075   4.685   1.473 -0.1259  0.8393  0.7996
 4687TIP3    H235477   6.186   4.723   1.377 -0.0656  2.3788  1.4386
 4688TIP3   OH235478   3.676   1.128  12.259  0.2865  0.2544  0.1503
 4688TIP3    H135479   3.620   1.109  12.183  1.9221  1.6509 -1.4990
 4688TIP3    H235480   3.616   1.163  12.325 -1.1550 -0.8469 -0.5229
 4689TIP3   OH235481   6.063   4.454  13.942  0.2441  0.0876  0.2875
 4689TIP3    H135482   6.138   4.511  13.930 -0.5052  1.4583  1.7156
 4689TIP3    H235483   6.093   4.387  14.004  0.6633 -0.1457 -0.1659
 4690TIP3   OH235484   1.448   6.164  14.718 -0.3758  0.6144 -0.3061
 4690TIP3    H135485   1.480   6.219  14.790 -1.9549  2.1354 -0.7104
 4690TIP3    H235486   1.501   6.084  14.724 -0.0941  0.9125  2.1945
 4691TIP3   OH235487   0.021   4.210  12.394 -0.1990  0.4671  0.0565
 4691TIP3    H135488  -0.008   4.121  12.374 -1.3555  1.2714 -2.1622
 4691TIP3    H235489   0.107   4.218  12.353 -2.0101  1.6907 -4.0490
 4692TIP3   OH235490   1.706   4.325  10.926 -0.9102 -0.2704  0.0376
 4692TIP3    H135491   1.697   4.397  10.988 -1.5002  0.9000 -1.3596
 4692TIP3    H235492   1.775   4.354  10.866 -1.0102 -0.9554 -0.4143
 4693TIP3   OH235493   2.290   4.238  15.151  0.0727 -0.0832  0.0554
 4693TIP3    H135494   2.323   4.312  15.101 -0.0583  0.1840  0.3565
 4693TIP3    H235495   2.303   4.263  15.242 -0.8210 -0.0204  0.1816
 4694TIP3   OH235496   2.317   4.486   1.520 -0.3519  0.2263 -0.4113
 4694TIP3    H135497   2.269   4.532   1.450  2.0606  0.3331 -2.1067
 4694TIP3    H235498   2.403   4.527   1.521  1.8424 -3.8188 -1.7178
 4695TIP3   OH235499   0.765   0.689   6.060 -0.1845 -0.2729 -0.1799
 4695TIP3    H135500   0.670   0.691   6.057 -0.2058 -1.4654 -0.4304
 4695TIP3    H235501   0.789   0.773   6.099 -1.3686 -0.4179  0.9041
 4696TIP3   OH235502   4.288   0.531   2.293 -0.5863 -0.0213 -0.1519
 4696TIP3    H135503   4.229   0.595   2.253  0.5603  1.0366 -0.2173
 4696TIP3    H235504   4.356   0.584   2.335  1.6292 -1.1546 -2.0350
 4697TIP3   OH235505   3.401   1.976  12.119 -0.1742  0.3766 -0.5438
 4697TIP3    H135506   3.379   2.069  12.109  2.7916  1.1751 -0.6232
 4697TIP3    H235507   3.466   1.959  12.050 -1.4139 -2.1042 -1.2254
 4698TIP3   OH235508   3.488   5.541   3.889  0.3327 -0.0948  0.0350
 4698TIP3    H135509   3.569   5.591   3.903  1.3965 -1.7889  0.2685
 4698TIP3    H235510   3.514   5.471   3.829 -1.0280 -0.5322 -0.0662
 4699TIP3   OH235511   6.463   6.186  13.215  0.4510  0.0798  0.6576
 4699TIP3    H135512   6.516   6.119  13.260  0.6464  1.2785  2.3050
 4699TIP3    H235513   6.376   6.179  13.255 -0.3298 -0.9857 -1.1080
 4700TIP3   OH235514   5.814   6.178  10.585  0.1782 -0.3856  0.2527
 4700TIP3    H135515   5.725   6.152  10.608 -0.1108 -1.1266 -1.5180
 4700TIP3    H235516   5.827   6.261  10.630 -1.7031  0.1215 -0.0403
 4701TIP3   OH235517   1.097   2.889  12.648 -0.2825  0.4585  0.8074
 4701TIP3    H135518   1.174   2.840  12.618 -0.4236  0.2478  0.7807
 4701TIP3    H235519   1.075   2.945  12.574  1.0603  2.0468  1.5368
 4702TIP3   OH235520   4.468   5.222  16.222  0.2115  0.1321  0.0384
 4702TIP3    H135521   4.522   5.265  16.289 -0.9448 -0.6288  1.5221
 4702TIP3    H235522   4.496   5.262  16.140 -0.0410  2.9278  1.2131
 4703TIP3   OH235523   2.715   2.402  10.187  0.1399  0.0424 -0.1739
 4703TIP3    H135524   2.681   2.348  10.116  0.8479 -2.6776  1.4031
 4703TIP3    H235525   2.789   2.449  10.149  0.7357 -1.6260 -1.1486
 4704TIP3   OH235526   1.544   5.670   5.823 -0.4810  0.0951  0.5322
 4704TIP3    H135527   1.617   5.732   5.832  0.1185 -0.3219 -1.0540
 4704TIP3    H235528   1.577   5.589   5.862  0.2546 -0.3200 -0.8643
 4705TIP3   OH235529   6.735   1.026  13.146 -0.4281  0.2018 -0.4107
 4705TIP3    H135530   6.730   1.096  13.212 -1.9710  0.2837 -0.5715
 4705TIP3    H235531   6.653   0.978  13.157 -0.9028  0.4467 -2.4991
 4706TIP3   OH235532   6.670   0.683  13.388 -0.1494 -0.2981  0.0053
 4706TIP3    H135533   6.730   0.737  13.335 -0.1926 -1.4045 -1.2318
 4706TIP3    H235534   6.698   0.593  13.371 -2.2331 -0.8561 -0.7274
 4707TIP3   OH235535   3.939   6.144  16.239  0.0616 -0.4953  0.3189
 4707TIP3    H135536   3.904   6.091  16.311  0.5718 -1.0374  0.1829
 4707TIP3    H235537   4.028   6.166  16.267 -0.9029  2.4144  1.4895
 4708TIP3   OH235538   0.373   5.360   4.779  0.0632  0.2731  0.4196
 4708TIP3    H135539   0.324   5.414   4.841 -2.1357 -0.6849 -0.3519
 4708TIP3    H235540   0.342   5.389   4.693  2.6038  1.1688 -0.2847
 4709TIP3   OH235541   3.238   2.471  13.520  0.2221  0.0595  0.1006
 4709TIP3    H135542   3.324   2.436  13.544  1.0076  2.0743  0.4196
 4709TIP3    H235543   3.244   2.565  13.540 -2.3983  0.0920  1.0645
 4710TIP3   OH235544   2.318   2.669   3.594  0.2875  0.7426 -0.2946
 4710TIP3    H135545   2.410   2.680   3.570  0.7313 -2.2773 -0.3675
 4710TIP3    H235546   2.321   2.637   3.684 -0.3454 -2.9451 -1.4265
 4711TIP3   OH235547   2.781   6.650   1.162  0.9271  0.2345  0.0402
 4711TIP3    H135548   2.749   6.693   1.241  0.6771 -0.7408  0.4790
 4711TIP3    H235549   2.710   6.593   1.134  1.6603 -0.7577  0.1204
 4712TIP3   OH235550   3.436   4.702  15.567  0.4002  0.1317 -0.2926
 4712TIP3    H135551   3.448   4.642  15.494  1.4225  0.1237 -0.1333
 4712TIP3    H235552   3.345   4.689  15.594 -0.4232  1.0287 -2.3452
 4713TIP3   OH235553   3.049   0.359   5.668 -0.1780  0.3604 -0.0766
 4713TIP3    H135554   3.122   0.297   5.665  1.1518  1.7911  1.2493
 4713TIP3    H235555   3.060   0.412   5.589  1.0905  1.4634  0.8022
 4714TIP3   OH235556   5.584   3.105  10.744 -0.0115 -0.5305 -0.0701
 4714TIP3    H135557   5.636   3.181  10.718  2.3052 -2.3918 -1.3071
 4714TIP3    H235558   5.502   3.115  10.696  0.4518  0.9068 -0.6202
 4715TIP3   OH235559   5.254   6.110   0.554 -0.3816  0.1979 -0.2593
 4715TIP3    H135560   5.240   6.196   0.592 -1.6346  1.0528 -2.4841
 4715TIP3    H235561   5.213   6.049   0.616 -1.5422  1.4150  0.1970
 4716TIP3   OH235562   5.375   1.132   0.921 -0.1347 -0.3296 -1.1290
 4716TIP3    H135563   5.302   1.091   0.967 -1.4347  1.2433 -1.6970
 4716TIP3    H235564   5.431   1.167   0.991 -0.8059 -0.0880 -0.7046
 4717TIP3   OH235565   0.852   1.480   5.666 -0.4041  0.0112 -0.2374
 4717TIP3    H135566   0.759   1.503   5.665 -0.6479 -0.9493 -0.9465
 4717TIP3    H235567   0.854   1.387   5.644  0.6350 -0.3289  1.0976
 4718TIP3   OH235568   4.203   1.080   2.144  0.3246 -0.0096  0.5467
 4718TIP3    H135569   4.158   1.075   2.060 -1.4375 -2.8512  1.5023
 4718TIP3    H235570   4.153   1.143   2.195 -0.7007 -0.7744  0.5262
 4719TIP3   OH235571   4.953   0.126  17.368 -0.7330  0.2740 -0.0868
 4719TIP3    H135572   4.956   0.047  17.313  0.0168  0.2892 -0.0775
 4719TIP3    H235573   4.974   0.095  17.456 -0.3665  0.4974 -0.0950
 4720TIP3   OH235574   4.339   1.222   3.585 -0.6200 -0.2692 -0.0714
 4720TIP3    H135575   4.335   1.127   3.572 -0.0154 -0.4739  1.1122
 4720TIP3    H235576   4.303   1.259   3.504 -0.3429 -1.4919 -0.7760
 4721TIP3   OH235577   6.258   6.121   6.851 -0.3261  0.4199 -0.2188
 4721TIP3    H135578   6.240   6.042   6.903  0.3543 -0.7650 -1.7074
 4721TIP3    H235579   6.351   6.115   6.831 -0.1927  1.8045 -0.0819
 4722TIP3   OH235580   2.301   3.911   5.022 -0.0485 -0.0089  0.5166
 4722TIP3    H135581   2.252   3.829   5.032  0.6659 -0.6122 -0.6794
 4722TIP3    H235582   2.254   3.974   5.078 -1.6126 -0.7890  0.1541
 4723TIP3   OH235583   2.210   0.978   2.967 -0.4015  0.6578  0.0602
 4723TIP3    H135584   2.245   1.064   2.941  0.5802  0.2803  0.1132
 4723TIP3    H235585   2.189   0.988   3.060 -1.9532  1.3629 -0.3152
 4724TIP3   OH235586   4.603   2.973  16.873 -0.1564 -0.6995  0.0423
 4724TIP3    H135587   4.511   2.948  16.883 -0.0943 -0.3831  1.5910
 4724TIP3    H235588   4.601   3.053  16.820 -0.7473 -0.8063 -0.1081
 4725TIP3   OH235589   4.329   0.271   5.902  0.0737  0.4832 -0.2490
 4725TIP3    H135590   4.267   0.344   5.903  0.8837  1.2462 -1.8091
 4725TIP3    H235591   4.415   0.313   5.895  0.5824 -0.6207 -0.8028
 4726TIP3   OH235592   2.905   4.001   1.469  0.0292  0.1516 -1.1738
 4726TIP3    H135593   2.994   4.023   1.442  0.0228 -1.3686 -2.6201
 4726TIP3    H235594   2.849   4.055   1.413  0.0525 -0.1686 -1.5157
 4727TIP3   OH235595   4.742   4.879   2.903 -0.2687 -0.0915 -0.4525
 4727TIP3    H135596   4.796   4.869   2.981  1.5522  1.4820 -1.4384
 4727TIP3    H235597   4.749   4.794   2.859 -0.1054 -0.5025  0.3280
 4728TIP3   OH235598   4.323   5.278  12.428 -0.0481 -0.6644  0.2463
 4728TIP3    H135599   4.229   5.296  12.424  0.2191  1.1020  0.6667
 4728TIP3    H235600   4.353   5.288  12.338  0.4396  3.8449  0.6551
 4729TIP3   OH235601   1.749   0.520  10.975  0.1405  0.0969  0.3102
 4729TIP3    H135602   1.779   0.562  10.894  1.3262  2.8800  2.0276
 4729TIP3    H235603   1.829   0.483  11.013 -0.0981  0.1803  0.9064
 4730TIP3   OH235604   3.150   6.367  13.379 -0.1804 -0.0568  0.0884
 4730TIP3    H135605   3.192   6.286  13.408 -1.5157  0.1697  2.9661
 4730TIP3    H235606   3.193   6.388  13.296  2.3462 -2.0636  0.7693
 4731TIP3   OH235607   5.030   2.686  13.823 -0.0902  0.0578  0.2435
 4731TIP3    H135608   4.951   2.709  13.873  0.4586  1.3094  0.5971
 4731TIP3    H235609   5.027   2.591  13.815 -0.2869 -0.2074  2.5730
 4732TIP3   OH235610   0.298   2.137  16.484  0.0662  0.1784 -0.1333
 4732TIP3    H135611   0.221   2.100  16.441 -1.1479 -0.2552  2.2119
 4732TIP3    H235612   0.309   2.223  16.444 -1.5980  0.2087 -0.6152
 4733TIP3   OH235613   3.116   5.868   1.809 -0.3549  0.0865  0.4062
 4733TIP3    H135614   3.163   5.872   1.726 -0.0463  2.8873  0.6070
 4733TIP3    H235615   3.184   5.883   1.875 -1.1038  1.9649  0.8305
 4734TIP3   OH235616   4.243   6.071   4.342 -0.1786  0.1957  0.4958
 4734TIP3    H135617   4.174   6.135   4.360  0.4785  1.4975 -1.2476
 4734TIP3    H235618   4.251   6.072   4.246  1.7741 -0.4166  0.6065
 4735TIP3   OH235619   0.878   5.529   5.283  0.1473  0.1504  0.8542
 4735TIP3    H135620   0.819   5.604   5.275 -0.1464 -0.1435  0.2060
 4735TIP3    H235621   0.821   5.456   5.306  0.2631 -0.1114  0.3364
 4736TIP3   OH235622   0.055   5.573  14.518  0.0337  0.4124 -0.0074
 4736TIP3    H135623   0.066   5.491  14.565 -0.4878 -1.2211 -2.5756
 4736TIP3    H235624  -0.032   5.604  14.545  0.0355 -0.1062  0.6219
 4737TIP3   OH235625   3.523   5.297   1.518 -0.4431  0.1900 -0.2460
 4737TIP3    H135626   3.590   5.310   1.585  0.2299 -0.3089 -0.8091
 4737TIP3    H235627   3.522   5.380   1.470  0.5211 -0.1593 -0.8909
 4738TIP3   OH235628   6.048   6.525   3.543  0.1916  0.1110 -0.0854
 4738TIP3    H135629   6.139   6.527   3.513  1.1760  2.2795  2.5753
 4738TIP3    H235630   6.018   6.615   3.535 -0.6571  0.0546  1.8775
 4739TIP3   OH235631   6.690   1.457  14.594 -0.0045 -0.1851 -0.2536
 4739TIP3    H135632   6.700   1.468  14.500  0.3777 -0.5511 -0.2591
 4739TIP3    H235633   6.611   1.403  14.604 -1.8602  2.3699 -0.2273
 4740TIP3   OH235634   0.996   0.470  16.543 -0.0669 -0.0053 -0.3291
 4740TIP3    H135635   1.046   0.540  16.584  1.9976 -0.6512 -1.6038
 4740TIP3    H235636   1.027   0.390  16.587 -1.3404 -0.2697  0.1219
 4741TIP3   OH235637   3.132   4.448   2.256 -0.2188  0.2427  0.3223
 4741TIP3    H135638   3.093   4.397   2.326 -1.1974  0.7614  0.1850
 4741TIP3    H235639   3.222   4.465   2.284 -0.6534  0.6043  1.5458
 4742TIP3   OH235640   3.370   0.382   4.352 -0.0041 -0.6929 -0.4458
 4742TIP3    H135641   3.375   0.408   4.260 -0.4792  0.5705 -0.1315
 4742TIP3    H235642   3.411   0.454   4.400  2.3092 -2.3437  0.2210
 4743TIP3   OH235643   0.364   0.901  14.886 -0.2304  0.5525 -0.0561
 4743TIP3    H135644   0.375   0.962  14.813 -2.3782  1.7229  0.4988
 4743TIP3    H235645   0.280   0.926  14.924 -0.1600 -1.4257  1.5082
 4744TIP3   OH235646   2.026   3.443  15.501  0.0321 -0.0253 -0.6843
 4744TIP3    H135647   2.092   3.379  15.527  0.5918  1.0603  0.7502
 4744TIP3    H235648   2.075   3.511  15.455 -0.0702  0.7290  0.2828
 4745TIP3   OH235649   4.413   0.970  12.241  0.0109  0.7909 -0.1161
 4745TIP3    H135650   4.435   1.060  12.265  1.6162 -0.1740  2.5303
 4745TIP3    H235651   4.339   0.947  12.297  1.4935 -0.3965  1.4478
 4746TIP3   OH235652   3.306   2.669   3.337  0.4005  0.1759  0.5285
 4746TIP3    H135653   3.392   2.680   3.296  0.5777  0.9510  1.0726
 4746TIP3    H235654   3.244   2.679   3.266  0.6788  1.9935  0.4714
 4747TIP3   OH235655   3.215   6.059  17.234  0.7847  0.2452 -0.0407
 4747TIP3    H135656   3.192   6.029  17.146 -0.2261  1.5059 -0.2433
 4747TIP3    H235657   3.274   6.133  17.220 -0.3782  1.2769  0.2516
 4748TIP3   OH235658   4.774   0.727   6.377  0.1196  0.1337  0.2001
 4748TIP3    H135659   4.806   0.652   6.327  0.3163 -0.5605  1.3329
 4748TIP3    H235660   4.850   0.757   6.426 -0.2630  0.2828  0.7081
 4749TIP3   OH235661   2.893   6.235   4.611 -0.2212 -0.0306  0.4458
 4749TIP3    H135662   2.919   6.242   4.519  0.7476 -0.3649  0.6724
 4749TIP3    H235663   2.800   6.213   4.609 -0.2500  0.1379 -0.4462
 4750TIP3   OH235664   0.423   0.647  17.351 -0.6841 -0.1016  0.5439
 4750TIP3    H135665   0.332   0.625  17.368 -0.5876 -0.7969  0.1687
 4750TIP3    H235666   0.420   0.739  17.323 -1.7761 -1.1238 -3.3133
 4751TIP3   OH235667   3.522   2.447   2.142 -0.2707  0.1827  0.3881
 4751TIP3    H135668   3.571   2.509   2.088 -1.5460  0.2773 -0.7092
 4751TIP3    H235669   3.467   2.400   2.080  0.3615 -1.7879  1.2496
 4752TIP3   OH235670   3.635   3.550   4.295  0.2662 -0.0857  0.4655
 4752TIP3    H135671   3.557   3.503   4.327 -0.4196 -0.9479 -2.2063
 4752TIP3    H235672   3.634   3.536   4.201  3.3405  0.4613  0.2533
 4753TIP3   OH235673   4.451   0.967  11.347  0.1305 -0.1042  0.0404
 4753TIP3    H135674   4.539   0.954  11.383  0.9096 -0.6748 -1.9093
 4753TIP3    H235675   4.433   0.886  11.298 -1.5148 -0.0156  0.4356
 4754TIP3   OH235676   6.358   2.896   1.250  0.1272 -0.6632 -0.1266
 4754TIP3    H135677   6.412   2.945   1.312  0.2852  0.1375 -0.8832
 4754TIP3    H235678   6.404   2.812   1.240  0.9706 -0.1873 -0.3809
 4755TIP3   OH235679   2.711   0.701   4.492 -0.8322 -0.5211 -0.1401
 4755TIP3    H135680   2.627   0.719   4.534 -0.6433 -2.1879  1.0324
 4755TIP3    H235681   2.768   0.772   4.522 -1.8030  0.6533 -0.9851
 4756TIP3   OH235682   0.744   0.401   0.249  0.1261 -0.1736  0.1687
 4756TIP3    H135683   0.795   0.448   0.315  0.4153  2.4335 -1.7618
 4756TIP3    H235684   0.803   0.332   0.217  2.5893  2.6410 -1.8772
 4757TIP3   OH235685   1.727   1.746  10.831 -0.0161 -0.5190 -0.8380
 4757TIP3    H135686   1.708   1.661  10.872 -0.9558 -1.1160 -2.3977
 4757TIP3    H235687   1.814   1.735  10.793 -0.7425 -1.3852 -2.3662
 4758TIP3   OH235688   5.180   1.125   4.196  0.5099 -0.2749 -0.0810
 4758TIP3    H135689   5.137   1.042   4.215  3.0893 -1.1834  2.5522
 4758TIP3    H235690   5.260   1.100   4.149  0.9958  0.7691  0.1683
 4759TIP3   OH235691   1.556   4.676  15.461  0.0990  0.1522 -0.2914
 4759TIP3    H135692   1.559   4.681  15.365 -1.5928  0.1457 -0.3698
 4759TIP3    H235693   1.597   4.592  15.482  0.3066  0.0653 -1.0147
 4760TIP3   OH235694   0.487   2.501  17.265 -0.3618  0.0694 -0.4795
 4760TIP3    H135695   0.504   2.574  17.325 -0.9177 -0.0833 -0.1320
 4760TIP3    H235696   0.573   2.480  17.228 -0.3072  1.3987 -1.1638
 4761TIP3   OH235697   5.720   3.885   4.567  0.4463  0.7825  0.3844
 4761TIP3    H135698   5.708   3.794   4.540  0.3573  0.9926 -0.3103
 4761TIP3    H235699   5.727   3.933   4.485  2.7679  1.1202  0.7262
 4762TIP3   OH235700   5.229   4.481   0.767 -0.1012 -0.0577 -0.8773
 4762TIP3    H135701   5.158   4.544   0.773  0.3491  0.3379  0.7257
 4762TIP3    H235702   5.309   4.534   0.762  0.3167 -0.4376  0.9618
 4763TIP3   OH235703   2.413   4.318   2.292  0.1892 -0.1334 -0.0806
 4763TIP3    H135704   2.426   4.400   2.244 -0.2117  0.0928  0.1915
 4763TIP3    H235705   2.341   4.275   2.248  1.9564 -1.5325 -1.7744
 4764TIP3   OH235706   5.541   3.292   4.561  0.4347 -0.5642 -0.0674
 4764TIP3    H135707   5.483   3.363   4.533  0.4977 -1.0931 -1.6290
 4764TIP3    H235708   5.594   3.331   4.631  1.5217  1.4170 -1.8808
 4765TIP3   OH235709   0.594   1.114   3.687  0.1696 -0.3666 -0.5244
 4765TIP3    H135710   0.638   1.139   3.768  1.4182 -2.6981 -0.3624
 4765TIP3    H235711   0.531   1.047   3.713 -0.3390 -0.2086 -1.3146
 4766TIP3   OH235712   3.360   1.143   4.699  0.1824 -0.0372  0.3592
 4766TIP3    H135713   3.299   1.077   4.732 -0.3837  0.9371  1.3294
 4766TIP3    H235714   3.337   1.223   4.746  1.8838  0.4886  0.3702
 4767TIP3   OH235715   2.926   4.080  15.864  0.1267  0.2324 -0.1283
 4767TIP3    H135716   2.859   4.016  15.889  1.1001 -0.4491  0.8406
 4767TIP3    H235717   2.937   4.068  15.770  0.3443 -1.0962  0.0508
 4768TIP3   OH235718   1.320   4.931   1.332 -0.2359 -0.0797 -0.2445
 4768TIP3    H135719   1.394   4.943   1.391  0.2459 -0.1677 -0.8174
 4768TIP3    H235720   1.258   4.879   1.383  0.3829 -0.5882  0.0192
 4769TIP3   OH235721   3.079   5.827  11.911  0.2488  0.0042 -0.3690
 4769TIP3    H135722   3.030   5.745  11.903 -0.0958  0.1039  0.5808
 4769TIP3    H235723   3.040   5.885  11.846 -0.4429 -0.1434 -0.0991
 4770TIP3   OH235724   3.551   4.472  14.343  0.3040 -0.0891 -0.0139
 4770TIP3    H135725   3.620   4.405  14.342  1.6300  1.2168  0.0542
 4770TIP3    H235726   3.543   4.497  14.435 -1.5270 -1.4335  0.2350
 4771TIP3   OH235727   1.672   1.482   6.013 -0.4589  0.0471  0.1445
 4771TIP3    H135728   1.614   1.544   5.970 -0.3937  0.2943  0.4076
 4771TIP3    H235729   1.639   1.395   5.989 -1.7684  0.1659  1.3982
 4772TIP3   OH235730   4.796   6.258   3.075  0.4083  0.0135 -0.5331
 4772TIP3    H135731   4.850   6.181   3.053 -0.1394 -0.9581  1.3516
 4772TIP3    H235732   4.721   6.222   3.122  0.1941  1.7184  0.5173
 4773TIP3   OH235733   1.608   2.654  15.060  0.1576 -1.1406 -0.0250
 4773TIP3    H135734   1.631   2.744  15.037  0.7557 -1.1750  0.4414
 4773TIP3    H235735   1.527   2.638  15.010 -1.2768  0.4250  1.6394
 4774TIP3   OH235736   0.667   0.034   0.999 -0.3408  0.5158  0.5961
 4774TIP3    H135737   0.750   0.079   0.990  0.4395 -1.0629 -0.4711
 4774TIP3    H235738   0.602   0.104   1.009  0.8489  1.8517 -0.6649
 4775TIP3   OH235739   0.187   5.566  16.717 -0.2808 -0.0380 -0.2656
 4775TIP3    H135740   0.235   5.498  16.765 -0.5250  0.6820  1.0374
 4775TIP3    H235741   0.248   5.596  16.651  0.4208 -0.3927  0.2105
 4776TIP3   OH235742   5.718   5.634  15.657 -0.3678  0.5647  0.1486
 4776TIP3    H135743   5.647   5.578  15.689  0.7461 -0.5782  0.6909
 4776TIP3    H235744   5.740   5.690  15.731  0.3717 -0.1950  0.5100
 4777TIP3   OH235745   0.755   5.993   2.514 -0.3692  0.2669 -0.1356
 4777TIP3    H135746   0.827   5.931   2.503  0.5564  1.3737 -0.4141
 4777TIP3    H235747   0.688   5.962   2.453  0.6638  0.3711 -1.3500
 4778TIP3   OH235748   4.851   3.062  12.493  0.1104  0.0638 -0.0298
 4778TIP3    H135749   4.918   2.997  12.511 -0.4875 -0.2823  1.0644
 4778TIP3    H235750   4.827   3.048  12.401  1.3400  0.0363 -0.3644
 4779TIP3   OH235751   1.598   0.090   0.933  0.3309  0.1630  0.6428
 4779TIP3    H135752   1.595   0.080   1.028 -1.3965 -0.6307  0.5486
 4779TIP3    H235753   1.669   0.033   0.905 -0.0494 -0.6851  1.3598
 4780TIP3   OH235754   4.053   6.023  11.746 -0.5753 -0.5790 -0.2390
 4780TIP3    H135755   4.094   6.109  11.742 -1.8096  0.3681  3.3809
 4780TIP3    H235756   4.105   5.975  11.811 -2.7789 -0.6758  1.5717
 4781TIP3   OH235757   6.402   4.581  11.919 -0.1960  0.3328 -0.3702
 4781TIP3    H135758   6.402   4.672  11.948  0.3454 -0.1735  1.3432
 4781TIP3    H235759   6.370   4.532  11.995  0.9346 -1.0406 -0.7547
 4782TIP3   OH235760   2.427   5.063   0.407  0.6003 -0.2946 -0.7787
 4782TIP3    H135761   2.375   5.014   0.343 -0.5715  0.3429 -0.3431
 4782TIP3    H235762   2.396   5.031   0.492  0.7346  0.2839 -0.5120
 4783TIP3   OH235763   1.617   1.793   4.352 -0.4892 -0.4521  0.2173
 4783TIP3    H135764   1.624   1.801   4.447  0.0465  2.2273  0.0285
 4783TIP3    H235765   1.701   1.757   4.325 -0.2617 -0.2750  0.6795
 4784TIP3   OH235766   6.706   0.469  12.445  0.1125 -0.0400 -0.0169
 4784TIP3    H135767   6.638   0.424  12.495  0.9902 -0.9952  0.3414
 4784TIP3    H235768   6.709   0.557  12.482  0.3835 -0.5653  1.2673
 4785TIP3   OH235769   5.460   2.139   3.374  0.1441 -0.1394  0.0033
 4785TIP3    H135770   5.415   2.062   3.339 -0.5817  0.9832 -1.6475
 4785TIP3    H235771   5.545   2.139   3.331 -1.0916  1.7648 -2.7516
 4786TIP3   OH235772   1.931   0.291   6.454  0.0855 -0.4542  0.0220
 4786TIP3    H135773   1.941   0.383   6.479 -0.6970 -0.1344 -0.7549
 4786TIP3    H235774   2.020   0.258   6.446  0.3819 -0.2812  2.0793
 4787TIP3   OH235775   5.758   3.236   0.557 -0.2946 -0.0431 -0.0467
 4787TIP3    H135776   5.832   3.181   0.580  1.1788  1.1060 -1.7794
 4787TIP3    H235777   5.792   3.326   0.563 -1.2548  0.4775 -1.7715
 4788TIP3   OH235778   2.730   5.516   0.501 -0.9314 -0.5679 -0.0145
 4788TIP3    H135779   2.783   5.547   0.427 -0.2890  1.3712  1.1763
 4788TIP3    H235780   2.670   5.452   0.462  0.4770 -0.8508 -1.9009
 4789TIP3   OH235781   3.371   5.798  11.916  0.1385  0.5841  0.2052
 4789TIP3    H135782   3.355   5.749  11.997 -0.9338 -0.0145 -0.3482
 4789TIP3    H235783   3.284   5.808  11.877  0.7560 -0.0471 -1.3856
 4790TIP3   OH235784   4.744   5.539   4.017  0.0035  0.3626 -0.2913
 4790TIP3    H135785   4.708   5.591   3.946 -0.2848  0.9419  0.2684
 4790TIP3    H235786   4.667   5.503   4.061  0.2073 -1.7465 -1.5292
 4791TIP3   OH235787   5.814   5.286  15.372 -0.0002 -0.3590  0.4633
 4791TIP3    H135788   5.787   5.374  15.349  0.2091 -0.4613 -0.1748
 4791TIP3    H235789   5.888   5.267  15.315  0.7186 -0.5036  1.4173
 4792TIP3   OH235790   5.003   3.613  14.633  0.4116 -0.0497  0.3303
 4792TIP3    H135791   5.077   3.634  14.577  0.7513 -0.0687  0.7649
 4792TIP3    H235792   4.992   3.689  14.689 -0.5013  0.3411 -0.3582
 4793TIP3   OH235793   5.236   0.669  16.697 -0.5302 -0.1723 -0.2524
 4793TIP3    H135794   5.300   0.600  16.686  2.0710  1.8967  0.9182
 4793TIP3    H235795   5.155   0.623  16.722  1.3532 -2.7046  1.6986
 4794TIP3   OH235796   4.621   4.976  16.770 -0.0065 -0.8609  0.1870
 4794TIP3    H135797   4.600   4.915  16.699  0.7679 -0.2877 -0.5640
 4794TIP3    H235798   4.599   5.062  16.735 -2.7493 -0.7647  1.8623
 4795TIP3   OH235799   0.449   3.947  15.202  0.2412  0.2125 -0.3868
 4795TIP3    H135800   0.389   3.940  15.276  2.2222  1.8865  1.4901
 4795TIP3    H235801   0.393   3.972  15.129 -1.6358 -0.4683  0.7358
 4796TIP3   OH235802   0.088   6.574   3.640  0.4363 -0.5951  0.1169
 4796TIP3    H135803   0.007   6.590   3.593  0.2969  1.0120  0.8480
 4796TIP3    H235804   0.106   6.481   3.626  0.8300 -0.1222 -3.7618
 4797TIP3   OH235805   5.191   4.615   4.972 -0.3382 -0.0328 -0.7085
 4797TIP3    H135806   5.135   4.591   4.899 -0.5344 -2.2317  0.0902
 4797TIP3    H235807   5.253   4.543   4.980 -0.6082 -0.0958  1.5291
 4798TIP3   OH235808   3.081   0.134  14.907  0.4399 -0.1683 -0.3131
 4798TIP3    H135809   3.049   0.217  14.943  0.0983 -0.4674  0.0856
 4798TIP3    H235810   3.072   0.143  14.813  0.5069  0.2903 -0.2769
 4799TIP3   OH235811   4.745   0.806   0.120 -0.3534  0.8832  0.3166
 4799TIP3    H135812   4.815   0.871   0.111 -0.3077  1.1315  2.0584
 4799TIP3    H235813   4.664   0.856   0.115 -0.4902  0.5266 -2.2550
 4800TIP3   OH235814   0.958   1.334   4.848 -0.0863 -0.1050 -0.0547
 4800TIP3    H135815   0.901   1.336   4.925 -1.8591 -0.5307 -1.2951
 4800TIP3    H235816   0.965   1.426   4.821  0.3554  0.0200  0.4751
 4801TIP3   OH235817   4.280   1.814  12.423 -1.0476  0.5234  0.1636
 4801TIP3    H135818   4.209   1.803  12.360  0.0994  2.5843 -1.6283
 4801TIP3    H235819   4.260   1.896  12.468 -0.0307  0.9479 -0.1241
 4802TIP3   OH235820   3.644   4.716  11.118 -0.4533 -0.6625 -0.3963
 4802TIP3    H135821   3.672   4.651  11.053 -0.0715 -1.8125  0.8705
 4802TIP3    H235822   3.719   4.775  11.126  0.1560 -1.4986  0.1988
 4803TIP3   OH235823   4.252   4.781   3.260 -0.0430  0.2429 -0.0254
 4803TIP3    H135824   4.267   4.791   3.166 -3.7355 -1.2963 -0.9477
 4803TIP3    H235825   4.303   4.704   3.284  0.3428  0.2037 -0.9235
 4804TIP3   OH235826   0.212   0.017   2.966  0.0153 -0.1530  0.0352
 4804TIP3    H135827   0.155  -0.053   2.936 -0.5550 -0.2506  1.2682
 4804TIP3    H235828   0.279   0.025   2.899 -1.3380 -0.1641 -1.3754
 4805TIP3   OH235829   4.190   6.419   0.719 -0.5012 -0.3381  0.3378
 4805TIP3    H135830   4.250   6.477   0.766 -0.9898  0.4795 -0.0330
 4805TIP3    H235831   4.183   6.457   0.631 -0.4698 -1.2186 -0.0513
 4806TIP3   OH235832   0.769   5.256   4.677 -0.0568  0.0381 -0.1976
 4806TIP3    H135833   0.765   5.163   4.700 -1.5465  0.2837  0.6026
 4806TIP3    H235834   0.762   5.301   4.760  0.6272  0.8941 -0.5889
 4807TIP3   OH235835   1.886   2.143  17.400  0.2175 -0.2252  0.1209
 4807TIP3    H135836   1.814   2.172  17.456  0.1401 -0.8077  0.3375
 4807TIP3    H235837   1.959   2.200  17.422 -0.6917  1.6315 -1.4512
 4808TIP3   OH235838   6.214   1.363   4.534  0.3904 -0.6480  0.3505
 4808TIP3    H135839   6.187   1.271   4.531  1.1989 -0.8930  0.5115
 4808TIP3    H235840   6.138   1.409   4.572  0.0322 -1.2583  0.3849
 4809TIP3   OH235841   3.452   2.798  15.614 -0.3306  0.2930  0.2631
 4809TIP3    H135842   3.531   2.811  15.562 -0.4566  0.3286  0.0797
 4809TIP3    H235843   3.397   2.874  15.594 -1.4199 -0.8687 -1.4403
 4810TIP3   OH235844   3.761   1.790  16.271 -0.5176 -0.0859  0.0629
 4810TIP3    H135845   3.816   1.723  16.312  0.5626  1.1989  0.7793
 4810TIP3    H235846   3.699   1.815  16.339 -0.9216 -0.3550 -0.2054
 4811TIP3   OH235847   1.088   0.716  14.432 -0.1910  0.1574 -0.1261
 4811TIP3    H135848   1.066   0.799  14.474  1.3408  0.1054  0.8299
 4811TIP3    H235849   1.121   0.741  14.345 -1.1351  0.4243 -0.4191
 4812TIP3   OH235850   4.093   4.365  12.170 -0.2375 -0.3627 -0.8702
 4812TIP3    H135851   4.079   4.277  12.205 -1.7067 -0.7720 -2.3762
 4812TIP3    H235852   4.031   4.421  12.216 -1.5971 -0.7527 -2.1514
 4813TIP3   OH235853   2.960   2.491  14.490  0.1190  0.3278  0.0724
 4813TIP3    H135854   2.988   2.400  14.498  0.6887  0.5570  0.8562
 4813TIP3    H235855   3.030   2.533  14.439 -0.6179  0.1332 -1.1355
 4814TIP3   OH235856   5.614   6.068   2.651 -0.4101 -0.2346  0.2974
 4814TIP3    H135857   5.649   6.106   2.731 -0.7291  1.0891 -0.1609
 4814TIP3    H235858   5.655   6.119   2.581 -1.1902 -0.4485 -0.3287
 4815TIP3   OH235859   2.465   1.772  11.943 -0.2193 -0.5256  0.0572
 4815TIP3    H135860   2.490   1.749  12.033 -0.2588  0.1277  0.2437
 4815TIP3    H235861   2.489   1.695  11.891  0.3982 -0.6661  0.5281
 4816TIP3   OH235862   5.548   2.069   0.907  0.1237  0.2951  0.0162
 4816TIP3    H135863   5.595   2.135   0.958 -0.6158 -0.4252  1.6944
 4816TIP3    H235864   5.466   2.056   0.954 -0.4901 -0.5934 -1.2470
 4817TIP3   OH235865   6.140   5.133  16.244  0.5426 -0.3873 -0.0390
 4817TIP3    H135866   6.094   5.187  16.308 -0.2377 -0.4047 -0.5686
 4817TIP3    H235867   6.167   5.194  16.176  0.0501 -0.5835 -0.4198
 4818TIP3   OH235868   2.074   1.926   1.711 -0.1367 -0.3822  0.3406
 4818TIP3    H135869   2.018   1.957   1.640 -0.8925 -2.2529  0.0640
 4818TIP3    H235870   2.032   1.957   1.791 -1.8753 -2.0698  0.1649
 4819TIP3   OH235871   3.767   4.694   1.215  0.3886  0.2934  0.3405
 4819TIP3    H135872   3.754   4.631   1.144 -0.3448  1.6804 -0.8105
 4819TIP3    H235873   3.727   4.653   1.291 -1.8194  0.1587 -0.8292
 4820TIP3   OH235874   6.339   6.100  15.282 -0.2947  0.7716  0.1936
 4820TIP3    H135875   6.272   6.160  15.315 -0.3683  0.5252  0.4927
 4820TIP3    H235876   6.302   6.013  15.295  0.1274  0.6286  0.4679
 4821TIP3   OH235877   2.783   4.979   1.088  0.1469  0.0915  0.1755
 4821TIP3    H135878   2.784   4.932   1.171  1.3134 -0.4040 -0.1012
 4821TIP3    H235879   2.874   4.983   1.061 -0.3274 -0.9802 -1.7811
 4822TIP3   OH235880   1.933   2.069  12.751 -0.1452  0.3146 -0.1497
 4822TIP3    H135881   1.968   2.040  12.835  1.4309  0.0422 -0.8736
 4822TIP3    H235882   1.871   2.138  12.774  1.0843  1.0317  1.1929
 4823TIP3   OH235883   2.752   3.522   1.425  0.2880 -0.1699 -0.0263
 4823TIP3    H135884   2.816   3.577   1.471 -0.5413  1.4073 -0.6813
 4823TIP3    H235885   2.673   3.576   1.422 -0.4359 -1.2613 -1.0687
 4824TIP3   OH235886   3.467   2.675   5.689 -0.6472  0.4251 -0.1684
 4824TIP3    H135887   3.479   2.670   5.783 -0.1560  2.4702 -0.0693
 4824TIP3    H235888   3.483   2.586   5.657 -0.1462 -0.1428  1.5819
 4825TIP3   OH235889   2.017   3.542   2.958 -0.3056  0.3744  0.4353
 4825TIP3    H135890   2.041   3.489   3.034  0.1444  1.2236  0.9104
 4825TIP3    H235891   2.091   3.602   2.947 -0.0110 -0.2235 -1.1545
 4826TIP3   OH235892   4.852   4.234   1.318 -0.5494 -0.5956 -0.2073
 4826TIP3    H135893   4.762   4.200   1.316 -0.2091 -1.8627  2.1338
 4826TIP3    H235894   4.903   4.161   1.353  0.9952  0.9139  0.7816
 4827TIP3   OH235895   2.606   2.626  14.319  0.0769 -0.6579  0.1090
 4827TIP3    H135896   2.643   2.538  14.316  1.7676  0.0392 -1.3004
 4827TIP3    H235897   2.676   2.681  14.354 -0.9890  0.1502  1.0698
 4828TIP3   OH235898   0.756   6.558  13.807 -0.2825  0.5944 -0.2152
 4828TIP3    H135899   0.766   6.566  13.902  1.4624 -0.2411 -0.2772
 4828TIP3    H235900   0.691   6.623  13.783 -1.4187  0.1988  1.6610
 4829TIP3   OH235901   5.808   2.489   2.977  0.6226  0.8107  0.9249
 4829TIP3    H135902   5.827   2.485   2.883  0.7002  0.1889  0.9637
 4829TIP3    H235903   5.725   2.442   2.987  0.8874  0.3974  1.2353
 4830TIP3   OH235904   3.697   3.293  13.324  0.3519 -0.4303  0.4132
 4830TIP3    H135905   3.664   3.209  13.291 -0.6581 -0.1900  0.7611
 4830TIP3    H235906   3.730   3.338  13.247  0.5287 -0.9829  0.1601
 4831TIP3   OH235907   4.166   0.210  10.580 -0.3553 -0.3166 -0.8079
 4831TIP3    H135908   4.253   0.204  10.542 -0.5822 -1.0513 -1.2235
 4831TIP3    H235909   4.130   0.292  10.545  0.3114  0.2119 -0.2976
 4832TIP3   OH235910   0.567   1.796  16.964  0.1249  0.5049 -0.0103
 4832TIP3    H135911   0.610   1.829  17.043 -2.0979  2.7118  0.4047
 4832TIP3    H235912   0.580   1.865  16.899 -1.0870  0.3271 -0.4652
 4833TIP3   OH235913   3.753   4.151  10.995 -0.0428 -0.2283 -0.1202
 4833TIP3    H135914   3.702   4.174  10.917 -1.0454 -1.7712  0.0325
 4833TIP3    H235915   3.692   4.166  11.068 -0.2320 -1.8513  0.0858
 4834TIP3   OH235916   2.689   4.474  17.246 -0.0704  0.2314  0.5225
 4834TIP3    H135917   2.765   4.454  17.191 -1.0196  0.1606 -0.8148
 4834TIP3    H235918   2.613   4.449  17.193 -1.1175  2.1889  0.9825
 4835TIP3   OH235919   2.719   6.070  16.418 -0.0743  0.0664 -0.0693
 4835TIP3    H135920   2.763   6.119  16.487  0.7587 -0.8544  0.0751
 4835TIP3    H235921   2.637   6.117  16.403  0.4870  1.2091  0.3944
 4836TIP3   OH235922   6.354   1.428  13.447  0.2965  0.3119  0.1480
 4836TIP3    H135923   6.334   1.359  13.510  1.9669 -1.1175 -0.8037
 4836TIP3    H235924   6.285   1.420  13.381 -0.5685  0.8045  0.9592
 4837TIP3   OH235925   1.621   5.482   5.629 -0.0284 -0.3245  0.0262
 4837TIP3    H135926   1.562   5.544   5.672 -1.4905 -1.5150 -0.2011
 4837TIP3    H235927   1.652   5.425   5.699 -2.6340 -2.4451 -0.3927
 4838TIP3   OH235928   0.970   2.689  12.364  0.0623  0.6609 -0.2305
 4838TIP3    H135929   0.981   2.766  12.309  1.9111  0.0578 -0.7713
 4838TIP3    H235930   1.039   2.697  12.430  0.5538 -0.7293 -0.5461
 4839TIP3   OH235931   2.750   6.110   3.139  0.3274 -0.1030  0.8398
 4839TIP3    H135932   2.781   6.161   3.214  0.8612 -0.8876  1.1620
 4839TIP3    H235933   2.724   6.176   3.074 -1.5964  0.6259  2.2659
 4840TIP3   OH235934   4.539   4.239   2.225  0.0010  0.0606 -0.0743
 4840TIP3    H135935   4.581   4.250   2.311 -1.7291  1.9523  0.6139
 4840TIP3    H235936   4.539   4.144   2.211 -0.5027 -0.4086  2.4751
 4841TIP3   OH235937   3.344   5.415   5.787  0.2902 -0.1349 -0.0233
 4841TIP3    H135938   3.343   5.409   5.882 -1.7808  1.3442  0.1253
 4841TIP3    H235939   3.428   5.455   5.766  0.5107  0.1204  1.2545
 4842TIP3   OH235940   2.537   0.979   2.033 -0.6878  0.4275 -0.0506
 4842TIP3    H135941   2.620   1.025   2.047 -0.6345  0.7704 -1.3783
 4842TIP3    H235942   2.560   0.887   2.038 -0.2144  0.5207 -0.3792
 4843TIP3   OH235943   1.351   3.199   2.658  0.2031  0.5606 -0.0118
 4843TIP3    H135944   1.408   3.232   2.728  0.6885  0.6662 -0.4561
 4843TIP3    H235945   1.270   3.174   2.704  1.0322 -0.7354  0.8250
 4844TIP3   OH235946   0.123   5.456  17.126  0.7458 -0.1769  0.7893
 4844TIP3    H135947   0.057   5.523  17.145  1.3138  0.7438 -0.3991
 4844TIP3    H235948   0.207   5.499  17.143  1.2240  0.1923 -2.0667
 4845TIP3   OH235949   6.088   4.726   4.899  0.6154  0.5536  0.4661
 4845TIP3    H135950   6.005   4.775   4.904 -0.1994 -0.8530  1.5363
 4845TIP3    H235951   6.061   4.634   4.894  2.1179  0.0921  0.3529
 4846TIP3   OH235952   1.162   5.826  14.632  0.4030  0.3254 -0.0309
 4846TIP3    H135953   1.206   5.750  14.670 -0.8874 -0.2220  0.4329
 4846TIP3    H235954   1.074   5.824  14.670 -0.6503  0.3143 -2.3084
 4847TIP3   OH235955   2.667   0.310  17.331 -0.0599  0.3451 -0.9969
 4847TIP3    H135956   2.760   0.331  17.334 -0.0985  0.4792  2.0770
 4847TIP3    H235957   2.662   0.231  17.277  1.8213  0.2941 -1.1589
 4848TIP3   OH235958   1.515   3.850  15.926  0.6827 -0.5909 -0.0061
 4848TIP3    H135959   1.441   3.805  15.966  0.0572  1.4721  1.3188
 4848TIP3    H235960   1.495   3.853  15.833 -0.1008 -1.4530  0.1220
 4849TIP3   OH235961   0.169   5.704  13.529  0.8111 -0.0724 -0.2285
 4849TIP3    H135962   0.121   5.786  13.537  2.6732  1.0688 -0.3592
 4849TIP3    H235963   0.101   5.638  13.517 -0.7720  1.3198  0.7367
 4850TIP3   OH235964   0.426   5.825   3.209 -0.4302 -0.3709  0.0887
 4850TIP3    H135965   0.413   5.903   3.156 -0.5019  0.2448  0.9964
 4850TIP3    H235966   0.479   5.767   3.154  0.4939  0.7213 -0.2031
 4851TIP3   OH235967   6.125   2.958  16.787 -0.1285 -0.0768 -0.0591
 4851TIP3    H135968   6.118   2.922  16.698  0.5787  1.4684 -0.7725
 4851TIP3    H235969   6.037   2.950  16.823 -0.5624 -0.1679 -1.1165
 4852TIP3   OH235970   0.847   5.697   0.161 -0.4381  0.2115  0.1579
 4852TIP3    H135971   0.812   5.783   0.184  0.0744  1.1990 -2.4704
 4852TIP3    H235972   0.919   5.684   0.222  0.1329  2.1374 -0.0503
 4853TIP3   OH235973   2.034   4.402   4.428 -0.2170  0.9146  0.0874
 4853TIP3    H135974   2.097   4.451   4.374  1.8613 -0.5850  1.0063
 4853TIP3    H235975   2.073   4.315   4.436 -0.6644  0.9285  3.5815
 4854TIP3   OH235976   1.241   4.776   5.829 -0.3004 -0.5016  0.1686
 4854TIP3    H135977   1.302   4.735   5.890  2.7052  0.6398 -1.8756
 4854TIP3    H235978   1.200   4.846   5.879  1.0433 -0.4773  1.2791
 4855TIP3   OH235979   1.897   6.729   6.681  0.0537  0.0270 -0.0208
 4855TIP3    H135980   1.839   6.761   6.612 -1.1890  0.3803  1.1336
 4855TIP3    H235981   1.900   6.635   6.669  0.5506  0.1625 -1.0573
 4856TIP3   OH235982   4.204   2.256  12.305 -0.1625  0.1098 -0.2632
 4856TIP3    H135983   4.283   2.206  12.284 -0.1325  0.4640 -1.0432
 4856TIP3    H235984   4.223   2.297  12.389 -0.4922 -1.8062  0.8002
 4857TIP3   OH235985   5.254   1.003   1.870 -0.4057  0.1101  0.0935
 4857TIP3    H135986   5.174   1.024   1.823 -1.2402  0.9314  1.8097
 4857TIP3    H235987   5.225   0.967   1.954  1.0217 -0.6868  0.2939
 4858TIP3   OH235988   5.636   5.140  17.234  0.4424 -0.4410  0.8730
 4858TIP3    H135989   5.540   5.141  17.232  0.2807  0.3084 -3.7000
 4858TIP3    H235990   5.659   5.048  17.242 -0.8678 -1.0115 -1.1363
 4859TIP3   OH235991   3.260   1.739   2.601 -0.0441 -0.0373 -0.1006
 4859TIP3    H135992   3.247   1.834   2.607  1.3344  0.7001 -4.9274
 4859TIP3    H235993   3.344   1.724   2.644 -0.8988  0.5674  1.9330
 4860TIP3   OH235994   0.535   6.050  14.192  0.1291 -0.0004 -0.0113
 4860TIP3    H135995   0.539   5.990  14.268 -0.9579  0.7986  0.7020
 4860TIP3    H235996   0.483   6.002  14.127  1.6881 -0.9996 -0.5752
 4861TIP3   OH235997   2.523   5.619  13.057  0.2224  0.2265 -0.5975
 4861TIP3    H135998   2.559   5.535  13.029  1.7798  0.3092  0.9801
 4861TIP3    H235999   2.467   5.646  12.985 -1.1182 -2.5974 -0.7715
 4862TIP3   OH236000   4.204   5.141   3.789 -0.1916 -0.1181 -0.1900
 4862TIP3    H136001   4.135   5.097   3.738 -2.1631  1.1194  1.2554
 4862TIP3    H236002   4.264   5.070   3.813 -0.0483 -0.9800 -2.8368
 4863TIP3   OH236003   4.353   3.174   1.598  0.0457 -0.3433 -0.0249
 4863TIP3    H136004   4.317   3.191   1.685  3.0554 -0.1146  1.3371
 4863TIP3    H236005   4.298   3.105   1.562 -0.7581 -1.1368  2.5055
 4864TIP3   OH236006   0.318   0.877  12.487  0.0315 -0.3502 -0.0948
 4864TIP3    H136007   0.342   0.801  12.435  0.8875 -0.6576  0.7312
 4864TIP3    H236008   0.279   0.938  12.424 -0.1326 -1.2337 -0.8580
 4865TIP3   OH236009   5.339   6.331   6.022 -0.0685 -0.4788 -0.0873
 4865TIP3    H136010   5.380   6.246   6.006 -2.4003 -1.7033  0.0641
 4865TIP3    H236011   5.316   6.330   6.114 -1.0174 -0.1129 -0.3080
 4866TIP3   OH236012   6.499   5.896  15.435 -0.4183 -0.2658  0.0416
 4866TIP3    H136013   6.531   5.852  15.357 -0.4765 -0.2599  0.0142
 4866TIP3    H236014   6.480   5.986  15.407  2.3560  0.6275  0.7295
 4867TIP3   OH236015   4.611   6.259   3.414 -0.0018 -0.4638 -0.5150
 4867TIP3    H136016   4.588   6.350   3.394  0.7392 -0.4383 -1.2581
 4867TIP3    H236017   4.527   6.213   3.414 -0.1458 -0.3060 -2.8520
 4868TIP3   OH236018   6.378   1.065   3.617 -0.0931  0.4732  0.6823
 4868TIP3    H136019   6.284   1.049   3.627  0.0510 -1.5074 -0.5755
 4868TIP3    H236020   6.387   1.159   3.629 -2.2289  0.7123  0.8949
 4869TIP3   OH236021   0.687   1.923  11.394  0.7475  0.2904  0.2402
 4869TIP3    H136022   0.605   1.881  11.369  0.7248  0.3401  0.2311
 4869TIP3    H236023   0.746   1.908  11.319  0.8061  0.0933  0.3234
 4870TIP3   OH236024   1.100   6.586  15.062  0.2320 -0.2093 -0.0838
 4870TIP3    H136025   1.183   6.631  15.079 -0.5381  0.9069  0.7729
 4870TIP3    H236026   1.036   6.656  15.048 -1.3575 -0.8945  2.9287
 4871TIP3   OH236027   2.172   4.317  11.540  1.1304 -0.0857 -0.4034
 4871TIP3    H136028   2.140   4.236  11.581  3.0854 -1.1120 -0.7715
 4871TIP3    H236029   2.122   4.387  11.582 -0.0403 -1.4244  0.5169
 4872TIP3   OH236030   5.756   2.683  16.962  0.2545 -0.3160  0.4956
 4872TIP3    H136031   5.807   2.604  16.946 -0.1611 -0.3478 -0.7936
 4872TIP3    H236032   5.759   2.695  17.057 -0.5575 -2.4856  0.8672
 4873TIP3   OH236033   0.452   6.105   2.795 -1.1655 -0.4977  0.0878
 4873TIP3    H136034   0.403   6.025   2.776  0.6372 -1.2391 -1.8182
 4873TIP3    H236035   0.433   6.162   2.721 -0.6085 -0.0705  0.2670
 4874TIP3   OH236036   4.090   1.482  16.231 -0.5167 -0.2649  0.4864
 4874TIP3    H136037   4.151   1.426  16.280 -0.4751 -0.1075  0.6139
 4874TIP3    H236038   4.135   1.501  16.149 -1.0354 -1.4497 -0.1130
 4875TIP3   OH236039   5.614   0.186   1.088 -0.5065  0.0205  0.2984
 4875TIP3    H136040   5.689   0.143   1.129 -1.7419 -2.1787  0.4408
 4875TIP3    H236041   5.580   0.122   1.026 -1.2700  1.6193 -1.0169
 4876TIP3   OH236042   1.436   2.476  17.122  0.2962  0.2029  0.1401
 4876TIP3    H136043   1.451   2.537  17.195 -0.1866  0.7048 -0.1668
 4876TIP3    H236044   1.498   2.406  17.136 -0.5136 -0.2616  1.6514
 4877TIP3   OH236045   1.080   5.988  15.224  0.2525  0.0130 -0.3115
 4877TIP3    H136046   0.989   5.984  15.195  0.4536 -0.6693 -0.8614
 4877TIP3    H236047   1.081   5.939  15.306 -0.1155  1.0985  0.3675
 4878TIP3   OH236048   0.237   2.809   0.904 -0.5677  0.9342 -0.2848
 4878TIP3    H136049   0.308   2.747   0.917  0.0023  1.6353 -0.0071
 4878TIP3    H236050   0.249   2.841   0.814 -2.1386 -0.9250 -1.2450
 4879TIP3   OH236051   3.310   5.216   0.597 -0.3110 -0.3931  0.5214
 4879TIP3    H136052   3.321   5.169   0.680 -0.5772  0.8783  1.3097
 4879TIP3    H236053   3.223   5.255   0.604 -0.4584 -0.5238 -0.5030
 4880TIP3   OH236054   2.983   4.294  11.396  0.0681  0.0588  0.1407
 4880TIP3    H136055   2.969   4.200  11.385 -0.5005  0.0874  0.5340
 4880TIP3    H236056   3.070   4.310  11.361  0.0052 -0.5449 -0.3111
 4881TIP3   OH236057   1.413   4.932   0.857  0.4867  0.2891 -0.2247
 4881TIP3    H136058   1.484   4.909   0.917  0.0419  0.2727  0.3028
 4881TIP3    H236059   1.434   4.887   0.776  0.8796 -0.0250  0.0515
 4882TIP3   OH236060   2.177   2.083   0.698  0.5365 -0.3435  0.7452
 4882TIP3    H136061   2.213   1.999   0.725  1.6778  0.2744  1.1920
 4882TIP3    H236062   2.082   2.069   0.695  0.8175 -2.3433 -1.6074
 4883TIP3   OH236063   2.910   6.702   2.735 -0.1744  0.3746 -0.1478
 4883TIP3    H136064   2.877   6.625   2.781  2.3789 -1.0948 -0.6041
 4883TIP3    H236065   2.912   6.676   2.643  1.7730  0.5065 -0.1819
 4884TIP3   OH236066   4.977   2.757  12.293 -0.1176  0.2391 -0.0041
 4884TIP3    H136067   5.039   2.829  12.285  1.6738 -1.1608  0.4701
 4884TIP3    H236068   4.929   2.756  12.211  1.6558  0.3937 -1.0989
 4885TIP3   OH236069   1.430   4.617   3.027  0.3961  0.2337  0.2279
 4885TIP3    H136070   1.429   4.612   3.122 -1.3106 -0.1755  0.2213
 4885TIP3    H236071   1.508   4.569   3.000 -1.2428 -3.2875  1.2775
 4886TIP3   OH236072   2.585   3.995   1.449  0.2898  0.0362  0.5028
 4886TIP3    H136073   2.582   4.061   1.379 -1.9212 -0.3779  0.1213
 4886TIP3    H236074   2.638   3.925   1.412 -1.3237 -0.4400 -1.1011
 4887TIP3   OH236075   6.112   5.678  16.516 -0.3070 -0.2744 -0.1483
 4887TIP3    H136076   6.055   5.684  16.592  0.6457 -1.8730  0.7352
 4887TIP3    H236077   6.187   5.733  16.538 -0.1321 -0.5595 -0.0424
 4888TIP3   OH236078   0.345   5.620  12.096  0.8895  0.0399 -0.0423
 4888TIP3    H136079   0.402   5.592  12.024 -0.6666  0.3916 -1.4873
 4888TIP3    H236080   0.380   5.577  12.173  2.7552 -0.1879 -0.9704
 4889TIP3   OH236081   6.749   3.189  14.228 -0.3247  0.1342 -0.4360
 4889TIP3    H136082   6.807   3.265  14.228  0.6909 -0.6067 -0.2901
 4889TIP3    H236083   6.738   3.167  14.135 -1.3245  0.9556 -0.5254
 4890TIP3   OH236084   0.588   5.575  15.795 -0.4658 -0.1387 -0.1044
 4890TIP3    H136085   0.637   5.566  15.714 -1.4172 -1.0748 -0.5893
 4890TIP3    H236086   0.632   5.516  15.857 -0.6106 -0.5193 -0.3617
 4891TIP3   OH236087   2.298   5.366  11.154 -0.0262  0.4504  0.3383
 4891TIP3    H136088   2.298   5.390  11.246  1.6484 -0.3686  0.5973
 4891TIP3    H236089   2.358   5.429  11.113  0.1867  0.0567  0.0404
 4892TIP3   OH236090   6.647   5.544  11.971 -0.5642 -0.1403  0.6553
 4892TIP3    H136091   6.690   5.533  11.887  0.0203 -0.8710  1.0388
 4892TIP3    H236092   6.564   5.587  11.951  0.4299  1.5124 -0.0821
 4893TIP3   OH236093   4.072   1.956  13.156 -0.3116  0.3987  0.2903
 4893TIP3    H136094   4.150   1.981  13.204  0.6715  0.1056 -1.0915
 4893TIP3    H236095   4.028   2.039  13.137 -0.0103  0.6175  0.5409
 4894TIP3   OH236096   4.147   0.949   4.497  0.2483 -0.0016  0.6780
 4894TIP3    H136097   4.158   0.861   4.460 -0.9472 -0.7241  1.9292
 4894TIP3    H236098   4.140   1.006   4.421 -0.4701 -1.2111 -0.2123
 4895TIP3   OH236099   3.914   4.308   5.208 -0.2039  0.1596 -0.2918
 4895TIP3    H136100   3.970   4.279   5.279  0.1471 -1.7231 -1.2654
 4895TIP3    H236101   3.826   4.281   5.234 -0.0041 -1.0094 -0.7714
 4896TIP3   OH236102   1.699   0.300   0.014  0.4047  0.2265  0.5122
 4896TIP3    H136103   1.658   0.216  -0.008 -0.3304  0.5500  0.6191
 4896TIP3    H236104   1.630   0.349   0.059  0.1550  1.6559 -1.2880
 4897TIP3   OH236105   2.309   2.765   0.177 -1.0833  0.1379 -0.1761
 4897TIP3    H136106   2.360   2.747   0.098 -0.2736 -1.0109  0.5744
 4897TIP3    H236107   2.290   2.859   0.172 -0.8990  0.1281 -1.6383
 4898TIP3   OH236108   0.151   6.226  16.015 -0.1804 -0.8385 -0.2805
 4898TIP3    H136109   0.063   6.221  16.053  0.4231  2.0240  1.8615
 4898TIP3    H236110   0.204   6.267  16.084  2.6092 -1.5102 -1.8918
 4899TIP3   OH236111   4.736   2.254  11.578 -0.4136 -0.0994 -1.0991
 4899TIP3    H136112   4.825   2.230  11.604 -1.3594 -2.7540  0.0220
 4899TIP3    H236113   4.724   2.214  11.492 -1.0637 -1.2895 -0.4768
 4900TIP3   OH236114   2.403   5.958  11.076 -0.1010  0.1682 -0.5967
 4900TIP3    H136115   2.489   5.972  11.037  0.1154 -0.0096 -0.1968
 4900TIP3    H236116   2.342   5.972  11.005  0.2958 -0.3330 -1.0462
 4901TIP3   OH236117   1.536   5.414  13.810 -0.7116  0.0957 -0.2210
 4901TIP3    H136118   1.537   5.322  13.837 -0.6262  0.2711  0.3968
 4901TIP3    H236119   1.462   5.421  13.750 -4.6107  0.7977  4.1233
 4902TIP3   OH236120   4.343   3.514   3.025  0.3371  0.0787  0.3209
 4902TIP3    H136121   4.401   3.465   3.083  0.2904  0.3117  0.5698
 4902TIP3    H236122   4.369   3.605   3.037 -0.5738  0.2645  1.0121
 4903TIP3   OH236123   2.108   1.357  15.023  0.0534 -0.0861 -0.4129
 4903TIP3    H136124   2.177   1.417  14.995  0.5870 -0.4070  0.2144
 4903TIP3    H236125   2.035   1.375  14.962 -0.3420  2.2124  0.6493
 4904TIP3   OH236126   1.485   3.576  15.581  0.4097 -0.1750 -0.2244
 4904TIP3    H136127   1.395   3.543  15.570  0.7465 -1.8163  1.5042
 4904TIP3    H236128   1.519   3.582  15.491 -1.8872  2.0777 -1.0906
 4905TIP3   OH236129   1.328   1.541  13.099  0.0889  0.3448 -0.3884
 4905TIP3    H136130   1.403   1.492  13.066  0.4147  0.5882 -0.0159
 4905TIP3    H236131   1.257   1.520  13.038  0.7795  1.0945 -1.4830
 4906TIP3   OH236132   6.309   0.372   5.399 -0.1310  0.1504  0.0804
 4906TIP3    H136133   6.324   0.402   5.489 -2.9580  0.4258  0.5444
 4906TIP3    H236134   6.338   0.281   5.399 -0.2378  0.0964  1.3137
 4907TIP3   OH236135   4.099   5.462   2.207 -0.0498  0.0493 -0.0693
 4907TIP3    H136136   4.183   5.441   2.248 -0.2380  0.9087  0.7907
 4907TIP3    H236137   4.080   5.552   2.235 -1.3895 -0.2310 -0.0108
 4908TIP3   OH236138   2.765   3.927  11.043 -0.1422  1.1497  0.3795
 4908TIP3    H136139   2.818   3.985  10.989 -0.7425 -0.1781 -1.7381
 4908TIP3    H236140   2.719   3.871  10.981  0.4982 -1.7145  2.2713
 4909TIP3   OH236141   1.806   1.217  15.290  0.0446 -0.3717  0.1493
 4909TIP3    H136142   1.811   1.130  15.249 -0.9868 -0.3246 -0.0941
 4909TIP3    H236143   1.895   1.253  15.280 -0.0458 -0.5582 -1.6192
 4910TIP3   OH236144   5.140   2.352   5.024  0.1281  0.2245  0.1154
 4910TIP3    H136145   5.127   2.304   5.106 -2.1728  0.8526  0.2052
 4910TIP3    H236146   5.077   2.424   5.029  1.5592  1.6164 -1.2282
 4911TIP3   OH236147   5.084   1.465  13.455 -0.2537  0.1463 -0.4392
 4911TIP3    H136148   5.089   1.380  13.411  0.9102  0.0856 -0.2091
 4911TIP3    H236149   5.047   1.524  13.390 -0.1882 -0.3310 -0.9103
 4912TIP3   OH236150   0.021   0.455  15.348  0.1162  0.0219 -0.1941
 4912TIP3    H136151   0.098   0.452  15.405  0.2335  0.3981 -0.3305
 4912TIP3    H236152   0.038   0.528  15.288  0.6847 -1.2710 -1.6768
 4913TIP3   OH236153   6.641   5.785   3.064 -0.0289 -0.4043 -0.0456
 4913TIP3    H136154   6.692   5.774   2.984 -0.9349 -0.4697 -0.6272
 4913TIP3    H236155   6.668   5.713   3.121  1.0602 -0.0069 -0.0461
 4914TIP3   OH236156   5.617   4.027  15.791  0.5139 -0.1125  0.3377
 4914TIP3    H136157   5.566   3.989  15.720 -0.9363 -0.8760  1.7062
 4914TIP3    H236158   5.661   3.952  15.832  0.7089  0.2003  0.7133
 4915TIP3   OH236159   2.018   6.533   1.583  0.8079  0.4833  0.0100
 4915TIP3    H136160   1.944   6.493   1.539  1.3188  0.7518 -1.1286
 4915TIP3    H236161   2.019   6.493   1.670 -0.0270 -0.2907 -0.3226
 4916TIP3   OH236162   1.861   3.972  14.963  0.3551 -0.1537 -0.1666
 4916TIP3    H136163   1.851   3.902  15.028  0.3022  0.9430  1.0447
 4916TIP3    H236164   1.772   4.001  14.945  0.4095 -0.0557 -0.2778
 4917TIP3   OH236165   2.960   0.402  15.014  0.2215 -0.1414  0.0624
 4917TIP3    H136166   2.982   0.443  15.097 -0.6978  0.5732 -0.0362
 4917TIP3    H236167   3.003   0.457  14.948 -1.5649  1.1248 -0.1163
 4918TIP3   OH236168   3.295   1.112   5.814  0.1142 -0.2133 -0.3810
 4918TIP3    H136169   3.240   1.179   5.853 -1.3068 -0.8914 -1.1511
 4918TIP3    H236170   3.310   1.049   5.885  0.9451  0.5831  0.1701
 4919TIP3   OH236171   0.904   4.026  13.737 -0.3112 -0.0647  0.4865
 4919TIP3    H136172   0.943   4.104  13.776 -2.1326  0.0969  2.1419
 4919TIP3    H236173   0.954   3.953  13.772  0.7138  0.2736 -0.2240
 4920TIP3   OH236174   5.154   4.749   3.814 -0.4018  0.2031  0.0878
 4920TIP3    H136175   5.101   4.678   3.850  0.1580 -0.4736 -0.3815
 4920TIP3    H236176   5.102   4.783   3.741  0.1804 -1.0878 -0.9758
 4921TIP3   OH236177   5.854   0.410   4.674  0.1314  0.3841 -0.8735
 4921TIP3    H136178   5.908   0.332   4.683  0.5609  0.6814 -0.8110
 4921TIP3    H236179   5.858   0.431   4.580  0.6963  0.7938 -0.7695
 4922TIP3   OH236180   4.147   6.155   0.571 -0.1491 -0.6356  0.0800
 4922TIP3    H136181   4.183   6.125   0.488  0.4414  0.0518  0.0876
 4922TIP3    H236182   4.117   6.244   0.554  0.3259 -0.3498  0.6967
 4923TIP3   OH236183   6.098   3.324   0.175  0.7004 -0.1918 -0.6101
 4923TIP3    H136184   6.029   3.344   0.238  0.2850 -0.7230 -0.8774
 4923TIP3    H236185   6.134   3.409   0.150  1.7004 -0.0397  1.2334
 4924TIP3   OH236186   0.165   3.360  16.580 -0.0497  0.6602  0.2251
 4924TIP3    H136187   0.178   3.369  16.485 -1.3092  3.6119  0.2223
 4924TIP3    H236188   0.084   3.408  16.598  1.1127  1.7931  3.0253
 4925TIP3   OH236189   3.533   1.974  13.993 -0.5747 -0.6606 -0.0215
 4925TIP3    H136190   3.578   2.025  14.060  0.9594 -1.4122 -0.4390
 4925TIP3    H236191   3.588   1.983  13.915 -0.6626 -2.3234 -0.3111
 4926TIP3   OH236192   5.314   0.912   3.070 -0.8861 -1.0096 -0.2771
 4926TIP3    H136193   5.246   0.907   3.003 -0.2308  1.3730 -1.2128
 4926TIP3    H236194   5.274   0.961   3.142 -0.4453 -0.3870 -0.4541
 4927TIP3   OH236195   1.528   5.629   1.830  0.1141  0.1919  0.5527
 4927TIP3    H136196   1.516   5.681   1.909  0.6832  0.5140  0.4298
 4927TIP3    H236197   1.579   5.684   1.771 -1.6079  0.5824 -0.6653
 4928TIP3   OH236198   5.737   4.301   1.935 -0.1646 -0.4461  0.5104
 4928TIP3    H136199   5.806   4.348   1.887 -1.3332 -0.5627 -1.3897
 4928TIP3    H236200   5.765   4.304   2.026  1.7192  0.5939 -0.0448
 4929TIP3   OH236201   5.077   1.858   2.125 -0.2255 -0.3848 -0.0411
 4929TIP3    H136202   5.095   1.764   2.123 -0.0266 -0.3396 -2.1358
 4929TIP3    H236203   5.061   1.881   2.034  0.3344  1.7409  0.3608
 4930TIP3   OH236204   2.317   4.224  11.325  0.3838  0.2653  0.2605
 4930TIP3    H136205   2.262   4.275  11.384 -1.6358 -0.3721 -0.9647
 4930TIP3    H236206   2.292   4.255  11.237  0.9974 -0.9907 -0.3823
 4931TIP3   OH236207   4.463   6.190   4.489  0.2983 -0.4219 -0.1380
 4931TIP3    H136208   4.417   6.252   4.545  0.6108 -1.3452  1.1870
 4931TIP3    H236209   4.395   6.153   4.433 -0.3611 -0.7841  0.8692
 4932TIP3   OH236210   3.406   4.385   1.946  0.0728 -0.5133  0.1416
 4932TIP3    H136211   3.411   4.330   1.868  0.0641  0.6057 -0.6774
 4932TIP3    H236212   3.493   4.381   1.984 -0.0940 -1.5604  0.4349
 4933TIP3   OH236213   0.915   4.970   3.807  0.3452 -0.7264 -0.0217
 4933TIP3    H136214   0.939   4.878   3.802 -0.1710 -0.7956 -2.2558
 4933TIP3    H236215   0.929   5.004   3.718  1.5854  1.6483  0.9868
 4934TIP3   OH236216   6.591   0.218  15.793  0.2807  0.8168  0.2454
 4934TIP3    H136217   6.679   0.219  15.756 -0.8748 -1.0362 -2.9813
 4934TIP3    H236218   6.588   0.139  15.846  0.2009  0.0806 -0.8228
 4935TIP3   OH236219   1.281   0.452  12.477  0.2984 -0.7626  0.2594
 4935TIP3    H136220   1.321   0.408  12.552  1.1232  1.0169  0.9130
 4935TIP3    H236221   1.345   0.519  12.452 -1.3896  0.8324  0.0409
 4936TIP3   OH236222   5.150   2.415   3.196  0.3431  0.3076 -0.3614
 4936TIP3    H136223   5.166   2.330   3.237 -0.9517  0.8091  1.3666
 4936TIP3    H236224   5.198   2.413   3.114  2.5185 -1.0861  0.8516
 4937TIP3   OH236225   4.452   5.234   4.678 -1.0039 -0.0774 -0.2828
 4937TIP3    H136226   4.471   5.161   4.738 -0.4088  0.2501 -0.0666
 4937TIP3    H236227   4.378   5.279   4.717 -0.6725  0.0837  0.1741
 4938TIP3   OH236228   3.265   6.666  14.336  0.0602 -0.0104  0.8579
 4938TIP3    H136229   3.289   6.758  14.335  0.5114 -0.1229  1.1730
 4938TIP3    H236230   3.345   6.620  14.361  0.1514 -0.5882 -0.4156
 4939TIP3   OH236231   5.519   1.116   0.688  0.0137 -0.2233  0.6350
 4939TIP3    H136232   5.475   1.038   0.653 -1.7671  0.6146  0.8920
 4939TIP3    H236233   5.478   1.129   0.774  0.2455  1.0355  0.5657
 4940TIP3   OH236234   2.516   3.024  13.184  0.4876 -0.5272  0.0129
 4940TIP3    H136235   2.568   3.042  13.106  0.8989  0.1961  0.4475
 4940TIP3    H236236   2.508   2.928  13.186 -0.5625 -0.5050 -1.5743
 4941TIP3   OH236237   3.352   4.042   3.827 -0.0438  0.4003  0.1058
 4941TIP3    H136238   3.402   4.087   3.894  1.3403  0.0760 -0.6655
 4941TIP3    H236239   3.411   3.974   3.794 -0.9864  0.0028 -0.8437
 4942TIP3   OH236240   1.360   5.415  11.301  0.1732  0.0663  0.0469
 4942TIP3    H136241   1.287   5.394  11.242 -0.9097  1.9859  0.6075
 4942TIP3    H236242   1.380   5.332  11.344 -1.4570 -0.6016 -0.3808
 4943TIP3   OH236243   5.807   2.429   2.450 -0.2009 -0.7241 -0.4496
 4943TIP3    H136244   5.813   2.384   2.366 -1.7367 -0.8499 -0.5213
 4943TIP3    H236245   5.735   2.386   2.495 -0.1522  0.1092  0.4537
 4944TIP3   OH236246   0.842   4.183   3.759 -0.5974  0.5015  0.5801
 4944TIP3    H136247   0.891   4.248   3.810 -0.2411 -0.2131  1.1670
 4944TIP3    H236248   0.894   4.103   3.764 -0.6977  0.3378 -0.6955
 4945TIP3   OH236249   5.251   4.408   2.043 -0.1398 -0.5174 -0.2989
 4945TIP3    H136250   5.180   4.350   2.016 -1.3682  0.4102  0.8221
 4945TIP3    H236251   5.220   4.496   2.023 -1.2221  0.2772  3.9611
 4946TIP3   OH236252   3.583   0.056   2.537  0.4940  0.2958 -0.7333
 4946TIP3    H136253   3.514  -0.004   2.511  0.0651  0.2076  0.5245
 4946TIP3    H236254   3.653  -0.000   2.571 -0.6827  0.4650  2.3017
 4947TIP3   OH236255   1.686   6.678   4.701  0.2209 -0.4410 -0.2258
 4947TIP3    H136256   1.606   6.728   4.689 -0.5806 -1.3530  1.0167
 4947TIP3    H236257   1.662   6.588   4.679  1.0801 -0.6200 -0.4688
 4948TIP3   OH236258   4.867   0.868  12.491  0.2107 -0.6991 -0.1428
 4948TIP3    H136259   4.798   0.927  12.521 -0.9563 -1.7157 -0.6801
 4948TIP3    H236260   4.904   0.831  12.571 -0.3650 -0.6702  0.1431
 4949TIP3   OH236261   2.522   4.926  15.253  0.2349  0.1894 -0.4192
 4949TIP3    H136262   2.449   4.909  15.194 -0.8878 -0.5324  1.1111
 4949TIP3    H236263   2.495   4.888  15.336  3.1568 -1.8740 -0.2511
 4950TIP3   OH236264   2.943   0.198   2.895 -0.1289 -0.1696 -0.4585
 4950TIP3    H136265   2.864   0.236   2.933  0.9270  1.3066  0.3673
 4950TIP3    H236266   2.921   0.106   2.880 -1.7882  0.0703  0.3194
 4951TIP3   OH236267   5.141   2.181   5.249 -0.0329 -0.1164  0.4826
 4951TIP3    H136268   5.137   2.194   5.344  0.4242 -1.4595  0.7045
 4951TIP3    H236269   5.231   2.151   5.233 -0.4726 -1.0886 -0.2123
 4952TIP3   OH236270   0.557   5.669   1.360 -0.0399  0.5267  0.2974
 4952TIP3    H136271   0.620   5.728   1.318 -0.8269  0.8132 -0.5311
 4952TIP3    H236272   0.475   5.719   1.362 -0.4126 -0.0873  0.7199
 4953TIP3   OH236273   2.140   0.501   2.445  0.3241  0.0144 -0.4389
 4953TIP3    H136274   2.184   0.502   2.359  0.6461  0.1723 -0.2748
 4953TIP3    H236275   2.047   0.491   2.424  0.2655  1.2728 -0.8692
 4954TIP3   OH236276   2.763   2.927  17.181 -0.1934 -0.0369  0.3035
 4954TIP3    H136277   2.690   2.955  17.237 -0.4648  2.0349 -0.9804
 4954TIP3    H236278   2.802   3.008  17.150  1.2113 -1.1249 -0.9078
 4955TIP3   OH236279   5.657   2.476  15.376  0.1488 -0.2908  0.4518
 4955TIP3    H136280   5.590   2.409  15.363 -0.2131  0.1956 -0.2712
 4955TIP3    H236281   5.736   2.439  15.338  0.7181 -1.4966  2.6373
 4956TIP3   OH236282   5.454   4.737  16.522 -0.5407 -0.1151 -0.0831
 4956TIP3    H136283   5.491   4.657  16.560 -2.2887 -0.4575  1.0027
 4956TIP3    H236284   5.409   4.709  16.443  0.0733  0.0362 -0.4911
 4957TIP3   OH236285   6.520   2.534  13.854  0.5641  0.1803  0.6083
 4957TIP3    H136286   6.512   2.506  13.945  2.9387  1.8221  1.4098
 4957TIP3    H236287   6.457   2.606  13.846 -0.9083 -1.0703  0.3754
 4958TIP3   OH236288   2.548   3.156   2.140 -0.2221 -0.1617  0.1275
 4958TIP3    H136289   2.609   3.230   2.144  2.8967 -2.5226  0.6373
 4958TIP3    H236290   2.492   3.166   2.217 -0.5495  2.1131 -0.3468
 4959TIP3   OH236291   2.387   1.743   3.132 -0.2647 -0.1883 -0.1910
 4959TIP3    H136292   2.305   1.732   3.179  0.3775 -0.1316  0.9889
 4959TIP3    H236293   2.368   1.807   3.064 -1.9301 -2.3294 -1.8458
 4960TIP3   OH236294   3.047   0.672   4.165 -0.6639 -0.5937  0.4224
 4960TIP3    H136295   3.055   0.675   4.261  1.1914  0.5713  0.2978
 4960TIP3    H236296   3.135   0.647   4.135 -0.9759 -0.0687 -0.9896
 4961TIP3   OH236297   0.580   1.594  12.777  0.3337  0.0318  0.4472
 4961TIP3    H136298   0.659   1.541  12.788 -0.0349 -0.3419  1.3961
 4961TIP3    H236299   0.541   1.597  12.864 -0.3897  0.7081  0.1098
 4962TIP3   OH236300   0.722   4.586  12.547  0.0807 -0.1128 -0.5696
 4962TIP3    H136301   0.643   4.605  12.597  0.3119 -0.1950 -0.1617
 4962TIP3    H236302   0.708   4.499  12.511  0.2994 -0.4502  0.1431
 4963TIP3   OH236303   5.856   2.099   5.949  0.0065 -0.1707 -0.9479
 4963TIP3    H136304   5.787   2.084   6.013 -0.0592 -0.9244 -1.1873
 4963TIP3    H236305   5.895   2.182   5.975  0.6265 -0.9122  0.6680
 4964TIP3   OH236306   0.477   0.629  13.448  0.2945  0.8763 -0.5408
 4964TIP3    H136307   0.519   0.670  13.372  0.2620  1.0454 -0.4693
 4964TIP3    H236308   0.525   0.664  13.524  0.2935  0.7488 -0.4813
 4965TIP3   OH236309   0.491   4.418  11.462 -0.7050  0.6243 -0.0960
 4965TIP3    H136310   0.463   4.394  11.550 -0.4237 -0.8723 -0.3807
 4965TIP3    H236311   0.491   4.335  11.413 -1.1086  1.4543 -1.5766
 4966TIP3   OH236312   0.009   3.714  15.513 -0.4227 -0.0118  0.0252
 4966TIP3    H136313   0.042   3.769  15.443 -1.3092  0.9533  0.3340
 4966TIP3    H236314  -0.062   3.766  15.553 -1.0447 -1.2307  0.5536
 4967TIP3   OH236315   0.069   4.041  11.826  0.0901 -0.3888 -0.0236
 4967TIP3    H136316   0.085   4.084  11.911  0.3324 -1.2934  0.3979
 4967TIP3    H236317   0.080   3.948  11.844  2.0337 -0.4951 -1.4688
 4968TIP3   OH236318   4.237   0.134  15.819  0.7935 -0.2219  0.1706
 4968TIP3    H136319   4.144   0.132  15.841  0.4573  1.6097 -0.8124
 4968TIP3    H236320   4.252   0.055  15.768 -0.3268 -0.3691  0.0523
 4969TIP3   OH236321   5.698   4.295  16.049  0.2959  0.1643  0.2623
 4969TIP3    H136322   5.722   4.305  15.957  0.8786  0.5940  0.4532
 4969TIP3    H236323   5.603   4.308  16.050  0.2876  0.1952 -0.2725
 4970TIP3   OH236324   4.936   0.103   3.738 -0.4380  0.2238  0.2694
 4970TIP3    H136325   4.963   0.052   3.814 -0.6982  1.3294  1.1239
 4970TIP3    H236326   4.866   0.051   3.698 -0.0170 -0.5674  0.5405
 4971TIP3   OH236327   0.926   1.563   2.856 -0.6855  0.1770 -0.3577
 4971TIP3    H136328   0.969   1.599   2.779 -0.2893  1.1588  0.3056
 4971TIP3    H236329   0.870   1.493   2.822 -0.5970  0.6659 -1.5469
 4972TIP3   OH236330   3.549   1.031  15.896 -0.0507  0.1827 -0.3045
 4972TIP3    H136331   3.631   1.071  15.927  0.1692 -0.0056 -0.6410
 4972TIP3    H236332   3.485   1.102  15.899 -0.0799  0.1359  0.7456
 4973TIP3   OH236333   3.309   5.772  16.993 -1.0311  0.1534  0.1631
 4973TIP3    H136334   3.365   5.807  17.062 -0.7909 -0.1243  0.1116
 4973TIP3    H236335   3.343   5.684  16.977 -0.1029  0.7500 -1.3695
 4974TIP3   OH236336   3.546   4.772  13.122 -0.3812 -0.0595 -0.6278
 4974TIP3    H136337   3.500   4.824  13.056  0.1046  2.2290  0.6885
 4974TIP3    H236338   3.638   4.800  13.114 -0.0577 -0.9144 -0.0296
 4975TIP3   OH236339   6.580   4.361  14.388 -0.7182  0.5552  0.5919
 4975TIP3    H136340   6.546   4.299  14.453  1.1774 -2.1592 -0.7884
 4975TIP3    H236341   6.658   4.399  14.430 -0.3886 -0.0232  0.5232
 4976TIP3   OH236342   5.318   3.739   0.230  0.3155 -0.0228 -0.2680
 4976TIP3    H136343   5.290   3.700   0.147  0.4074  0.4613 -0.5260
 4976TIP3    H236344   5.305   3.833   0.218 -0.3447 -0.0039  0.5252
 4977TIP3   OH236345   3.904   6.359  14.776 -0.2754 -0.1882  0.6323
 4977TIP3    H136346   3.924   6.356  14.869 -2.0621  0.5186  1.0682
 4977TIP3    H236347   3.879   6.269  14.754 -0.9481 -0.1208  1.1023
 4978TIP3   OH236348   5.341   2.257   5.443 -0.3746  0.2573 -0.1769
 4978TIP3    H136349   5.313   2.291   5.527 -0.8010  0.2453 -0.3110
 4978TIP3    H236350   5.401   2.323   5.408  0.1633  0.0456  0.3383
 4979TIP3   OH236351   6.532   2.294  13.301 -0.3500  0.6843 -0.3653
 4979TIP3    H136352   6.488   2.249  13.373 -1.7244  0.1663 -1.4730
 4979TIP3    H236353   6.601   2.235  13.273  1.3444  1.6281  1.5870
 4980TIP3   OH236354   3.995   4.812  16.958 -0.1329 -0.1593  0.1954
 4980TIP3    H136355   3.999   4.752  16.883 -0.2919  0.5696 -0.4121
 4980TIP3    H236356   4.086   4.819  16.987  0.1279  0.5000 -0.7165
 4981TIP3   OH236357   6.210   3.654   4.562 -0.3805  0.0554  0.1992
 4981TIP3    H136358   6.186   3.603   4.485 -1.1013 -0.0492  0.4848
 4981TIP3    H236359   6.139   3.638   4.624 -0.5727  1.3390  0.3287
 4982TIP3   OH236360   2.880   5.457  16.598 -0.1775  0.0593  0.5396
 4982TIP3    H136361   2.869   5.460  16.693  0.1694 -1.2959  0.6381
 4982TIP3    H236362   2.794   5.433  16.564 -0.4475  1.0881  0.4477
 4983TIP3   OH236363   6.129   1.258   6.290 -0.1770  0.3095 -0.6255
 4983TIP3    H136364   6.201   1.229   6.345  0.1162  0.7045 -0.8022
 4983TIP3    H236365   6.155   1.234   6.201 -0.9493 -0.9530 -0.5485
 4984TIP3   OH236366   3.620   5.799   4.937 -0.1705 -0.1719  0.2719
 4984TIP3    H136367   3.672   5.823   4.860  0.0092  0.3031  0.5368
 4984TIP3    H236368   3.532   5.829   4.917 -0.7173 -2.3033 -0.8146
 4985TIP3   OH236369   4.607   1.117  16.209 -0.0088  0.0494  0.1058
 4985TIP3    H136370   4.546   1.128  16.136 -0.0111 -0.2657  0.0621
 4985TIP3    H236371   4.589   1.029  16.243  1.1408 -0.4646 -0.5585
 4986TIP3   OH236372   3.911   5.833  13.506  0.1873  0.0160  0.2774
 4986TIP3    H136373   3.822   5.863  13.523  0.5333  1.3433 -0.1314
 4986TIP3    H236374   3.902   5.739  13.489 -1.2282  0.2449 -0.3968
 4987TIP3   OH236375   2.195   6.186  14.549 -0.4594  0.1143 -0.1103
 4987TIP3    H136376   2.263   6.121  14.564 -1.3782 -0.8345  0.0217
 4987TIP3    H236377   2.187   6.191  14.454  0.3513  0.8501 -0.1623
 4988TIP3   OH236378   3.891   0.908   2.098 -0.4426 -0.2240  0.2253
 4988TIP3    H136379   3.903   0.920   2.192 -0.0922 -0.6017  0.2351
 4988TIP3    H236380   3.809   0.860   2.090 -0.7812  0.3401  0.3024
 4989TIP3   OH236381   3.398   3.988  12.160  0.0575 -0.1308  0.2923
 4989TIP3    H136382   3.417   3.901  12.124  0.8825 -0.3668  1.2610
 4989TIP3    H236383   3.334   3.971  12.229  0.2697  0.0206  0.5264
 4990TIP3   OH236384   0.253   4.911  11.366 -0.1312  0.1312  0.1560
 4990TIP3    H136385   0.334   4.864  11.344 -0.0044 -0.9953  2.7674
 4990TIP3    H236386   0.192   4.885  11.297 -0.0538 -3.9798  1.3446
 4991TIP3   OH236387   3.175   1.527  16.754 -0.0244 -0.0463  0.3529
 4991TIP3    H136388   3.248   1.527  16.692  0.1382  1.9010  0.4769
 4991TIP3    H236389   3.099   1.548  16.700 -0.0800  0.3974  0.5987
 4992TIP3   OH236390   3.535   5.778  14.615 -0.0311 -0.5388  0.2917
 4992TIP3    H136391   3.548   5.844  14.547 -1.0413  0.1573  0.7474
 4992TIP3    H236392   3.578   5.700  14.581  0.9337  0.2537 -0.3980
 4993TIP3   OH236393   5.548   2.733   5.597  0.4530 -0.4213  0.3338
 4993TIP3    H136394   5.599   2.721   5.517  0.9221 -1.7660  0.7919
 4993TIP3    H236395   5.612   2.756   5.663  0.0958  0.4646  0.3801
 4994TIP3   OH236396   0.332   3.159  16.420 -0.2834 -0.0085  0.1414
 4994TIP3    H136397   0.347   3.123  16.507  0.5791  0.2942  0.1233
 4994TIP3    H236398   0.419   3.177  16.385 -0.6182 -0.0369 -0.7513
 4995TIP3   OH236399   4.074   2.381  13.310 -0.2488  0.5689 -0.3005
 4995TIP3    H136400   4.123   2.446  13.261 -1.6501  1.4892 -0.5514
 4995TIP3    H236401   4.058   2.310  13.248  0.1379  0.5913 -0.4248
 4996TIP3   OH236402   3.466   5.781   0.554  0.4180  0.1710  0.6147
 4996TIP3    H136403   3.524   5.829   0.494 -0.3178  2.1038  1.3727
 4996TIP3    H236404   3.500   5.801   0.641 -1.0663  0.9693  1.0500
 4997TIP3   OH236405   6.179   5.355   1.795  0.0605 -0.5216  0.2188
 4997TIP3    H136406   6.257   5.378   1.846  0.8654 -2.6687  0.0835
 4997TIP3    H236407   6.203   5.374   1.705 -0.8744  2.0134  0.4374
 4998TIP3   OH236408   4.774   0.669  16.746  0.0003  0.2792  0.3081
 4998TIP3    H136409   4.719   0.684  16.823  0.6675 -0.1224  0.8737
 4998TIP3    H236410   4.805   0.756  16.721 -0.8865  0.5132 -0.0266
 4999TIP3   OH236411   1.247   5.672   0.714  0.0515 -0.4340  0.2938
 4999TIP3    H136412   1.207   5.759   0.712 -1.3277 -1.0458 -0.4466
 4999TIP3    H236413   1.281   5.659   0.625  0.8856 -0.3776  0.6000
 5000TIP3   OH236414   1.116   5.913   3.513 -0.8241  0.1390  0.0052
 5000TIP3    H136415   1.077   5.939   3.430  0.0059 -0.8657 -0.7406
 5000TIP3    H236416   1.205   5.885   3.490 -0.4716  0.1205  1.2800
 5001TIP3   OH236417   1.576   3.504   0.267  0.1180 -0.6019 -0.0038
 5001TIP3    H136418   1.669   3.480   0.268  0.1596 -0.4480  0.9211
 5001TIP3    H236419   1.568   3.568   0.196  1.0852  0.7236  1.0333
 5002TIP3   OH236420   5.536   2.345  11.054 -0.4814 -1.1845 -0.6621
 5002TIP3    H136421   5.459   2.343  10.998  0.7058  0.5834 -2.5133
 5002TIP3    H236422   5.548   2.438  11.075  0.2432 -1.5973  0.9402
 5003TIP3   OH236423   4.078   4.325   2.215  0.1807 -0.6053 -0.1969
 5003TIP3    H136424   4.150   4.325   2.279 -0.4283 -1.1185  0.5108
 5003TIP3    H236425   4.050   4.233   2.213 -0.3307 -0.4374 -0.6068
 5004TIP3   OH236426   4.981   3.993   1.399  0.4744  0.0984  0.0118
 5004TIP3    H136427   4.998   3.905   1.433  0.5994 -0.4907 -1.4793
 5004TIP3    H236428   5.063   4.017   1.355 -0.3689 -0.1215 -1.7607
 5005TIP3   OH236429   6.712   3.565   1.272  0.0589 -0.2461  0.2159
 5005TIP3    H136430   6.754   3.526   1.195 -1.8982 -1.7268 -0.2063
 5005TIP3    H236431   6.749   3.517   1.346  0.2196 -0.4790 -0.0142
 5006TIP3   OH236432   4.441   1.548   0.542  0.4729 -0.6331 -0.0732
 5006TIP3    H136433   4.515   1.489   0.528  4.0034  3.2818 -0.0468
 5006TIP3    H236434   4.404   1.560   0.454  0.3455 -2.0175 -0.2355
 5007TIP3   OH236435   5.668   5.534  17.284  0.0368 -0.3920 -0.1839
 5007TIP3    H136436   5.689   5.537  17.191  2.0901 -0.6106  0.2357
 5007TIP3    H236437   5.738   5.482  17.323  0.0467  0.9581  1.7028
 5008TIP3   OH236438   2.527   6.293   1.937  0.5295 -0.0161  0.3740
 5008TIP3    H136439   2.438   6.257   1.947  0.6158 -0.2776  0.2218
 5008TIP3    H236440   2.513   6.386   1.919  0.3098  0.0932  1.0661
 5009TIP3   OH236441   6.085   3.148   4.937 -0.5215 -0.1238 -0.2272
 5009TIP3    H136442   6.053   3.113   4.854 -0.5713  0.9585 -0.6924
 5009TIP3    H236443   6.178   3.165   4.922 -0.5521  0.1663 -0.0997
 5010TIP3   OH236444   1.532   0.573  11.878 -0.0515 -0.2594 -0.2532
 5010TIP3    H136445   1.515   0.625  11.800 -0.2613 -0.4146 -0.3126
 5010TIP3    H236446   1.487   0.619  11.949  0.4901  0.1070 -0.1474
 5011TIP3   OH236447   2.454   3.794   0.269 -0.0827 -0.1031 -0.3511
 5011TIP3    H136448   2.467   3.834   0.355 -0.7385 -0.8118  0.0869
 5011TIP3    H236449   2.471   3.865   0.206 -1.1947  0.8541  0.4015
 5012TIP3   OH236450   2.547   1.286  12.520  0.0470 -0.0171 -0.4638
 5012TIP3    H136451   2.543   1.303  12.614  1.7725  1.5641 -0.6284
 5012TIP3    H236452   2.548   1.372  12.479 -0.0649 -0.6646 -1.9165
 5013TIP3   OH236453   5.408   1.643  12.083 -0.0288  0.2726  0.7732
 5013TIP3    H136454   5.424   1.703  12.156 -0.9151 -2.3262  3.3012
 5013TIP3    H236455   5.494   1.623  12.048  0.4442  1.4147  1.2446
 5014TIP3   OH236456   4.592   3.061   0.662 -0.5911  0.3033  0.0150
 5014TIP3    H136457   4.592   3.128   0.593  1.1556  1.1213  0.7541
 5014TIP3    H236458   4.565   3.108   0.741  1.0002  0.2898  0.6165
 5015TIP3   OH236459   5.873   4.505  14.775 -0.0796  0.5483  0.4819
 5015TIP3    H136460   5.910   4.475  14.858  0.6768 -0.7116 -0.2832
 5015TIP3    H236461   5.944   4.493  14.711 -1.1002  0.1190 -0.6091
 5016TIP3   OH236462   3.000   3.251   2.248  0.4403 -0.5480  0.3260
 5016TIP3    H136463   2.909   3.281   2.259  0.3798 -0.9650  0.9902
 5016TIP3    H236464   3.002   3.214   2.160  0.2061  0.3037 -0.0477
 5017TIP3   OH236465   0.184   4.367   1.957 -0.0544  0.4989 -0.3670
 5017TIP3    H136466   0.133   4.365   2.038 -0.7164  0.6582 -0.7731
 5017TIP3    H236467   0.201   4.460   1.942  0.6855  0.4194 -0.0310
 5018TIP3   OH236468   6.727   0.804  11.022  0.1527 -0.1611  0.0165
 5018TIP3    H136469   6.634   0.810  11.044 -0.4007 -3.1079 -1.0203
 5018TIP3    H236470   6.742   0.876  10.960 -1.6209 -0.0040 -0.2801
 5019TIP3   OH236471   2.336   1.391   4.149  0.0345  0.3035 -0.2287
 5019TIP3    H136472   2.277   1.463   4.167  0.1745 -0.1543  2.3976
 5019TIP3    H236473   2.421   1.419   4.184  0.6222 -0.3150 -1.0887
 5020TIP3   OH236474   6.607   3.131   2.057  0.0888 -0.0835 -0.1954
 5020TIP3    H136475   6.665   3.107   1.985  0.1502  1.2169 -0.6135
 5020TIP3    H236476   6.627   3.068   2.126  0.8315 -0.6598 -0.9140
 5021TIP3   OH236477   6.697   4.958   5.172 -0.2033 -0.2869 -0.1243
 5021TIP3    H136478   6.630   4.995   5.229 -0.5750  0.8004 -1.2414
 5021TIP3    H236479   6.649   4.922   5.097  0.4936  1.6275 -1.5516
 5022TIP3   OH236480   1.209   3.232  13.032  0.3906  0.0787  0.3114
 5022TIP3    H136481   1.303   3.219  13.022  0.3852 -0.2159  0.6502
 5022TIP3    H236482   1.169   3.166  12.975  0.3836 -0.2346  0.6754
 5023TIP3   OH236483   4.390   1.297   2.042  0.5276  0.0232  0.0111
 5023TIP3    H136484   4.348   1.301   2.127  1.1127 -0.2793  0.3226
 5023TIP3    H236485   4.319   1.313   1.979  0.3600  1.8021  0.5925
 5024TIP3   OH236486   2.690   3.759   1.303 -0.1848 -0.5790 -0.3669
 5024TIP3    H136487   2.675   3.666   1.286  1.2796 -0.5244 -2.3323
 5024TIP3    H236488   2.752   3.786   1.235 -0.6530  1.8729  0.0906
 5025TIP3   OH236489   5.106   0.905  17.336  0.4117  0.1056 -0.2110
 5025TIP3    H136490   5.164   0.880  17.265  0.8538  0.8837 -0.1414
 5025TIP3    H236491   5.101   0.828  17.392  2.1087  0.2913  0.2533
 5026TIP3   OH236492   2.814   4.679  16.756  0.5655 -0.3203 -0.2157
 5026TIP3    H136493   2.795   4.742  16.826  0.2110 -1.0930  0.4069
 5026TIP3    H236494   2.769   4.599  16.784  1.4009 -0.9873 -0.7429
 5027TIP3   OH236495   0.263   0.450  11.457 -0.1453 -0.2398 -0.0928
 5027TIP3    H136496   0.272   0.544  11.474 -0.3008 -0.3389  0.5360
 5027TIP3    H236497   0.170   0.437  11.441  0.0751 -0.0386 -1.7251
 5028TIP3   OH236498   4.063   1.958   4.631 -0.3511 -0.0906 -0.5320
 5028TIP3    H136499   4.155   1.976   4.612  0.2075 -2.1205 -0.0125
 5028TIP3    H236500   4.052   1.865   4.610 -1.8710 -0.2800  0.8803
 5029TIP3   OH236501   1.873   1.709  16.000 -0.1699 -0.3384  0.2598
 5029TIP3    H136502   1.830   1.794  15.990  2.3459  1.0386  0.4872
 5029TIP3    H236503   1.884   1.678  15.910  0.1888  0.2823  0.0810
 5030TIP3   OH236504   2.830   3.798   0.092  0.1960  0.4987  0.3401
 5030TIP3    H136505   2.829   3.825  -0.000  0.9131  2.5819  0.8881
 5030TIP3    H236506   2.761   3.732   0.098  0.8185 -0.4379 -1.8817
 5031TIP3   OH236507   5.838   2.417   5.113 -0.2590  0.1017 -0.3589
 5031TIP3    H136508   5.783   2.391   5.040  0.7289 -1.8552 -0.4709
 5031TIP3    H236509   5.841   2.340   5.170  2.1272  0.1911 -0.2478
 5032TIP3   OH236510   2.976   2.281   4.334 -0.1531  0.1403 -0.5408
 5032TIP3    H136511   2.943   2.371   4.332 -0.2716  0.0919 -0.8841
 5032TIP3    H236512   2.931   2.241   4.409 -0.6046  0.1781 -0.7866
 5033TIP3   OH236513   4.097   4.710  12.667 -0.7639 -0.2462  0.1858
 5033TIP3    H136514   4.026   4.719  12.730 -1.7497  0.2153 -0.9464
 5033TIP3    H236515   4.057   4.732  12.583  0.3853 -1.3512 -0.6815
 5034TIP3   OH236516   2.177   1.828  11.911 -0.2212  0.1644  0.3953
 5034TIP3    H136517   2.188   1.922  11.893  0.3108 -0.0715 -0.5280
 5034TIP3    H236518   2.264   1.798  11.936  0.0015 -0.4279 -0.9869
 5035TIP3   OH236519   1.155   6.311  11.712  0.0859 -0.3363  0.2623
 5035TIP3    H136520   1.185   6.325  11.622 -0.3076  0.4317  0.2506
 5035TIP3    H236521   1.163   6.216  11.725  2.5862 -0.1993  0.2855
 5036TIP3   OH236522   1.462   2.554  10.616  0.1617 -0.0594 -0.3643
 5036TIP3    H136523   1.375   2.540  10.655  0.5478  0.6492  0.7823
 5036TIP3    H236524   1.453   2.634  10.565 -0.5583 -1.3922 -2.4724
 5037TIP3   OH236525   6.699   4.399  14.860 -0.2285 -0.2670 -0.7401
 5037TIP3    H136526   6.767   4.398  14.929  0.4823  2.6379 -1.2795
 5037TIP3    H236527   6.617   4.395  14.908  0.2654  1.2891  0.2952
 5038TIP3   OH236528   5.300   2.534   2.529 -0.3683 -0.0921 -0.6507
 5038TIP3    H136529   5.216   2.576   2.510  0.1724  2.0060  1.2615
 5038TIP3    H236530   5.361   2.573   2.467  0.4065  3.2094  1.9003
 5039TIP3   OH236531   4.232   2.684  15.620  0.2791 -0.2067 -0.5535
 5039TIP3    H136532   4.256   2.769  15.583  1.6830  0.2653  1.2785
 5039TIP3    H236533   4.238   2.623  15.547  1.9231  0.8278 -1.3348
 5040TIP3   OH236534   6.461   3.445   2.570  0.1898 -0.1131  0.5707
 5040TIP3    H136535   6.462   3.374   2.635  1.0719  1.1061  1.9598
 5040TIP3    H236536   6.528   3.506   2.600  0.9842  0.2751 -1.7992
 5041TIP3   OH236537   3.600   2.791   4.293  0.6038  0.0948  0.2271
 5041TIP3    H136538   3.605   2.886   4.293  2.1368  0.0535  1.3317
 5041TIP3    H236539   3.573   2.768   4.382 -0.0657 -0.4922 -0.1189
 5042TIP3   OH236540   5.519   4.422   1.239  0.5734  0.0104  0.5720
 5042TIP3    H136541   5.526   4.508   1.198 -0.2999 -0.1494  0.0812
 5042TIP3    H236542   5.595   4.374   1.206  1.0183  0.5535  0.7791
 5043TIP3   OH236543   0.016   1.734  16.642 -0.2431 -0.2276  0.3182
 5043TIP3    H136544   0.090   1.728  16.702 -0.2255 -0.9212  0.2300
 5043TIP3    H236545  -0.057   1.763  16.696  0.4607  2.1711  0.0956
 5044TIP3   OH236546   0.635   3.659  16.136  0.0084  0.2282 -0.0168
 5044TIP3    H136547   0.648   3.749  16.165  0.0847  0.3656 -0.4744
 5044TIP3    H236548   0.622   3.609  16.217  3.4370  0.0305  0.5279
 5045TIP3   OH236549   5.529   1.858   5.120 -0.0439 -0.5291  0.0692
 5045TIP3    H136550   5.444   1.871   5.164 -0.7097 -0.4782 -1.1917
 5045TIP3    H236551   5.594   1.869   5.190 -0.9810  1.1686  0.7266
 5046TIP3   OH236552   1.553   0.704   5.167 -0.3752  0.0869  0.1511
 5046TIP3    H136553   1.621   0.765   5.141 -0.7404  0.0630 -0.9075
 5046TIP3    H236554   1.471   0.750   5.147 -0.6941  0.3036  1.8362
 5047TIP3   OH236555   0.844   5.851   5.228  0.2133  0.4338 -0.4753
 5047TIP3    H136556   0.825   5.854   5.134 -1.2306 -2.1508 -0.3598
 5047TIP3    H236557   0.933   5.816   5.234 -0.4237 -1.3788 -0.9287
 5048TIP3   OH236558   6.320   5.995   2.219  0.0978 -0.5186 -0.0351
 5048TIP3    H136559   6.383   5.925   2.204  0.6780  0.0292 -0.2148
 5048TIP3    H236560   6.361   6.073   2.182 -0.3119  0.0187  0.6052
 5049TIP3   OH236561   2.234   3.870   0.496  0.0452  0.1615 -0.5744
 5049TIP3    H136562   2.182   3.939   0.538 -0.4794 -0.1467 -0.7082
 5049TIP3    H236563   2.177   3.793   0.497  0.8173 -0.4133  0.0276
 5050TIP3   OH236564   3.014   6.593   3.843  0.0085 -0.3674 -0.0422
 5050TIP3    H136565   2.984   6.668   3.793  1.0116 -0.3404 -0.6426
 5050TIP3    H236566   2.956   6.589   3.919 -0.9766  0.1230 -0.7495
 5051TIP3   OH236567   5.195   6.473  14.791 -0.3675  0.5522  0.3119
 5051TIP3    H136568   5.173   6.551  14.740  1.3921  0.5433 -0.5482
 5051TIP3    H236569   5.280   6.493  14.830  0.2274 -0.9796 -0.1030
 5052TIP3   OH236570   6.230   2.758   4.422 -0.1088  0.5314 -0.5979
 5052TIP3    H136571   6.233   2.702   4.345 -0.6091 -0.5291  0.1268
 5052TIP3    H236572   6.165   2.824   4.401 -2.0033 -1.1169 -0.2491
 5053TIP3   OH236573   4.105   0.191   2.589 -0.5046  0.0477 -0.1321
 5053TIP3    H136574   4.105   0.281   2.621  1.0612  0.0304 -0.0185
 5053TIP3    H236575   4.013   0.165   2.591 -0.7199  0.7306  2.4385
 5054TIP3   OH236576   1.740   1.259   5.352  0.4599 -0.8845 -0.0495
 5054TIP3    H136577   1.647   1.279   5.361  1.0202  1.0879  2.4278
 5054TIP3    H236578   1.779   1.338   5.316  1.1595 -1.8835 -1.5875
 5055TIP3   OH236579   6.735   1.993   2.735  0.1993 -0.6256  0.0872
 5055TIP3    H136580   6.714   1.956   2.649 -0.0110 -1.4989  0.5092
 5055TIP3    H236581   6.729   1.919   2.795 -3.2054  0.5615  1.4512
 5056TIP3   OH236582   0.081   2.376   4.429  0.2673  0.6285 -0.2207
 5056TIP3    H136583   0.057   2.452   4.482  3.2440  0.0623  2.1961
 5056TIP3    H236584   0.037   2.302   4.471  0.2692  0.5613 -0.3362
 5057TIP3   OH236585   1.130   2.450   5.731 -0.0483 -0.0676  0.3486
 5057TIP3    H136586   1.051   2.503   5.724  0.5976  0.7161 -2.3196
 5057TIP3    H236587   1.193   2.508   5.774 -0.4025 -0.0331  0.8267
 5058TIP3   OH236588   6.221   5.194  12.716 -0.5929 -0.2680 -0.0328
 5058TIP3    H136589   6.196   5.204  12.624 -0.7068 -1.9279 -0.2018
 5058TIP3    H236590   6.314   5.172  12.713 -0.4604  0.2375  0.2871
 5059TIP3   OH236591   1.472   1.722   5.988 -0.2721  0.4757 -0.6128
 5059TIP3    H136592   1.491   1.683   5.902  3.2951 -0.4250  0.4327
 5059TIP3    H236593   1.501   1.813   5.980 -0.0748  0.4307 -0.4079
 5060TIP3   OH236594   1.928   5.345   0.988  0.2760 -0.5693 -0.1323
 5060TIP3    H136595   1.918   5.366   0.895  2.0020 -0.4844 -0.3269
 5060TIP3    H236596   2.020   5.318   0.997  0.5077  0.6737  1.7737
 5061TIP3   OH236597   0.811   0.383   5.239 -0.0720 -0.0177 -0.0122
 5061TIP3    H136598   0.731   0.364   5.191 -2.2448  4.6335  1.1387
 5061TIP3    H236599   0.786   0.377   5.331  1.3535  0.0775  0.4108
 5062TIP3   OH236600   0.180   5.203  15.430  0.1506  0.1486 -0.1929
 5062TIP3    H136601   0.142   5.242  15.508 -0.3130  0.3945 -0.5364
 5062TIP3    H236602   0.250   5.146  15.463 -1.3637 -1.3799  0.5717
 5063TIP3   OH236603   0.704   2.970  13.093 -0.1112  1.1667 -0.2768
 5063TIP3    H136604   0.634   3.035  13.101 -0.6336  0.4404  1.4804
 5063TIP3    H236605   0.723   2.966  12.999 -1.1776  2.6787 -0.5777
 5064TIP3   OH236606   0.516   0.367   3.296 -0.1934 -0.1247 -0.4536
 5064TIP3    H136607   0.499   0.303   3.227 -1.6482  0.3518 -0.5572
 5064TIP3    H236608   0.430   0.389   3.330  0.3484  1.1991  0.1163
 5065TIP3   OH236609   6.469   0.561   3.967 -0.1227 -0.1601 -0.1257
 5065TIP3    H136610   6.396   0.505   3.994 -1.8170  1.2350 -1.5369
 5065TIP3    H236611   6.469   0.556   3.871 -0.0147  1.8137 -0.2700
 5066TIP3   OH236612   3.465   6.574  11.860  0.4154  0.8194  0.0813
 5066TIP3    H136613   3.476   6.538  11.772 -0.1109 -0.8804  0.6698
 5066TIP3    H236614   3.535   6.639  11.869  2.9817 -1.7443 -0.2015
 5067TIP3   OH236615   2.398   5.857   5.894  0.0244  0.3199 -0.1971
 5067TIP3    H136616   2.407   5.931   5.834 -1.6594  0.2812 -0.5693
 5067TIP3    H236617   2.445   5.883   5.973 -0.2649  1.6582 -0.4436
 5068TIP3   OH236618   0.531   2.373   5.726  0.5935  0.3213  0.7761
 5068TIP3    H136619   0.596   2.346   5.791 -0.1320  0.9455  1.7904
 5068TIP3    H236620   0.462   2.307   5.733  0.6883  0.1775  0.3595
 5069TIP3   OH236621   3.068   1.338  16.533 -0.0154  0.7979  0.2956
 5069TIP3    H136622   3.027   1.258  16.565  1.7912  0.1033  1.0028
 5069TIP3    H236623   2.999   1.404  16.536 -1.4406 -0.6316  0.0533
 5070TIP3   OH236624   2.830   3.529   0.340 -0.3440  0.1803 -0.4745
 5070TIP3    H136625   2.760   3.523   0.275 -1.4681  0.6367  0.6342
 5070TIP3    H236626   2.829   3.620   0.368  1.8520  0.6206 -1.6037
 5071TIP3   OH236627   0.089   1.150   1.629 -0.4933 -0.3152  0.6039
 5071TIP3    H136628  -0.001   1.141   1.598 -0.4588 -1.6985  0.8407
 5071TIP3    H236629   0.082   1.154   1.724 -0.1949 -2.7835  0.7851
 5072TIP3   OH236630   2.682   0.375   3.225 -0.2926 -0.2927  0.2610
 5072TIP3    H136631   2.694   0.344   3.135  0.3222 -0.3811  0.3688
 5072TIP3    H236632   2.769   0.405   3.251 -0.3689 -0.6881  0.9870
 5073TIP3   OH236633   4.647   1.451  11.983  0.0886 -0.2758  0.0658
 5073TIP3    H136634   4.586   1.384  11.953 -1.0945  1.6115 -1.9481
 5073TIP3    H236635   4.684   1.488  11.903 -1.0427  3.0276  0.9297
 5074TIP3   OH236636   0.753   1.848   3.776  0.4107  0.1391  0.1669
 5074TIP3    H136637   0.839   1.869   3.739 -0.0683 -0.1995 -1.1957
 5074TIP3    H236638   0.751   1.897   3.859  1.9500  0.0524  0.2936
 5075TIP3   OH236639   0.135   6.004   2.203  0.4795  0.6417  0.2692
 5075TIP3    H136640   0.222   6.032   2.175  0.1110  1.5907  0.0666
 5075TIP3    H236641   0.136   6.015   2.298 -0.0642  2.5451  0.0839
 5076TIP3   OH236642   5.760   5.678   5.014 -0.4334 -0.4162  0.4065
 5076TIP3    H136643   5.713   5.704   5.093  0.2619 -0.1805  0.7459
 5076TIP3    H236644   5.699   5.699   4.943 -0.1966  1.5297  0.7156
 5077TIP3   OH236645   2.308   6.604  13.616 -0.3642 -0.0055 -0.2009
 5077TIP3    H136646   2.342   6.515  13.609 -0.3225  0.1392 -2.4390
 5077TIP3    H236647   2.333   6.632  13.704 -1.6375 -2.6807  1.1639
 5078TIP3   OH236648   0.716   4.186  12.237 -0.4633 -0.1582 -0.7134
 5078TIP3    H136649   0.774   4.120  12.274 -1.1024 -1.1536 -1.4489
 5078TIP3    H236650   0.686   4.148  12.155 -1.2657  0.8259 -0.8883
 5079TIP3   OH236651   1.803   2.357  13.752 -0.4571 -0.3284  0.3659
 5079TIP3    H136652   1.842   2.316  13.675 -0.6268 -0.6765  0.4601
 5079TIP3    H236653   1.858   2.433  13.771 -0.4533 -0.2049 -0.1356
 5080TIP3   OH236654   0.403   1.162  15.986  0.2808  0.2129 -0.2275
 5080TIP3    H136655   0.447   1.205  15.913  0.2114 -1.1862 -1.1393
 5080TIP3    H236656   0.320   1.132  15.949  1.7164 -3.7323 -0.7542
 5081TIP3   OH236657   2.969   1.893   2.175  0.7348  0.4050  0.2840
 5081TIP3    H136658   2.928   1.898   2.261 -3.0892 -1.9654 -1.1775
 5081TIP3    H236659   3.062   1.909   2.192  0.2961 -0.6019  4.8999
 5082TIP3   OH236660   1.183   4.056  11.763 -0.4585 -0.0607 -0.0086
 5082TIP3    H136661   1.242   4.130  11.773  0.3353 -0.4826 -1.3750
 5082TIP3    H236662   1.203   3.999  11.838  0.2921  0.1878 -0.0145
 5083TIP3   OH236663   3.447   6.028   0.103 -0.0749  0.3990 -0.2904
 5083TIP3    H136664   3.451   5.933   0.116  1.2272  0.2804 -1.2920
 5083TIP3    H236665   3.375   6.040   0.040  0.4369 -0.0487 -0.9811
 5084TIP3   OH236666   2.169   4.943   2.059 -0.2970 -0.1597  0.2166
 5084TIP3    H136667   2.149   4.867   2.114  0.3648 -0.2866  0.2861
 5084TIP3    H236668   2.230   4.995   2.111 -0.6207  0.3434  0.1027
 5085TIP3   OH236669   4.678   0.238   3.456 -0.2311 -0.0617  0.0156
 5085TIP3    H136670   4.625   0.212   3.531 -2.8013  0.9745 -1.3198
 5085TIP3    H236671   4.626   0.212   3.380  0.2444  2.7432 -1.3792
 5086TIP3   OH236672   2.424   2.039  14.482  0.2810  0.2728  0.1624
 5086TIP3    H136673   2.362   1.990  14.428  0.8582 -0.4731  0.1599
 5086TIP3    H236674   2.379   2.122  14.501 -1.4192 -0.8710  1.5180
 5087TIP3   OH236675   5.434   4.917  12.019  0.1215  0.2951 -0.1003
 5087TIP3    H136676   5.502   4.901  11.954 -0.4757  0.5011 -0.8026
 5087TIP3    H236677   5.360   4.863  11.990  0.2075 -0.4533  1.0344
 5088TIP3   OH236678   2.478   5.924   3.170 -0.3775  0.2752 -0.0743
 5088TIP3    H136679   2.469   5.972   3.088 -1.9209  1.7430  0.8871
 5088TIP3    H236680   2.470   5.990   3.238 -0.4152 -1.0709  1.2946
 5089TIP3   OH236681   3.156   4.294   0.734  0.6641  0.1270 -0.3154
 5089TIP3    H136682   3.138   4.233   0.662 -0.3250 -0.3806  0.3340
 5089TIP3    H236683   3.112   4.255   0.810  2.2602  0.2885  0.7383
 5090TIP3   OH236684   2.217   5.789  11.755  0.1271  0.0458 -0.6591
 5090TIP3    H136685   2.257   5.737  11.825 -0.2521  1.3242  0.5405
 5090TIP3    H236686   2.151   5.842  11.799  0.0263  1.0445 -1.9576
 5091TIP3   OH236687   3.329   5.051   1.878  0.2036  0.2323  0.1596
 5091TIP3    H136688   3.340   5.113   1.806  0.6993 -0.9290 -0.7970
 5091TIP3    H236689   3.274   5.097   1.941  1.3890  2.0184 -0.0518
 5092TIP3   OH236690   3.228   1.077  12.795 -0.5163 -0.1777  0.2151
 5092TIP3    H136691   3.146   1.099  12.839 -0.7491  0.4825 -0.5216
 5092TIP3    H236692   3.282   1.156  12.803 -0.0269 -0.5290  0.4976
 5093TIP3   OH236693   2.818   5.286  16.139  0.1869 -0.4073  0.4776
 5093TIP3    H136694   2.824   5.196  16.107  0.8206 -0.3113  0.3151
 5093TIP3    H236695   2.766   5.331  16.073  0.5237 -0.4776  0.1596
 5094TIP3   OH236696   4.298   6.348   1.689  0.3482  0.1441  0.1186
 5094TIP3    H136697   4.304   6.428   1.741  3.0288 -1.5501  2.7076
 5094TIP3    H236698   4.363   6.359   1.620  1.4747 -0.1577  1.1043
 5095TIP3   OH236699   3.897   3.792  15.493 -0.7252 -0.6514  0.3920
 5095TIP3    H136700   3.984   3.773  15.529 -1.1412 -3.6404  0.1217
 5095TIP3    H236701   3.912   3.796  15.398 -0.7043  0.0427  0.4240
 5096TIP3   OH236702   5.701   5.071  14.490 -0.4079  0.2994 -0.1590
 5096TIP3    H136703   5.728   5.048  14.579 -0.3485 -1.6724 -0.6332
 5096TIP3    H236704   5.618   5.116  14.500  0.1890  1.1988  0.9527
 5097TIP3   OH236705   6.468   0.887  13.815 -0.3239 -0.3152  0.2593
 5097TIP3    H136706   6.528   0.831  13.766 -1.2217 -0.6617 -0.4842
 5097TIP3    H236707   6.482   0.863  13.906  0.4749 -0.5683  0.0802
 5098TIP3   OH236708   4.467   2.195  11.225 -0.1579  0.7624  0.0971
 5098TIP3    H136709   4.534   2.128  11.210 -0.5119 -0.2758  2.5791
 5098TIP3    H236710   4.393   2.147  11.261 -1.7283  2.0900 -1.2555
 5099TIP3   OH236711   3.630   0.339   4.000  0.1512 -0.2855  0.5406
 5099TIP3    H136712   3.605   0.247   4.011  1.3607 -0.7881 -0.6996
 5099TIP3    H236713   3.615   0.357   3.907  1.3425  0.3120  0.4462
 5100TIP3   OH236714   1.529   2.045  16.553 -1.0099 -0.1776 -0.0212
 5100TIP3    H136715   1.540   2.123  16.499 -0.0601 -0.1322  0.2083
 5100TIP3    H236716   1.618   2.014  16.568 -1.3657 -1.1975  0.0573
 5101TIP3   OH236717   1.289   6.162  15.955  0.0019  0.0665  0.6047
 5101TIP3    H136718   1.378   6.128  15.956 -1.1003 -3.1741 -0.2765
 5101TIP3    H236719   1.257   6.150  16.044  0.1692  0.5695  0.7408
 5102TIP3   OH236720   3.335   4.422  15.643 -0.0379  0.0757  0.1086
 5102TIP3    H136721   3.257   4.404  15.697  0.1042  1.3209  0.7855
 5102TIP3    H236722   3.306   4.408  15.553 -1.4126  1.6119  0.2611
 5103TIP3   OH236723   0.456   4.386  11.079  0.3850 -0.1460  0.2635
 5103TIP3    H136724   0.449   4.311  11.138 -0.7868  0.6080  1.1465
 5103TIP3    H236725   0.396   4.366  11.007  1.6491 -0.9683 -0.5904
 5104TIP3   OH236726   5.676   1.103  17.242 -0.6538 -0.4401 -0.6316
 5104TIP3    H136727   5.691   1.121  17.149  1.3310  0.3880 -0.2255
 5104TIP3    H236728   5.760   1.068  17.273 -0.7279  0.8233  1.1570
 5105TIP3   OH236729   3.624   4.735  17.388  0.8725 -0.5945  0.6226
 5105TIP3    H136730   3.582   4.817  17.414  0.3700 -0.4320 -0.6414
 5105TIP3    H236731   3.618   4.680  17.466 -2.2412 -0.7960  0.3566
 5106TIP3   OH236732   5.174   4.069   2.221  0.1684 -0.2061  0.0525
 5106TIP3    H136733   5.253   4.039   2.176  0.1584 -0.2415  0.0587
 5106TIP3    H236734   5.206   4.131   2.287  0.5330 -2.5284  2.2174
 5107TIP3   OH236735   3.800   0.194  16.160 -0.3850 -0.5237  0.1340
 5107TIP3    H136736   3.717   0.168  16.201 -0.6748 -1.6256 -1.0878
 5107TIP3    H236737   3.836   0.113  16.124 -0.1167  0.3606 -1.7200
 5108TIP3   OH236738   5.001   1.841  11.779 -0.2351 -0.1466 -0.1063
 5108TIP3    H136739   5.009   1.805  11.690 -1.2029  2.8845 -1.5468
 5108TIP3    H236740   5.091   1.845  11.811  0.1214 -1.3757 -0.8807
 5109TIP3   OH236741   0.026   1.154   3.096 -0.6669 -0.5592  0.7176
 5109TIP3    H136742  -0.025   1.176   3.174  0.9685 -0.7452  1.8969
 5109TIP3    H236743   0.107   1.116   3.130  0.9123  1.0405 -1.0073
 5110TIP3   OH236744   4.237   2.998   4.854 -0.4402  0.0295  0.1611
 5110TIP3    H136745   4.245   2.932   4.923 -1.3766  0.6914  0.9273
 5110TIP3    H236746   4.157   3.046   4.875  0.1688  1.3597 -0.4095
 5111TIP3   OH236747   4.366   6.518   3.552  0.0646  0.2035  0.4367
 5111TIP3    H136748   4.323   6.455   3.609 -0.0663  1.1742  1.4308
 5111TIP3    H236749   4.451   6.535   3.593 -0.3129  1.4414  0.7514
 5112TIP3   OH236750   5.006   1.968   1.506  0.2703 -0.2806 -0.3670
 5112TIP3    H136751   5.074   1.987   1.571  0.1767  0.1089 -0.3827
 5112TIP3    H236752   5.039   2.005   1.424 -0.0170  0.0252 -0.3473
 5113TIP3   OH236753   1.086   2.094   4.045  0.5580  0.3917 -0.6339
 5113TIP3    H136754   1.169   2.097   3.998  0.9977 -1.3333 -0.0354
 5113TIP3    H236755   1.081   2.178   4.091  2.4177  0.1871  0.0152
 5114TIP3   OH236756   4.784   5.225  13.113 -0.4737 -0.1063  0.0485
 5114TIP3    H136757   4.716   5.189  13.170 -1.8807 -1.0704 -2.1099
 5114TIP3    H236758   4.860   5.169  13.128 -0.4526  0.3009  1.6823
 5115TIP3   OH236759   4.983   2.845  10.559  0.3485  0.0780  0.3319
 5115TIP3    H136760   5.041   2.779  10.521  0.3520  0.5756 -0.5401
 5115TIP3    H236761   4.949   2.803  10.639  0.1761 -1.0739 -0.3206
 5116TIP3   OH236762   4.306   5.677  15.338 -0.5378  0.1285  0.1705
 5116TIP3    H136763   4.295   5.666  15.432 -1.1849 -0.2440  0.0577
 5116TIP3    H236764   4.349   5.597  15.308 -1.2234 -0.1838  0.0073
 5117TIP3   OH236765   6.157   5.727   5.690 -0.1346  0.5154 -0.0989
 5117TIP3    H136766   6.081   5.714   5.633 -0.7815  0.7243  0.6890
 5117TIP3    H236767   6.198   5.640   5.694 -0.0424  0.5124 -0.9194
 5118TIP3   OH236768   6.064   1.110   2.350 -0.3697 -0.5160 -0.2730
 5118TIP3    H136769   6.095   1.198   2.367 -0.4677 -0.2453 -1.3776
 5118TIP3    H236770   5.990   1.122   2.289 -0.9678 -1.2966  0.2765
 5119TIP3   OH236771   3.908   0.887  13.364 -0.5640  0.6293 -0.4166
 5119TIP3    H136772   3.906   0.794  13.385  0.4346  0.8410  0.7004
 5119TIP3    H236773   3.997   0.903  13.332 -0.3678  1.3912  0.4432
 5120TIP3   OH236774   5.274   5.880  11.500 -0.0386 -0.0879 -0.0125
 5120TIP3    H136775   5.246   5.789  11.486  0.7096 -0.4206  0.5561
 5120TIP3    H236776   5.361   5.885  11.461 -0.1914  0.4711 -0.2911
 5121TIP3   OH236777   4.707   1.079   4.534 -0.1257  0.8820  0.1566
 5121TIP3    H136778   4.692   1.124   4.451 -1.9303  0.1574  0.0470
 5121TIP3    H236779   4.798   1.048   4.529 -0.9350 -1.5084 -2.7640
 5122TIP3   OH236780   0.379   4.964   3.234 -0.4799  0.0700 -0.1747
 5122TIP3    H136781   0.440   5.008   3.175  1.2167  1.2724  2.2858
 5122TIP3    H236782   0.408   4.873   3.235  1.2314  0.5742  0.7792
 5123TIP3   OH236783   6.623   2.879  11.485 -0.7648 -0.5189 -0.7475
 5123TIP3    H136784   6.556   2.902  11.550 -0.9189 -0.2704 -0.9955
 5123TIP3    H236785   6.640   2.960  11.438 -0.6213 -0.6903 -0.9936
 5124TIP3   OH236786   0.039   5.816   3.896 -0.4936 -0.0337  0.0780
 5124TIP3    H136787   0.086   5.733   3.900 -0.0331  0.1049 -1.6733
 5124TIP3    H236788  -0.028   5.809   3.964  1.7258 -0.4016  2.3515
 5125TIP3   OH236789   3.746   5.382   3.327 -0.1088  0.0357 -0.6366
 5125TIP3    H136790   3.710   5.431   3.401 -0.2848 -0.7878 -0.1596
 5125TIP3    H236791   3.782   5.449   3.269  0.9524  0.6434  0.6771
 5126TIP3   OH236792   0.692   0.628  11.585 -0.5609  0.1190 -0.1802
 5126TIP3    H136793   0.648   0.593  11.663 -0.1861  1.4250  0.6405
 5126TIP3    H236794   0.647   0.710  11.567 -0.1851  0.1653 -0.9255
 5127TIP3   OH236795   3.626   4.127  13.397 -0.0805 -0.1605  0.4609
 5127TIP3    H136796   3.661   4.206  13.438  1.2895 -0.4532 -0.1090
 5127TIP3    H236797   3.694   4.062  13.408 -0.5683 -0.8412 -0.4238
 5128TIP3   OH236798   1.802   6.115   4.240 -0.3050  0.5236 -0.6637
 5128TIP3    H136799   1.834   6.157   4.320  1.0034  1.6402 -1.7227
 5128TIP3    H236800   1.784   6.188   4.181 -0.7854 -0.3076 -1.5602
 5129TIP3   OH236801   0.580   4.648  13.094 -0.3963 -0.0015  0.6818
 5129TIP3    H136802   0.628   4.632  13.175  0.3562 -0.7697  0.1031
 5129TIP3    H236803   0.553   4.561  13.064  1.7869 -0.0745 -1.3490
 5130TIP3   OH236804   1.500   3.985   5.455  0.3013 -0.0577  0.1932
 5130TIP3    H136805   1.570   3.921   5.466 -0.0691 -0.1896  2.1604
 5130TIP3    H236806   1.436   3.961   5.522 -1.4584  0.2989 -1.2904
 5131TIP3   OH236807   5.374   3.656  14.725  0.6652 -0.0304  0.2297
 5131TIP3    H136808   5.465   3.660  14.696  0.5406  0.2890 -0.1207
 5131TIP3    H236809   5.353   3.563  14.727  0.7101 -0.0630 -0.6033
 5132TIP3   OH236810   2.674   4.465   3.437  0.4055  0.7863  0.2885
 5132TIP3    H136811   2.732   4.495   3.506  1.1293 -0.8035  0.4241
 5132TIP3    H236812   2.692   4.371   3.430  0.3736  0.8947 -2.0595
 5133TIP3   OH236813   6.714   6.407  16.240  0.1652 -0.2314 -0.0073
 5133TIP3    H136814   6.683   6.323  16.207 -1.4835 -1.1895  3.4673
 5133TIP3    H236815   6.797   6.387  16.284  0.1949  0.1447  0.1145
 5134TIP3   OH236816   4.351   6.536  16.822 -0.5374 -0.3664 -0.0403
 5134TIP3    H136817   4.335   6.615  16.771 -3.1188 -0.7937 -0.0377
 5134TIP3    H236818   4.437   6.550  16.862 -0.5147  2.0114 -0.7730
 5135TIP3   OH236819   5.742   2.830  13.083  0.6522  0.6975 -0.0220
 5135TIP3    H136820   5.722   2.748  13.038  1.4633  0.9609 -0.8887
 5135TIP3    H236821   5.665   2.847  13.137  0.9107 -1.1820  0.9932
 5136TIP3   OH236822   3.715   6.339   0.771  0.0618 -0.3359 -0.6109
 5136TIP3    H136823   3.642   6.399   0.775 -0.7500 -1.2350  4.1506
 5136TIP3    H236824   3.682   6.263   0.722 -1.7783 -0.2072  0.3661
 5137TIP3   OH236825   5.394   1.552  14.035 -0.0100  0.2675 -0.5449
 5137TIP3    H136826   5.441   1.521  13.958 -0.1172 -0.0751 -0.4767
 5137TIP3    H236827   5.317   1.598  14.000 -0.2055 -0.1289 -0.6402
 5138TIP3   OH236828   4.313   6.590   1.816 -0.3494  0.3194 -0.2226
 5138TIP3    H136829   4.287   6.577   1.908 -1.5417  0.3418 -0.5420
 5138TIP3    H236830   4.401   6.627   1.821 -0.5580  0.7008  0.9319
 5139TIP3   OH236831   2.008   0.534  15.180  0.0030  0.0813 -0.8113
 5139TIP3    H136832   2.023   0.628  15.165 -2.5177  0.4632 -1.3984
 5139TIP3    H236833   2.082   0.506  15.233  0.8222  2.4112 -0.6190
 5140TIP3   OH236834   3.167   0.783  13.121  0.2345 -0.1430  0.2942
 5140TIP3    H136835   3.106   0.851  13.149  0.2914  0.1781 -0.3434
 5140TIP3    H236836   3.247   0.801  13.171 -0.1321 -0.4537  0.9933
 5141TIP3   OH236837   0.563   2.069   4.954 -0.1193  0.5336  0.0038
 5141TIP3    H136838   0.594   1.982   4.926 -0.3593  0.0081  1.2863
 5141TIP3    H236839   0.644   2.119   4.970  0.0823 -0.1757  1.3622
 5142TIP3   OH236840   4.150   5.528  14.478  0.0271  0.9827  0.0918
 5142TIP3    H136841   4.151   5.478  14.560  1.9521  0.6265 -0.1120
 5142TIP3    H236842   4.057   5.533  14.455 -0.3047 -1.8498  0.5171
 5143TIP3   OH236843   3.822   3.209   1.791 -0.2466  0.2909 -0.1500
 5143TIP3    H136844   3.842   3.287   1.843 -0.6752 -1.0048  2.0981
 5143TIP3    H236845   3.743   3.232   1.742  1.8788  2.6463 -2.8777
 5144TIP3   OH236846   6.714   1.056   2.821 -0.0686 -0.6709 -0.0789
 5144TIP3    H136847   6.713   1.100   2.906 -1.4435  1.8676 -1.3130
 5144TIP3    H236848   6.787   0.994   2.827 -0.0921 -0.5374  2.9029
 5145TIP3   OH236849   1.349   1.690  15.327 -0.1320  0.4438 -0.0388
 5145TIP3    H136850   1.437   1.652  15.320 -0.3827  0.1316 -2.4404
 5145TIP3    H236851   1.294   1.619  15.359  0.5492  0.8365  2.1762
 5146TIP3   OH236852   2.758   2.494   1.150  0.1170 -0.6156  0.3130
 5146TIP3    H136853   2.839   2.445   1.135  0.7036  0.0677  1.1203
 5146TIP3    H236854   2.692   2.450   1.097  1.1584 -0.8237 -0.8473
 5147TIP3   OH236855   3.332   4.065   2.841 -0.2213 -0.3287  0.0864
 5147TIP3    H136856   3.276   4.051   2.765  0.7343  1.3327 -0.9949
 5147TIP3    H236857   3.418   4.035   2.814 -0.0209 -0.4132  0.7862
 5148TIP3   OH236858   2.642   6.248   1.011  0.5409  0.5355 -0.0681
 5148TIP3    H136859   2.621   6.332   1.054  0.0210 -0.6867  2.2129
 5148TIP3    H236860   2.578   6.242   0.940  0.9797  2.3371 -0.6775
 5149TIP3   OH236861   3.377   4.684  16.162  0.1695  0.3032  0.3867
 5149TIP3    H136862   3.355   4.725  16.246 -1.8858 -0.0589  0.0666
 5149TIP3    H236863   3.296   4.641  16.134  0.9719 -0.0466 -1.5287
 5150TIP3   OH236864   0.082   5.255  13.394  0.1043 -0.2749 -0.2784
 5150TIP3    H136865   0.028   5.196  13.448 -0.9684  1.2607  0.4030
 5150TIP3    H236866   0.050   5.342  13.416  0.0415  0.4604 -2.9635
 5151TIP3   OH236867   0.112   4.774  15.433 -0.1702 -0.0457  0.2587
 5151TIP3    H136868   0.073   4.802  15.516 -0.0268  0.4796  0.1534
 5151TIP3    H236869   0.152   4.853  15.398 -0.5204 -0.1846 -0.4721
 5152TIP3   OH236870   5.110   5.490  14.305  0.4303 -0.3457  0.0459
 5152TIP3    H136871   5.206   5.485  14.311  0.5004  0.4584 -0.2728
 5152TIP3    H236872   5.079   5.459  14.390  0.9391 -1.3689 -0.1200
 5153TIP3   OH236873   4.183   3.424   4.868  0.2680  0.1221 -0.6802
 5153TIP3    H136874   4.158   3.448   4.957 -0.4786  1.1609 -1.1640
 5153TIP3    H236875   4.274   3.395   4.876  0.8812  2.1054  0.1158
 5154TIP3   OH236876   5.107   4.262   1.172  0.4825 -0.8302  0.5324
 5154TIP3    H136877   5.151   4.326   1.229  1.0400  1.0125 -1.8275
 5154TIP3    H236878   5.020   4.251   1.211  0.4987  1.1096  1.2090
 5155TIP3   OH236879   3.534   2.183   2.448 -0.5134 -0.3123  0.0858
 5155TIP3    H136880   3.529   2.278   2.439 -0.4824 -0.3887 -0.8876
 5155TIP3    H236881   3.627   2.166   2.464 -0.5854 -0.1567  0.7152
 5156TIP3   OH236882   2.149   2.011  15.029 -0.2716 -0.4602 -0.0403
 5156TIP3    H136883   2.125   2.093  14.986  1.6332 -0.9467 -2.2487
 5156TIP3    H236884   2.088   2.003  15.102 -1.1490  2.4017 -0.3520
 5157TIP3   OH236885   6.451   6.701  16.410 -0.6063  0.0109  0.4824
 5157TIP3    H136886   6.537   6.703  16.453 -0.2342  1.4936 -0.2508
 5157TIP3    H236887   6.393   6.658  16.473  0.4741 -0.1766  1.3815
 5158TIP3   OH236888   4.812   1.073  14.616  0.0040  0.1374 -0.7658
 5158TIP3    H136889   4.859   1.013  14.675 -0.6927  1.4523  1.2453
 5158TIP3    H236890   4.842   1.049  14.528  2.2285 -0.9837  0.2110
 5159TIP3   OH236891   6.486   0.161   6.062  0.5384  0.2561 -0.0697
 5159TIP3    H136892   6.579   0.159   6.086  0.2871 -2.1659  1.0435
 5159TIP3    H236893   6.461   0.069   6.060 -1.5927  0.7968 -1.4999
 5160TIP3   OH236894   2.595   5.252  10.279  0.7891 -0.0414  0.2147
 5160TIP3    H136895   2.650   5.174  10.290  1.9544  0.5494 -1.1837
 5160TIP3    H236896   2.655   5.319  10.246 -0.6962  0.7260 -1.0255
 5161TIP3   OH236897   3.485   1.204  17.201  0.4860 -0.3172 -0.1959
 5161TIP3    H136898   3.417   1.262  17.166  0.7772  0.0616 -0.1347
 5161TIP3    H236899   3.444   1.164  17.278  0.4851  0.2546  0.1066
 5162TIP3   OH236900   1.095   2.141   3.574 -0.0838 -0.2823 -0.2228
 5162TIP3    H136901   1.176   2.122   3.526  0.4110  1.1004 -0.0110
 5162TIP3    H236902   1.113   2.225   3.618 -1.4089 -0.2697  0.3493
 5163TIP3   OH236903   0.062   0.047   2.494  0.2216 -0.2452  0.0908
 5163TIP3    H136904   0.033  -0.021   2.554 -1.6354  2.4017  2.4366
 5163TIP3    H236905   0.147   0.076   2.528 -0.3945  0.6067  0.9638
 5164TIP3   OH236906   1.084   4.079  12.163 -0.6408 -0.1458  0.4037
 5164TIP3    H136907   1.118   4.014  12.101 -1.5390  0.4405 -0.7577
 5164TIP3    H236908   1.161   4.124  12.197 -0.0869 -0.9917  0.2949
 5165TIP3   OH236909   4.649   4.537  12.696 -0.8149  0.3766  0.5034
 5165TIP3    H136910   4.703   4.584  12.634  1.6086 -1.7584  0.8244
 5165TIP3    H236911   4.651   4.589  12.776  1.9015 -0.2021  0.8936
 5166TIP3   OH236912   3.330   5.571   3.647  0.1398  0.2489 -0.2027
 5166TIP3    H136913   3.343   5.499   3.709  0.6102  0.0406 -0.5378
 5166TIP3    H236914   3.311   5.528   3.564 -0.8528  0.5318 -0.1365
 5167TIP3   OH236915   5.547   6.591   5.608 -0.7440  0.2189 -0.0177
 5167TIP3    H136916   5.527   6.568   5.518 -0.7280  0.2383 -0.0259
 5167TIP3    H236917   5.610   6.524   5.637  1.2709  1.6747 -0.8277
 5168TIP3   OH236918   0.788   0.891   2.319  0.0200  0.2737 -0.0208
 5168TIP3    H136919   0.783   0.932   2.232 -0.2421 -0.4994 -0.3786
 5168TIP3    H236920   0.701   0.902   2.356  0.2242  0.9073  0.3013
 5169TIP3   OH236921   3.685   4.652  13.908  0.0199  0.0247 -0.2489
 5169TIP3    H136922   3.755   4.711  13.881  1.7249 -2.5654 -1.9610
 5169TIP3    H236923   3.645   4.694  13.984  1.0982  3.2869 -1.3386
 5170TIP3   OH236924   1.030   4.728  10.654  0.4895 -0.2445  0.5922
 5170TIP3    H136925   1.116   4.742  10.694  0.3835 -1.4208  1.2843
 5170TIP3    H236926   1.015   4.634  10.662 -0.9635 -0.0258  0.6671
 5171TIP3   OH236927   1.993   5.774  12.617 -0.2111  0.1176  0.1815
 5171TIP3    H136928   2.066   5.791  12.557 -0.2085 -1.9631 -0.4936
 5171TIP3    H236929   1.916   5.773  12.560 -0.1815 -2.1297  0.0958
 5172TIP3   OH236930   1.533   3.823  15.667  0.1996  0.0761  0.2170
 5172TIP3    H136931   1.623   3.823  15.635  0.4541  0.2255  0.9146
 5172TIP3    H236932   1.501   3.734  15.649  0.6835 -0.1590  0.4935
 5173TIP3   OH236933   1.738   4.294  14.699  0.3218  0.3273 -0.6947
 5173TIP3    H136934   1.762   4.382  14.672  1.9040 -0.0957 -0.7815
 5173TIP3    H236935   1.723   4.247  14.617  0.9085  0.1509 -0.7055
 5174TIP3   OH236936   6.721   5.915   5.675  0.2657 -0.0158  0.1771
 5174TIP3    H136937   6.634   5.920   5.636  0.2476 -2.5013 -0.3237
 5174TIP3    H236938   6.763   5.842   5.629  1.9595 -0.0593  1.6646
 5175TIP3   OH236939   1.885   3.238   4.491 -0.5831  0.4339 -0.0524
 5175TIP3    H136940   1.805   3.267   4.446 -0.6222 -0.4775 -0.5824
 5175TIP3    H236941   1.940   3.203   4.421 -0.3803 -0.4253  0.5290
 5176TIP3   OH236942   0.524   5.031   4.292 -0.5870  0.0969 -0.3911
 5176TIP3    H136943   0.545   5.069   4.377  0.0347  1.5009 -1.1245
 5176TIP3    H236944   0.603   5.044   4.240 -0.7797 -1.2007 -1.0414
 5177TIP3   OH236945   4.463   4.767   4.537  0.3090 -0.6298  0.2425
 5177TIP3    H136946   4.460   4.862   4.535  0.3087 -0.6431 -0.8201
 5177TIP3    H236947   4.549   4.745   4.502  0.3030 -1.0241  0.4662
 5178TIP3   OH236948   2.422   1.441  12.144 -0.4458 -0.0340  0.6136
 5178TIP3    H136949   2.386   1.519  12.186 -0.4116  0.4472 -0.2213
 5178TIP3    H236950   2.360   1.421  12.074 -0.1155 -0.3709  0.4136
 5179TIP3   OH236951   5.314   3.871  12.259  0.2907  0.1432  0.2892
 5179TIP3    H136952   5.249   3.920  12.309  0.3283 -0.3818  0.8560
 5179TIP3    H236953   5.304   3.780  12.288  1.5311  0.1099  0.6877
 5180TIP3   OH236954   4.964   1.591   4.739  0.3457  0.2329  0.1978
 5180TIP3    H136955   5.025   1.603   4.666  0.3039 -2.3740 -0.3364
 5180TIP3    H236956   4.901   1.663   4.729  1.1298  0.7430 -1.5174
 5181TIP3   OH236957   0.375   5.679  11.304 -0.2918  0.2369  0.4171
 5181TIP3    H136958   0.459   5.680  11.351  0.7251 -2.3276 -1.1456
 5181TIP3    H236959   0.316   5.631  11.361 -0.1068  0.2485  0.6207
 5182TIP3   OH236960   5.896   2.423  16.921 -0.3035 -0.1450 -0.9136
 5182TIP3    H136961   5.935   2.342  16.889  1.5233  0.7382 -1.0406
 5182TIP3    H236962   5.873   2.405  17.012  0.8634 -0.5512 -0.6862
 5183TIP3   OH236963   6.725   6.139  17.026 -0.0933  0.0856 -0.6594
 5183TIP3    H136964   6.785   6.085  16.975 -0.2050 -0.1352 -0.5568
 5183TIP3    H236965   6.765   6.145  17.112 -1.2962 -1.9197  0.0980
 5184TIP3   OH236966   6.316   3.953  16.477 -0.1919  0.1527 -0.5927
 5184TIP3    H136967   6.321   3.869  16.432  1.4148  0.4604 -1.0734
 5184TIP3    H236968   6.403   3.964  16.517  0.1265  2.1508 -1.6603
 5185TIP3   OH236969   1.170   5.936  13.081  0.1125 -0.1257  0.2331
 5185TIP3    H136970   1.110   5.911  13.010 -0.3366  1.0904  0.1457
 5185TIP3    H236971   1.248   5.967  13.035 -0.2818  0.9176  0.2376
 5186TIP3   OH236972   0.348   4.256   1.632  0.0631 -0.4191 -0.2178
 5186TIP3    H136973   0.388   4.239   1.717 -0.4445 -0.4007  0.0269
 5186TIP3    H236974   0.256   4.272   1.651  0.0501  0.1406 -0.7136
 5187TIP3   OH236975   4.067   0.247   0.510  0.0899 -0.2337 -0.1098
 5187TIP3    H136976   4.030   0.186   0.574  0.1280 -0.1154  0.0246
 5187TIP3    H236977   3.994   0.305   0.488 -0.7654 -1.9813 -2.2858
 5188TIP3   OH236978   0.843   0.913  14.089  0.3955 -0.1822 -0.5695
 5188TIP3    H136979   0.871   0.916  14.181 -0.9289 -0.5957 -0.1279
 5188TIP3    H236980   0.842   0.819  14.068 -0.1843 -0.1444 -0.7167
 5189TIP3   OH236981   1.741   3.166   4.960 -0.4827 -0.5043  0.3863
 5189TIP3    H136982   1.807   3.161   4.892 -0.0725 -0.7709  0.8016
 5189TIP3    H236983   1.678   3.097   4.938 -2.1269  1.4128 -1.5446
 5190TIP3   OH236984   0.449   0.037  12.239 -0.2635 -0.4153  0.1709
 5190TIP3    H136985   0.497   0.044  12.321 -0.9100  1.8804  0.4137
 5190TIP3    H236986   0.410   0.124  12.226 -1.5069 -1.1901 -1.7458
 5191TIP3   OH236987   0.424   4.967  13.668  0.2930 -0.0658 -0.5418
 5191TIP3    H136988   0.464   4.890  13.629  1.6855  1.0931 -1.4665
 5191TIP3    H236989   0.334   4.966  13.635 -0.5912 -2.6943  1.5600
 5192TIP3   OH236990   0.577   2.493  11.915  0.1084  0.2122 -0.4327
 5192TIP3    H136991   0.576   2.432  11.841  1.6379  0.2069 -0.4796
 5192TIP3    H236992   0.490   2.533  11.915 -0.6438 -1.3536 -0.9108
 5193TIP3   OH236993   5.725   6.595  10.902 -0.1781 -0.6254 -0.5535
 5193TIP3    H136994   5.630   6.599  10.912 -0.1401 -0.1932 -0.3517
 5193TIP3    H236995   5.738   6.544  10.822 -0.6224  0.5213 -1.3911
 5194TIP3   OH236996   0.461   3.389  15.221 -0.0638 -0.1600 -0.1000
 5194TIP3    H136997   0.453   3.344  15.305  2.7936 -1.9836 -0.6500
 5194TIP3    H236998   0.544   3.437  15.228 -0.3350  0.5463 -1.4847
 5195TIP3   OH236999   3.994   6.057  13.366  0.0619 -0.6962  0.1652
 5195TIP3    H137000   4.089   6.070  13.363 -0.1133  0.5218 -1.5816
 5195TIP3    H237001   3.983   5.966  13.394  1.6799 -0.3173  2.2230
 5196TIP3   OH237002   4.188   4.286   3.746 -0.2866  0.3071  0.0385
 5196TIP3    H137003   4.152   4.211   3.699  0.3849  0.8676 -1.4153
 5196TIP3    H237004   4.127   4.301   3.818 -0.2594 -1.8468  0.6010
 5197TIP3   OH237005   0.707   3.766  11.732 -1.0062 -0.1600  0.3291
 5197TIP3    H137006   0.771   3.797  11.795 -0.6176  0.8735 -0.5440
 5197TIP3    H237007   0.712   3.670  11.737  1.4552 -0.1398 -0.5411
 5198TIP3   OH237008   3.196   5.607  10.741  0.3782  0.2738 -0.1455
 5198TIP3    H137009   3.271   5.550  10.726  0.1176  0.5247 -2.7964
 5198TIP3    H237010   3.233   5.696  10.744  0.3246  0.2935 -0.0218
 5199TIP3   OH237011   2.040   6.608  13.656  0.1509 -0.0222 -0.4533
 5199TIP3    H137012   2.023   6.688  13.607  0.3194  1.2214  1.3990
 5199TIP3    H237013   2.136   6.606  13.666  0.0021  1.0031  1.7024
 5200TIP3   OH237014   1.522   3.422  11.684 -0.0195  0.2208 -0.1753
 5200TIP3    H137015   1.497   3.471  11.763 -0.8631  1.1632 -0.9858
 5200TIP3    H237016   1.442   3.422  11.631  0.6100 -0.1662 -1.1391
 5201TIP3   OH237017   2.714   5.838   3.260  0.2737 -0.4045  0.0778
 5201TIP3    H137018   2.629   5.833   3.216  0.9937 -1.2820 -1.2907
 5201TIP3    H237019   2.751   5.922   3.232 -0.2487  0.1226  0.9230
 5202TIP3   OH237020   1.784   6.715  15.857 -0.2673  1.0295  0.0484
 5202TIP3    H137021   1.831   6.797  15.840  0.3977  0.3474 -1.6350
 5202TIP3    H237022   1.699   6.727  15.816 -0.5764  1.2554  0.7382
 5203TIP3   OH237023   1.773   0.176   4.125  0.3116  0.0497  0.4871
 5203TIP3    H137024   1.727   0.176   4.209 -0.0985 -4.1991  0.4709
 5203TIP3    H237025   1.855   0.222   4.142 -0.3823  0.5544  2.7884
 5204TIP3   OH237026   3.059   0.934  13.600  0.3749  0.0542 -0.1868
 5204TIP3    H137027   3.008   1.014  13.587  2.1417  1.3549  0.5837
 5204TIP3    H237028   3.077   0.932  13.694 -2.5040 -3.1385  0.5303
 5205TIP3   OH237029   1.087   0.008   2.387  0.7451  0.1634 -0.1699
 5205TIP3    H137030   1.124   0.010   2.475  0.7823  1.3352 -0.1942
 5205TIP3    H237031   1.154   0.046   2.331  0.3396  0.3456 -0.5454
 5206TIP3   OH237032   2.507   6.230  16.396 -0.5693 -0.0815 -0.1300
 5206TIP3    H137033   2.456   6.300  16.438 -0.7863 -1.0188  1.2269
 5206TIP3    H237034   2.440   6.169  16.364 -0.3820 -1.6038  2.1507
 5207TIP3   OH237035   0.459   1.076  15.417  0.4137 -0.4947 -0.2679
 5207TIP3    H137036   0.431   1.113  15.334 -1.1448 -1.0638 -0.0200
 5207TIP3    H237037   0.391   1.012  15.440  1.3983 -1.1896  0.8757
 5208TIP3   OH237038   6.498   4.749   6.246  0.1072  0.0836 -0.2209
 5208TIP3    H137039   6.469   4.678   6.302 -1.2435  0.7600 -0.0346
 5208TIP3    H237040   6.511   4.709   6.160 -2.3305 -0.0942 -0.5577
 5209TIP3   OH237041   0.251   5.561   4.197  0.3465  0.0234  0.2480
 5209TIP3    H137042   0.158   5.571   4.213  0.3163  0.3852 -0.1194
 5209TIP3    H237043   0.263   5.588   4.106  0.9017  0.6255  0.4829
 5210TIP3   OH237044   1.692   5.601  17.007  0.1943 -0.0771  0.5734
 5210TIP3    H137045   1.670   5.510  16.991 -0.4885  0.0800  0.5668
 5210TIP3    H237046   1.616   5.650  16.974  1.0198  0.5670 -0.4384
 5211TIP3   OH237047   4.508   0.791   1.930 -0.5399 -1.2396 -0.1624
 5211TIP3    H137048   4.530   0.728   1.999 -2.4459  0.3015  1.9796
 5211TIP3    H237049   4.574   0.860   1.939 -0.7346 -1.0826  0.0667
 5212TIP3   OH237050   2.347   0.725  12.040  0.0434 -0.0594  0.2845
 5212TIP3    H137051   2.365   0.815  12.066 -0.2243 -0.0042  0.2826
 5212TIP3    H237052   2.266   0.702  12.087  0.2240 -0.3673  0.4490
 5213TIP3   OH237053   5.311   0.747   5.005 -0.0048 -0.4659 -0.5788
 5213TIP3    H137054   5.227   0.764   4.963  0.1569 -1.8171 -1.5116
 5213TIP3    H237055   5.345   0.669   4.961  1.8115  0.1281 -0.3329
 5214TIP3   OH237056   2.053   0.043  14.151  0.2942  0.0959 -0.4456
 5214TIP3    H137057   2.013  -0.027  14.099 -2.9560  0.0455  1.8335
 5214TIP3    H237058   2.027   0.123  14.106 -1.3570  0.0015  0.2793
 5215TIP3   OH237059   6.699   6.171   1.565  0.1520  0.7806  0.0554
 5215TIP3    H137060   6.720   6.203   1.653  0.8347 -1.0827  0.6097
 5215TIP3    H237061   6.683   6.078   1.576  0.8457  0.3793 -1.8791
 5216TIP3   OH237062   6.546   5.752  14.016  0.1828  0.2884 -0.5183
 5216TIP3    H137063   6.617   5.687  14.019  0.4434  0.5505 -0.9464
 5216TIP3    H237064   6.467   5.699  14.025  0.4227 -0.0228 -0.1785
 5217TIP3   OH237065   0.795   3.076   4.360 -0.2912 -0.1190 -0.2985
 5217TIP3    H137066   0.820   3.158   4.319  0.8337 -0.2021  0.1894
 5217TIP3    H237067   0.709   3.094   4.399 -0.7606  0.3494 -1.5026
 5218TIP3   OH237068   5.091   2.542   0.168 -0.3272 -0.0742 -1.2197
 5218TIP3    H137069   5.033   2.475   0.204  0.4455  0.2328  0.7045
 5218TIP3    H237070   5.041   2.623   0.172 -0.1488  0.0056 -0.5646
 5219TIP3   OH237071   3.829   0.196   0.279  0.0484 -0.1101  0.1898
 5219TIP3    H137072   3.780   0.262   0.230 -0.0758 -1.4273 -1.5861
 5219TIP3    H237073   3.921   0.211   0.255  0.1106 -0.0363  0.4726
 5220TIP3   OH237074   2.518   5.817   5.311  0.0005  0.5131 -0.2483
 5220TIP3    H137075   2.573   5.743   5.335  0.0584  0.4049 -0.7051
 5220TIP3    H237076   2.437   5.777   5.278 -0.1252  0.6608 -0.1235
 5221TIP3   OH237077   0.976   3.324  15.982 -0.1730  0.1530 -0.3580
 5221TIP3    H137078   0.898   3.377  15.963  0.3537  1.4953  0.9915
 5221TIP3    H237079   0.942   3.245  16.023 -0.8432  0.6623  0.0893
 5222TIP3   OH237080   3.180   0.255   3.413 -0.2153 -0.8251 -0.1048
 5222TIP3    H137081   3.257   0.309   3.435 -0.8834 -0.2592  0.9226
 5222TIP3    H237082   3.211   0.196   3.345  1.2053 -0.7647  0.4581
 5223TIP3   OH237083   0.627   6.155  15.695 -0.2894 -0.6701 -0.8310
 5223TIP3    H137084   0.707   6.108  15.718  0.6111  1.5132  0.8314
 5223TIP3    H237085   0.557   6.108  15.741  0.6417 -0.1969  1.1589
 5224TIP3   OH237086   4.017   0.967   6.251  0.6871  0.5968 -0.4265
 5224TIP3    H137087   3.978   0.880   6.242  1.7543 -0.1763  1.6660
 5224TIP3    H237088   3.985   1.016   6.175 -1.6352 -0.9552 -0.5462
 5225TIP3   OH237089   0.248   5.190  16.031  0.1765 -0.0597  0.0706
 5225TIP3    H137090   0.164   5.144  16.037  0.7384 -1.4586 -1.9498
 5225TIP3    H237091   0.225   5.283  16.040 -1.2392 -0.5247  2.0875
 5226TIP3   OH237092   2.896   5.149  11.423 -0.2432  0.2032  0.1756
 5226TIP3    H137093   2.991   5.152  11.434 -0.3389 -0.4311  1.2595
 5226TIP3    H237094   2.879   5.067  11.375 -0.3404 -0.4284  1.2585
 5227TIP3   OH237095   5.306   0.879  16.214 -0.9041 -0.2570  0.0045
 5227TIP3    H137096   5.330   0.806  16.157 -1.0050 -1.0836  0.9887
 5227TIP3    H237097   5.225   0.850  16.257 -0.9848  0.4681  0.3561
 5228TIP3   OH237098   3.616   6.372   0.366 -0.3496 -0.4519  0.2539
 5228TIP3    H137099   3.549   6.398   0.302  2.6891  0.6180 -2.8158
 5228TIP3    H237100   3.596   6.280   0.385 -1.2323 -0.9523 -2.6053
 5229TIP3   OH237101   4.456   2.896   1.724  0.7247 -0.4579  0.1818
 5229TIP3    H137102   4.418   2.822   1.771 -0.9776 -0.5523 -1.2337
 5229TIP3    H237103   4.467   2.964   1.791 -1.3950 -0.6731  0.8158
 5230TIP3   OH237104   1.088   6.477  14.287 -0.6196  0.2795 -0.2588
 5230TIP3    H137105   1.118   6.387  14.273  0.5241  0.6660 -0.4170
 5230TIP3    H237106   1.165   6.522  14.323 -1.4584  0.9682  0.7403
 5231TIP3   OH237107   2.577   1.519  13.099  0.7735  0.2965 -0.6316
 5231TIP3    H137108   2.487   1.523  13.131  0.9378  0.6296 -0.2131
 5231TIP3    H237109   2.568   1.484  13.010  0.1273  1.4128 -1.0227
 5232TIP3   OH237110   6.128   3.529   5.364 -0.7457 -0.3293 -0.6395
 5232TIP3    H137111   6.165   3.611   5.397  0.9978 -2.5056  3.6818
 5232TIP3    H237112   6.176   3.511   5.283  2.6575  0.5094  1.0191
 5233TIP3   OH237113   4.147   4.531  15.771  0.2704  0.0470  0.4749
 5233TIP3    H137114   4.111   4.614  15.742  0.8684  0.7892  1.7713
 5233TIP3    H237115   4.076   4.491  15.822 -0.4593 -0.8488 -1.1450
 5234TIP3   OH237116   2.366   4.042  14.091  0.3653 -0.0775  0.4595
 5234TIP3    H137117   2.333   4.132  14.092 -2.8388 -1.0697  3.0424
 5234TIP3    H237118   2.345   4.010  14.003 -2.0502  0.6506  0.6908
 5235TIP3   OH237119   3.814   2.563  12.766 -0.1633 -0.3858  0.7614
 5235TIP3    H137120   3.878   2.631  12.785  1.0799 -1.4087  0.3679
 5235TIP3    H237121   3.821   2.549  12.672  2.2979 -3.5579  1.2497
 5236TIP3   OH237122   3.665   5.279   6.600  0.3481  0.0163 -0.0527
 5236TIP3    H137123   3.706   5.265   6.686 -0.8109  1.4858  0.7693
 5236TIP3    H237124   3.580   5.237   6.607  1.2892 -2.3859 -1.5174
 5237TIP3   OH237125   5.468   4.432  13.436 -0.3275  0.1560  0.0992
 5237TIP3    H137126   5.506   4.479  13.361 -0.4191 -0.8123 -0.5649
 5237TIP3    H237127   5.542   4.420  13.496  0.3749 -1.3998 -1.0207
 5238TIP3   OH237128   0.280   0.172   1.408 -0.4152  0.6043  0.9874
 5238TIP3    H137129   0.214   0.122   1.456 -2.2940  1.3962 -0.6298
 5238TIP3    H237130   0.300   0.118   1.332 -2.4479  2.1166 -0.7669
 5239TIP3   OH237131   0.280   0.065  15.441 -0.1092 -0.1726  0.3389
 5239TIP3    H137132   0.305   0.152  15.410 -1.5243  1.3065  3.0392
 5239TIP3    H237133   0.363   0.023  15.462  0.5386  1.7245  1.8709
 5240TIP3   OH237134   6.216   4.753  16.505  0.1532  0.2378  0.1159
 5240TIP3    H137135   6.272   4.733  16.580 -0.4600 -1.5333  0.1597
 5240TIP3    H237136   6.269   4.731  16.429  0.7909  2.0787  0.0021
 5241TIP3   OH237137   2.983   3.793   4.905  0.1724  0.0567 -0.2574
 5241TIP3    H137138   2.926   3.832   4.970 -0.3281 -1.9347  0.5653
 5241TIP3    H237139   3.017   3.714   4.947  0.4633 -0.8628 -2.1249
 5242TIP3   OH237140   0.822   2.379  13.842 -0.2602 -0.4667  0.4241
 5242TIP3    H137141   0.738   2.340  13.816  0.0753 -0.4729 -0.7085
 5242TIP3    H237142   0.797   2.459  13.889 -0.9048 -0.2496 -0.2704
 5243TIP3   OH237143   0.674   0.291   1.957 -0.2092 -0.3105  0.0533
 5243TIP3    H137144   0.744   0.229   1.936 -1.1587 -1.8078  1.1318
 5243TIP3    H237145   0.595   0.252   1.920 -0.8800  0.0518  1.0627
 5244TIP3   OH237146   2.604   4.240   2.473  0.4668 -0.7263 -1.0723
 5244TIP3    H137147   2.530   4.274   2.424  0.2087  1.4771  0.6725
 5244TIP3    H237148   2.675   4.231   2.409  0.0043  1.5009 -1.9593
 5245TIP3   OH237149   5.878   1.689  14.784  0.0546  0.1040 -0.9336
 5245TIP3    H137150   5.856   1.726  14.699 -0.4192 -0.1176 -0.9151
 5245TIP3    H237151   5.837   1.749  14.847 -1.8353 -1.1069 -0.9288
 5246TIP3   OH237152   3.077   0.359   0.430 -0.1647  0.2374  0.1603
 5246TIP3    H137153   2.982   0.369   0.431 -0.3977 -1.7030  0.0832
 5246TIP3    H237154   3.096   0.304   0.506  0.6968 -0.8502 -0.8069
 5247TIP3   OH237155   1.839   0.337  14.652 -0.2352 -0.1433  0.0342
 5247TIP3    H137156   1.869   0.420  14.616 -1.0505 -0.3112 -1.0670
 5247TIP3    H237157   1.792   0.361  14.732  1.8478  0.2017  1.2412
 5248TIP3   OH237158   4.378   1.684  12.034  0.1840 -0.4313 -0.1638
 5248TIP3    H137159   4.434   1.635  11.975 -1.4888 -1.2372 -1.1774
 5248TIP3    H237160   4.368   1.627  12.110  0.5078 -0.4083 -0.1036
 5249TIP3   OH237161   6.187   4.426  16.074  0.1383 -0.5355 -0.3926
 5249TIP3    H137162   6.267   4.462  16.113 -0.8945  1.0068  0.4267
 5249TIP3    H237163   6.125   4.422  16.147 -0.4001 -2.2269 -0.8973
 5250TIP3   OH237164   5.266   5.070  15.666  0.3440 -0.4318  0.1622
 5250TIP3    H137165   5.205   5.007  15.704  1.1193 -0.3079  1.7008
 5250TIP3    H237166   5.288   5.128  15.739  0.8824  0.6480 -0.8268
 5251TIP3   OH237167   0.166   0.854   1.751  0.2221 -0.2661 -0.0474
 5251TIP3    H137168   0.201   0.773   1.786 -0.4168 -0.0433  1.1843
 5251TIP3    H237169   0.158   0.912   1.828 -1.2437  0.2356 -0.5317
 5252TIP3   OH237170   2.107   2.339  16.862 -0.3384  0.1283 -0.0658
 5252TIP3    H137171   2.082   2.379  16.778 -1.2141 -0.2265  0.0128
 5252TIP3    H237172   2.187   2.291  16.843 -0.0439  0.7815 -0.4912
 5253TIP3   OH237173   2.315   4.696   6.477  0.2426 -0.0145  0.1800
 5253TIP3    H137174   2.403   4.689   6.439  0.0534  1.7328 -0.6774
 5253TIP3    H237175   2.324   4.760   6.547 -0.7524  2.0011 -1.4309
 5254TIP3   OH237176   5.594   0.388   4.166  0.4884  0.0997  0.6123
 5254TIP3    H137177   5.641   0.437   4.098  2.6036 -0.3609  1.6854
 5254TIP3    H237178   5.548   0.320   4.117  0.1019  1.1459 -0.5657
 5255TIP3   OH237179   1.387   4.344  12.452  0.4635 -0.9720  0.4693
 5255TIP3    H137180   1.354   4.335  12.541 -1.8266 -2.0808 -0.4186
 5255TIP3    H237181   1.442   4.423  12.454  0.5634 -1.0418  2.8501
 5256TIP3   OH237182   1.003   5.618  11.660 -0.3774  0.2726 -0.7897
 5256TIP3    H137183   0.974   5.542  11.611 -0.1381  0.1724 -0.7764
 5256TIP3    H237184   1.088   5.640  11.622  0.1265 -0.2130  0.0235
 5257TIP3   OH237185   2.772   0.760  10.633 -0.1127 -0.3011  0.0673
 5257TIP3    H137186   2.849   0.802  10.671 -0.4142  0.5152 -0.2100
 5257TIP3    H237187   2.768   0.675  10.677  0.4212  0.0095  0.7447
 5258TIP3   OH237188   0.204   5.563   3.929  0.3197  0.4952 -0.0851
 5258TIP3    H137189   0.210   5.471   3.953  0.6545  0.7504  0.8832
 5258TIP3    H237190   0.237   5.568   3.840 -0.9106 -0.5035 -0.6187
 5259TIP3   OH237191   4.203   2.388   6.271  0.2614 -0.0484 -0.2038
 5259TIP3    H137192   4.294   2.391   6.301  0.3200  0.1602 -0.4004
 5259TIP3    H237193   4.155   2.442   6.333  0.4754  0.8475 -0.8074
 5260TIP3   OH237194   4.924   5.034   1.367 -0.7297 -0.6557  0.0023
 5260TIP3    H137195   4.957   5.053   1.455 -0.5136  0.5963 -0.3247
 5260TIP3    H237196   4.981   4.965   1.334  0.4828  0.2616  0.1085
 5261TIP3   OH237197   6.156   4.433   2.278  0.2632  0.2709 -0.3726
 5261TIP3    H137198   6.060   4.439   2.272  0.0362  0.2273  2.1988
 5261TIP3    H237199   6.185   4.423   2.187 -1.8544  4.2183 -1.7141
 5262TIP3   OH237200   2.487   2.323   3.560  0.1332  0.2711  0.1120
 5262TIP3    H137201   2.492   2.379   3.637 -0.7011  2.5544 -1.3652
 5262TIP3    H237202   2.577   2.294   3.545  0.3098 -0.1474  1.8498
 5263TIP3   OH237203   3.191   4.795   3.452  0.2502 -0.3668 -0.6433
 5263TIP3    H137204   3.107   4.767   3.414  0.6007 -1.2338 -0.8049
 5263TIP3    H237205   3.250   4.802   3.377  0.3969 -0.0246 -0.4969
 5264TIP3   OH237206   4.172   6.401  11.218  0.5078  0.5614 -0.6417
 5264TIP3    H137207   4.114   6.326  11.209  1.0106  0.3927 -3.5321
 5264TIP3    H237208   4.114   6.474  11.240 -0.2195 -0.3290  0.4611
 5265TIP3   OH237209   2.735   6.538   3.095  0.0462 -0.3871 -0.2840
 5265TIP3    H137210   2.712   6.540   3.188 -0.3187  1.4359 -0.3798
 5265TIP3    H237211   2.766   6.448   3.080 -0.6593 -0.9528  1.3934
 5266TIP3   OH237212   5.978   5.522  13.928 -0.0461  0.5369  0.3698
 5266TIP3    H137213   5.994   5.512  13.835 -0.3870 -0.1619  0.3778
 5266TIP3    H237214   6.003   5.437  13.966  0.7245  1.0314  1.0070
 5267TIP3   OH237215   4.067   4.629  12.956 -0.5746 -0.5177  1.1123
 5267TIP3    H137216   4.099   4.560  13.013  0.1030 -2.1188 -1.0961
 5267TIP3    H237217   4.147   4.670  12.921 -0.9814  0.3423  1.1556
 5268TIP3   OH237218   5.312   3.671   0.535  0.0577  0.4409  0.1759
 5268TIP3    H137219   5.318   3.689   0.441  1.8254 -0.6693  0.0278
 5268TIP3    H237220   5.279   3.581   0.539 -0.2946  0.5906  0.6382
 5269TIP3   OH237221   3.972   3.808  12.360  0.4356  0.0119 -0.3019
 5269TIP3    H137222   4.023   3.732  12.332 -1.1662 -2.0930  2.0149
 5269TIP3    H237223   3.935   3.843  12.280  1.5820 -1.4034 -1.5050
 5270TIP3   OH237224   2.067   0.651   4.562 -0.7015 -0.1177  0.4510
 5270TIP3    H137225   2.105   0.735   4.538 -0.5970 -0.6329 -1.3162
 5270TIP3    H237226   1.978   0.672   4.588 -1.2665  0.3881 -1.6903
 5271TIP3   OH237227   3.387   1.368   0.676 -0.1154  0.1370  0.1794
 5271TIP3    H137228   3.301   1.400   0.650  0.5486  2.1241  0.2284
 5271TIP3    H237229   3.433   1.351   0.594 -0.6486 -1.2907  0.1532
 5272TIP3   OH237230   1.089   3.890   0.099  0.5291  0.2496  0.4019
 5272TIP3    H137231   1.037   3.968   0.077  2.9790  2.3230  1.5211
 5272TIP3    H237232   1.164   3.893   0.040  2.1718  0.4443  2.3940
 5273TIP3   OH237233   3.577   2.334  10.300  0.2688 -0.2355  0.3743
 5273TIP3    H137234   3.519   2.410  10.305  0.0758 -0.3500 -0.0910
 5273TIP3    H237235   3.656   2.368  10.258  0.8712  0.1095  1.7006
 5274TIP3   OH237236   4.091   0.684   2.510  0.4751 -0.2022  0.2261
 5274TIP3    H137237   4.050   0.771   2.515 -0.4301 -0.6103  0.2258
 5274TIP3    H237238   4.052   0.644   2.432  0.9903 -0.5542  0.1487
 5275TIP3   OH237239   5.094   3.083   3.038 -0.0341  0.2356 -0.1491
 5275TIP3    H137240   4.998   3.086   3.048  0.1218  0.1659  1.7118
 5275TIP3    H237241   5.120   3.175   3.032 -0.1261  0.2997  0.4189
 5276TIP3   OH237242   2.586   3.210   3.405 -0.2171  0.4483  0.4475
 5276TIP3    H137243   2.629   3.130   3.436 -1.0804 -0.0180  0.4635
 5276TIP3    H237244   2.512   3.222   3.463 -0.0048  1.3693  0.5517
 5277TIP3   OH237245   3.344   6.355  12.375  0.6236  0.4014  0.0846
 5277TIP3    H137246   3.329   6.449  12.375  0.9861  0.4674 -0.6767
 5277TIP3    H237247   3.424   6.343  12.426  0.2175  0.4295  0.7478
 5278TIP3   OH237248   2.248   4.696  11.254  0.5594 -0.3784  0.5166
 5278TIP3    H137249   2.288   4.782  11.239  0.4460 -0.6532 -1.6556
 5278TIP3    H237250   2.303   4.635  11.205 -0.1590 -1.3645  0.9063
 5279TIP3   OH237251   3.375   6.148   2.385  0.3574  0.1480  0.2328
 5279TIP3    H137252   3.332   6.162   2.301  1.1140  0.3275 -0.1280
 5279TIP3    H237253   3.349   6.224   2.438 -1.6851 -0.8841  0.8488
 5280TIP3   OH237254   6.128   5.441  11.152  0.4979 -0.1363 -0.1024
 5280TIP3    H137255   6.095   5.528  11.130  0.1863 -0.1310  0.3693
 5280TIP3    H237256   6.200   5.457  11.212 -0.6134 -0.2426  1.3116
 5281TIP3   OH237257   1.241   1.941  14.472  0.4164 -0.2270 -0.0053
 5281TIP3    H137258   1.257   2.016  14.530 -0.6134  0.1490 -0.1886
 5281TIP3    H237259   1.233   1.866  14.531 -1.1822  0.2358  0.4181
 5282TIP3   OH237260   2.997   4.688  14.067  0.3464 -0.3490 -0.4429
 5282TIP3    H137261   3.031   4.752  14.128 -0.2399 -0.8848  0.4702
 5282TIP3    H237262   3.016   4.603  14.107 -0.9425 -0.6850 -0.5032
 5283TIP3   OH237263   4.149   2.839  14.337 -0.4335 -0.2116 -0.4326
 5283TIP3    H137264   4.140   2.776  14.265  2.3609  1.4437 -2.4166
 5283TIP3    H237265   4.229   2.813  14.382  0.3558  1.4115 -0.8227
 5284TIP3   OH237266   2.959   2.587   3.459  0.2064  1.5100  0.0093
 5284TIP3    H137267   3.047   2.574   3.497  0.1389 -1.2074 -0.5623
 5284TIP3    H237268   2.906   2.616   3.533  1.4718  2.7951  0.4584
 5285TIP3   OH237269   4.447   6.697  11.118 -0.6034 -0.1482  0.1183
 5285TIP3    H137270   4.426   6.622  11.062  1.5914 -0.0746 -0.9059
 5285TIP3    H237271   4.491   6.759  11.060 -1.5391  1.5805  1.1549
 5286TIP3   OH237272   4.517   6.544   4.387 -0.2049  0.4897 -0.1272
 5286TIP3    H137273   4.511   6.462   4.336  2.0052 -0.9083  1.6687
 5286TIP3    H237274   4.488   6.520   4.474 -1.3445  2.1642 -0.0115
 5287TIP3   OH237275   6.612   4.873   4.919 -0.3320 -0.5033  0.1963
 5287TIP3    H137276   6.654   4.897   4.836 -1.1621 -0.4100 -0.2098
 5287TIP3    H237277   6.568   4.790   4.900  1.3642 -1.7084  1.2038
 5288TIP3   OH237278   5.850   1.202  14.248 -0.5357  0.4361 -0.1123
 5288TIP3    H137279   5.936   1.188  14.208 -0.3455 -0.5090  0.5848
 5288TIP3    H237280   5.806   1.265  14.190  0.8787  1.4761 -0.0888
 5289TIP3   OH237281   2.400   4.374   3.705 -0.2072 -0.0863 -0.1345
 5289TIP3    H137282   2.455   4.314   3.755 -0.7789  0.5741  1.3340
 5289TIP3    H237283   2.424   4.461   3.737 -0.7741  0.3380 -0.8295
 5290TIP3   OH237284   5.556   0.468  11.466  0.3739 -0.6596 -0.0364
 5290TIP3    H137285   5.591   0.387  11.503  1.0444 -0.9611 -1.2688
 5290TIP3    H237286   5.564   0.456  11.371  1.2158  1.1516 -0.2334
 5291TIP3   OH237287   4.624   0.669   2.883  0.1451 -0.6232 -0.0941
 5291TIP3    H137288   4.577   0.687   2.802 -0.7704  0.4555  0.6334
 5291TIP3    H237289   4.651   0.578   2.876 -1.1047 -0.9500 -1.0407
 5292TIP3   OH237290   3.786   3.142  12.682 -0.0285  0.1259  0.6217
 5292TIP3    H137291   3.749   3.138  12.771 -1.8384  0.9114 -0.0398
 5292TIP3    H237292   3.815   3.232  12.672  1.4584 -0.3019  0.8635
 5293TIP3   OH237293   0.556   5.879  15.970  0.2632  0.5565 -0.3974
 5293TIP3    H137294   0.480   5.896  16.025 -0.3654 -0.2594 -0.9791
 5293TIP3    H237295   0.538   5.793  15.930  1.8712 -0.0494  0.0902
 5294TIP3   OH237296   4.708   5.610  15.216 -0.2384  0.5894  0.3675
 5294TIP3    H137297   4.801   5.594  15.196 -0.0223  0.5751  1.3532
 5294TIP3    H237298   4.685   5.541  15.277 -1.2777 -0.1988 -0.8593
 5295TIP3   OH237299   5.595   3.674  13.264  0.4179  0.2928 -0.1754
 5295TIP3    H137300   5.601   3.580  13.280 -0.3435  0.2840  0.1297
 5295TIP3    H237301   5.537   3.706  13.334  0.6550  0.9860 -0.2843
 5296TIP3   OH237302   4.130   3.824  16.828  0.1412 -0.1584  0.6599
 5296TIP3    H137303   4.053   3.864  16.868 -0.1280 -0.0326  0.0361
 5296TIP3    H237304   4.098   3.788  16.745  0.9113  0.6484 -0.0180
 5297TIP3   OH237305   4.783   5.794  12.830 -0.6816 -0.1730  0.5167
 5297TIP3    H137306   4.826   5.849  12.765  0.1214 -0.3449  0.8934
 5297TIP3    H237307   4.753   5.855  12.897  0.3663 -0.1994  1.0223
 5298TIP3   OH237308   3.167   3.512  12.749 -0.2231 -0.0959  0.0508
 5298TIP3    H137309   3.113   3.441  12.785 -0.4022 -1.0943 -2.0045
 5298TIP3    H237310   3.245   3.513  12.804  0.1565 -2.4854 -0.2966
 5299TIP3   OH237311   4.934   6.634   4.510 -0.3183 -0.3565 -0.1193
 5299TIP3    H137312   4.984   6.714   4.527 -1.9023  0.5267  0.5964
 5299TIP3    H237313   4.992   6.563   4.537  0.0912  0.6812  1.8775
 5300TIP3   OH237314   5.473   1.786  14.677  0.3999  0.3895  0.5922
 5300TIP3    H137315   5.512   1.874  14.673  1.4511 -0.1014 -1.0129
 5300TIP3    H237316   5.404   1.794  14.742  0.6708  2.3368  0.7183
 5301TIP3   OH237317   3.218   4.275  10.459  0.0836  0.3528 -0.2679
 5301TIP3    H137318   3.230   4.364  10.492 -0.2734  1.7248 -3.4745
 5301TIP3    H237319   3.299   4.256  10.412 -0.0115 -0.8972  0.0346
 5302TIP3   OH237320   5.304   2.625  14.936  0.2065 -0.1330 -0.0087
 5302TIP3    H137321   5.302   2.667  14.849  1.7466  0.5099  0.2246
 5302TIP3    H237322   5.369   2.555  14.927 -1.3890 -1.6634 -0.0190
 5303TIP3   OH237323   3.362   3.876  14.638 -0.7025 -0.1251 -0.8086
 5303TIP3    H137324   3.390   3.936  14.568 -0.1542  0.1272 -0.3758
 5303TIP3    H237325   3.431   3.882  14.704 -0.0440 -2.0974 -1.2408
 5304TIP3   OH237326   0.868   3.707   4.414  0.1145  0.5486  0.2214
 5304TIP3    H137327   0.817   3.786   4.397  0.5506  1.0210  1.0102
 5304TIP3    H237328   0.921   3.695   4.335 -0.5911  0.5362 -0.2569
 5305TIP3   OH237329   2.998   4.686  11.401  0.2247 -0.1699  0.1775
 5305TIP3    H137330   2.957   4.631  11.468 -0.4061 -1.2056 -1.0136
 5305TIP3    H237331   2.924   4.730  11.358  0.4733 -0.6641 -0.7970
 5306TIP3   OH237332   3.076   0.385   2.091  0.3612 -0.2483  0.0707
 5306TIP3    H137333   3.069   0.295   2.123 -0.3450 -1.0420 -2.1140
 5306TIP3    H237334   3.167   0.410   2.106  0.6168 -1.4187  0.5049
 5307TIP3   OH237335   1.594   0.431   1.589 -0.4923  0.3376 -0.1296
 5307TIP3    H137336   1.681   0.438   1.549 -0.3896 -2.0260 -0.4844
 5307TIP3    H237337   1.584   0.512   1.638  2.3392  0.2910  0.7209
 5308TIP3   OH237338   2.665   6.116   5.648  0.9770  0.2030  0.0949
 5308TIP3    H137339   2.678   6.123   5.743 -3.1520  1.5183  0.7557
 5308TIP3    H237340   2.632   6.027   5.635 -1.3044  0.9171  0.4778
 5309TIP3   OH237341   1.816   6.447  11.871  0.2602 -0.1983  0.4063
 5309TIP3    H137342   1.810   6.406  11.786  0.9613  1.7044 -0.6351
 5309TIP3    H237343   1.726   6.458  11.900 -0.0170 -0.2758 -0.4118
 5310TIP3   OH237344   2.182   4.732   0.185 -0.0780  0.1155 -0.6763
 5310TIP3    H137345   2.234   4.809   0.163  1.0199  0.3946  2.3962
 5310TIP3    H237346   2.162   4.743   0.278 -1.6122 -2.3618 -0.6289
 5311TIP3   OH237347   3.726   3.230  15.999  0.2715  0.0619 -0.4873
 5311TIP3    H137348   3.718   3.290  16.074  0.4055 -0.9808  0.3939
 5311TIP3    H237349   3.639   3.190  15.991  0.0460  0.7173 -1.3779
 5312TIP3   OH237350   6.178   1.551   2.492 -0.4873  0.4898  0.1458
 5312TIP3    H137351   6.236   1.494   2.441  0.0554 -0.2201  1.5190
 5312TIP3    H237352   6.234   1.626   2.516 -0.7129  0.7720 -0.1938
 5313TIP3   OH237353   0.019   3.498   3.735 -0.7448  0.0184  0.4079
 5313TIP3    H137354   0.089   3.487   3.670 -0.5783  0.8473  0.4266
 5313TIP3    H237355  -0.056   3.531   3.685 -0.2378  1.8732  0.7726
 5314TIP3   OH237356   3.668   4.251  15.163 -0.3771 -0.1875 -0.6395
 5314TIP3    H137357   3.582   4.290  15.147 -0.3695 -0.3989 -1.2027
 5314TIP3    H237358   3.677   4.250  15.259 -0.0816  1.8606 -0.5923
 5315TIP3   OH237359   6.553   2.137  15.964  0.5064 -0.3245  0.6203
 5315TIP3    H137360   6.640   2.100  15.979  1.3438  1.5122  0.4713
 5315TIP3    H237361   6.493   2.071  15.999  1.8074 -2.6714 -1.2552
 5316TIP3   OH237362   3.076   1.735   4.683  0.0326 -0.0377 -0.6151
 5316TIP3    H137363   3.003   1.678   4.709 -0.3633  0.6192 -0.2542
 5316TIP3    H237364   3.045   1.777   4.603 -0.1644  0.5661 -0.2258
 5317TIP3   OH237365   1.309   6.657  12.948  0.3377  0.0958  0.1062
 5317TIP3    H137366   1.236   6.717  12.932 -0.1802 -0.6833 -0.5972
 5317TIP3    H237367   1.266   6.577  12.981  0.8971 -0.2846 -0.0808
 5318TIP3   OH237368   2.467   1.567   1.956 -0.8490  0.0780 -0.7967
 5318TIP3    H137369   2.428   1.536   1.875  0.3092  1.1969 -1.8280
 5318TIP3    H237370   2.493   1.657   1.937  1.8421 -0.4623 -0.0858
 5319TIP3   OH237371   2.915   0.512  16.407  0.0378  0.0527  0.2276
 5319TIP3    H137372   2.866   0.445  16.359 -0.6251  0.8926 -0.2965
 5319TIP3    H237373   2.859   0.536  16.480 -0.3139  0.9675 -0.3340
 5320TIP3   OH237374   4.276   1.422   3.804 -0.2070 -0.2818 -0.3588
 5320TIP3    H137375   4.216   1.491   3.776  0.5801  0.5913  0.0472
 5320TIP3    H237376   4.290   1.368   3.726 -1.7469 -0.6950 -0.3791
 5321TIP3   OH237377   4.700   0.407   5.510 -0.1728  0.5517  0.0256
 5321TIP3    H137378   4.742   0.493   5.517  1.2290 -0.1893  1.1382
 5321TIP3    H237379   4.649   0.399   5.591  1.8393 -0.7256  1.2380
 5322TIP3   OH237380   3.421   2.803   1.966  0.3409  0.5047  0.0294
 5322TIP3    H137381   3.364   2.867   1.924 -2.3465 -2.7724 -1.8067
 5322TIP3    H237382   3.381   2.787   2.051  0.4813  0.6166  0.1169
 5323TIP3   OH237383   6.412   0.247   3.324  0.3537 -0.5007 -0.0821
 5323TIP3    H137384   6.317   0.250   3.310  0.1574 -0.4665  1.1560
 5323TIP3    H237385   6.449   0.239   3.236 -0.8092 -0.8087 -0.5608
 5324TIP3   OH237386   1.234   3.910  13.935  0.6173 -0.4250 -0.3328
 5324TIP3    H137387   1.298   3.980  13.931  0.8781 -0.7213 -1.9387
 5324TIP3    H237388   1.179   3.931  14.011  0.6130  1.5704 -0.8478
 5325TIP3   OH237389   1.575   0.362  10.613 -0.2349  0.0679 -0.3631
 5325TIP3    H137390   1.605   0.273  10.595 -1.0219 -0.0533 -1.1623
 5325TIP3    H237391   1.654   0.415  10.615  0.1232 -0.4174 -1.3047
 5326TIP3   OH237392   2.964   2.712   1.593 -0.2262 -0.3802 -0.3179
 5326TIP3    H137393   3.014   2.661   1.657 -1.2685  0.1730  1.0050
 5326TIP3    H237394   2.949   2.651   1.521 -1.0572 -1.8498  1.0193
 5327TIP3   OH237395   0.393   4.160   1.910 -0.6998  0.7683 -0.3306
 5327TIP3    H137396   0.341   4.238   1.930 -0.2512  1.0192 -0.1294
 5327TIP3    H237397   0.395   4.111   1.992 -0.0141  1.1166 -0.1363
 5328TIP3   OH237398   5.968   1.002   6.129 -0.2496 -0.8651 -0.0928
 5328TIP3    H137399   5.932   1.090   6.141 -1.3375 -1.3721  0.5580
 5328TIP3    H237400   6.026   1.009   6.053 -0.5264  0.3521 -0.2036
 5329TIP3   OH237401   1.142   6.052  12.434 -0.5024 -0.3454 -0.3009
 5329TIP3    H137402   1.069   6.006  12.392 -0.5396  1.1745 -2.0568
 5329TIP3    H237403   1.182   6.103  12.363  0.7805  0.7211  1.1128
 5330TIP3   OH237404   4.454   5.287  14.433  0.2986 -0.6984 -0.3090
 5330TIP3    H137405   4.549   5.280  14.428  0.5525  1.1622  0.8458
 5330TIP3    H237406   4.422   5.225  14.368  2.2875 -1.4889 -0.6111
 5331TIP3   OH237407   5.355   4.120  12.817  0.3143 -0.0130  0.5875
 5331TIP3    H137408   5.423   4.104  12.883  1.7729  1.9993 -0.3235
 5331TIP3    H237409   5.378   4.061  12.745 -0.0841 -0.7491  1.0544
 5332TIP3   OH237410   4.815   1.635   3.566 -0.3012  0.1013 -0.2406
 5332TIP3    H137411   4.803   1.730   3.559  0.5585  0.3663  1.4574
 5332TIP3    H237412   4.898   1.618   3.522 -0.3049  0.1747 -0.2766
 5333TIP3   OH237413   2.904   6.373  12.339 -0.5416  0.5475 -0.3017
 5333TIP3    H137414   2.812   6.370  12.365 -0.5260 -0.8635 -0.3307
 5333TIP3    H237415   2.951   6.397  12.419 -0.7800 -0.6421  0.2190
 5334TIP3   OH237416   4.900   1.780   2.949  0.3674  0.5367 -0.2748
 5334TIP3    H137417   4.946   1.754   2.870  0.7182 -1.0537  0.4168
 5334TIP3    H237418   4.864   1.698   2.984  0.1592  1.2047  1.1530
 5335TIP3   OH237419   2.545   4.104  12.490 -0.2579 -0.5526  0.2255
 5335TIP3    H137420   2.465   4.098  12.543 -1.5840 -0.8163 -1.6959
 5335TIP3    H237421   2.564   4.013  12.467  0.2664 -0.4304  0.1819
 5336TIP3   OH237422   5.468   6.246   1.435 -0.0239  1.0671  0.1599
 5336TIP3    H137423   5.557   6.245   1.399 -0.2014  0.8881 -0.2742
 5336TIP3    H237424   5.446   6.154   1.450 -0.9918  0.9202 -1.8837
 5337TIP3   OH237425   1.080   1.431   1.318  0.1409 -0.0088 -0.3600
 5337TIP3    H137426   1.115   1.505   1.366 -0.7121 -1.0587  2.0522
 5337TIP3    H237427   0.994   1.460   1.288 -0.0478  0.1123  0.2813
 5338TIP3   OH237428   0.057   1.162  15.279  0.0110 -0.1255 -0.1565
 5338TIP3    H137429   0.092   1.095  15.338  1.8480 -1.0907 -2.2211
 5338TIP3    H237430  -0.017   1.200  15.328  1.1204 -1.1619  2.5292
 5339TIP3   OH237431   4.850   5.726  17.008  0.2991  0.2385  0.3317
 5339TIP3    H137432   4.945   5.740  17.010  0.3257  0.0851  0.1390
 5339TIP3    H237433   4.814   5.810  16.978  0.3619  0.3487  0.5619
 5340TIP3   OH237434   3.870   2.411   2.057  0.2032 -0.1649  0.3243
 5340TIP3    H137435   3.964   2.394   2.051  0.0771 -1.1566  0.9583
 5340TIP3    H237436   3.845   2.377   2.143 -0.7470  0.0743  0.1531
 5341TIP3   OH237437   2.658   6.352  16.199 -0.5058 -0.1534 -0.0755
 5341TIP3    H137438   2.741   6.368  16.244  0.4213 -1.0572 -1.3822
 5341TIP3    H237439   2.598   6.323  16.268  0.8344 -1.3750  0.6228
 5342TIP3   OH237440   6.183   6.330  11.787 -0.0062  0.0668 -0.4812
 5342TIP3    H137441   6.195   6.345  11.880 -0.0406  0.8695 -0.6013
 5342TIP3    H237442   6.088   6.336  11.773  0.0829  1.0443 -0.7391
 5343TIP3   OH237443   5.935   2.619   1.649 -0.0822  0.0988 -0.6304
 5343TIP3    H137444   5.957   2.526   1.648  1.4567  0.3717  0.9853
 5343TIP3    H237445   5.891   2.635   1.566  1.2345 -1.6955 -1.7420
 5344TIP3   OH237446   1.885   5.236   6.047  0.0607 -0.0429  0.3210
 5344TIP3    H137447   1.908   5.287   6.126  1.2832  0.9446 -0.6268
 5344TIP3    H237448   1.799   5.200   6.067  0.6584 -0.4897  2.4352
 5345TIP3   OH237449   6.252   0.484  13.961  0.0962  0.2001  0.2209
 5345TIP3    H137450   6.309   0.507  13.888 -0.2580  0.8966  0.1567
 5345TIP3    H237451   6.207   0.566  13.983 -0.7235 -0.2852  0.3990
 5346TIP3   OH237452   2.102   1.599   1.068 -0.3171 -0.3099  0.3713
 5346TIP3    H137453   2.026   1.656   1.078  0.2723  0.5065  0.2919
 5346TIP3    H237454   2.114   1.559   1.154  0.4854  1.2712  1.0429
 5347TIP3   OH237455   6.199   4.506   0.835 -0.0327  0.3022 -0.0432
 5347TIP3    H137456   6.262   4.554   0.781  0.0897  1.6129  1.1889
 5347TIP3    H237457   6.189   4.422   0.791  1.4620  0.6124 -1.0718
 5348TIP3   OH237458   5.698   4.573   3.576  0.2871 -0.0722 -0.2641
 5348TIP3    H137459   5.614   4.615   3.588  0.4309  0.5843 -1.3368
 5348TIP3    H237460   5.685   4.483   3.604 -1.3695 -0.5364 -2.2871
 5349TIP3   OH237461   1.325   2.203  10.787 -0.5056  0.4287 -0.3319
 5349TIP3    H137462   1.308   2.297  10.774 -1.5134  0.3325  0.1366
 5349TIP3    H237463   1.360   2.198  10.876 -0.4646  0.3650 -0.3517
 5350TIP3   OH237464   5.560   3.743  17.216  0.1734 -0.3449  0.0946
 5350TIP3    H137465   5.632   3.683  17.238  0.2635 -0.1567  0.3154
 5350TIP3    H237466   5.598   3.802  17.151 -0.1140 -0.9477 -0.6337
 5351TIP3   OH237467   2.268   5.676  13.687  0.3883 -0.5805 -0.0080
 5351TIP3    H137468   2.343   5.734  13.697 -0.3799  0.3204  0.7113
 5351TIP3    H237469   2.297   5.592  13.722  1.0948 -0.2808  0.1335
 5352TIP3   OH237470   0.571   2.390   3.532  0.0561  0.2106  0.0662
 5352TIP3    H137471   0.549   2.470   3.485 -0.5095  1.6028  2.5214
 5352TIP3    H237472   0.666   2.386   3.528  0.1274  1.2862  0.3102
 5353TIP3   OH237473   4.464   2.907  15.126 -0.5105  0.2228 -0.1806
 5353TIP3    H137474   4.430   2.985  15.083 -0.8528 -0.1486 -0.5895
 5353TIP3    H237475   4.559   2.914  15.116 -0.5531  0.4602 -0.4352
 5354TIP3   OH237476   2.242   6.503  12.047 -0.1708 -0.6622  0.3059
 5354TIP3    H137477   2.169   6.518  12.107 -0.1070 -2.8513  1.0442
 5354TIP3    H237478   2.215   6.543  11.965 -1.1921  0.5540  1.2042
 5355TIP3   OH237479   1.331   4.000  14.311 -0.1939 -0.5414 -0.0038
 5355TIP3    H137480   1.263   4.065  14.292 -0.0738  0.1747  1.8014
 5355TIP3    H237481   1.312   3.971  14.400  1.1912 -1.1895  0.1090
 5356TIP3   OH237482   2.063   6.261  12.222 -0.1702 -0.1978 -0.3114
 5356TIP3    H137483   1.996   6.330  12.229  1.0594  1.1082 -0.8606
 5356TIP3    H237484   2.040   6.214  12.141 -0.9275 -0.3345 -0.0222
 5357TIP3   OH237485   4.901   2.603   3.845 -0.0690  0.1079  0.0542
 5357TIP3    H137486   4.901   2.696   3.823  1.1366  0.6142  1.9742
 5357TIP3    H237487   4.964   2.595   3.917 -1.7400 -1.8155  1.4393
 5358TIP3   OH237488   5.924   5.427  12.383  0.0400  0.0558 -0.7039
 5358TIP3    H137489   5.939   5.486  12.457  1.6367  0.2512 -1.1433
 5358TIP3    H237490   5.857   5.366  12.413 -1.4824  1.9179 -0.1427
 5359TIP3   OH237491   6.004   3.037   0.154  0.1792  0.0946  0.1242
 5359TIP3    H137492   5.996   3.063   0.246 -0.5568  1.1805 -0.2239
 5359TIP3    H237493   6.096   3.055   0.132 -0.3098  2.6576 -0.1272
 5360TIP3   OH237494   2.903   6.229  17.185  0.0068 -0.2900  0.1418
 5360TIP3    H137495   2.899   6.253  17.092  1.5479  1.8176  0.5330
 5360TIP3    H237496   2.995   6.213  17.201 -0.1782 -0.1525  1.4064
 5361TIP3   OH237497   0.445   6.225  15.918  0.1082 -0.0572  0.0706
 5361TIP3    H137498   0.443   6.306  15.868 -2.5828  1.4555  2.4061
 5361TIP3    H237499   0.499   6.245  15.995  1.1520 -1.2054 -0.3171
 5362TIP3   OH237500   0.201   1.805   1.708 -0.0847  0.3608  0.3418
 5362TIP3    H137501   0.261   1.785   1.636  0.7145 -0.6184  1.2458
 5362TIP3    H237502   0.131   1.857   1.668  0.2293 -0.3425 -1.1759
 5363TIP3   OH237503   2.679   5.081  15.079  0.2147 -0.5712  0.6085
 5363TIP3    H137504   2.771   5.092  15.103  0.2521 -0.9195  0.6343
 5363TIP3    H237505   2.641   5.031  15.151  0.3914 -1.8723 -0.1539
 5364TIP3   OH237506   5.339   2.249  14.293 -0.0948 -0.4460  0.0207
 5364TIP3    H137507   5.377   2.248  14.205 -0.7574  0.2494 -0.2762
 5364TIP3    H237508   5.294   2.164  14.300  0.0749 -0.5612 -0.2568
 5365TIP3   OH237509   5.332   3.782   2.807 -0.2834 -0.0467 -0.5897
 5365TIP3    H137510   5.309   3.695   2.773 -0.3277  0.4335 -1.8318
 5365TIP3    H237511   5.424   3.792   2.785 -0.1393  0.0280  0.0191
 5366TIP3   OH237512   4.061   1.197   0.524  0.2738  0.1109 -0.4329
 5366TIP3    H137513   3.986   1.251   0.549 -0.2796 -0.0919 -1.5714
 5366TIP3    H237514   4.136   1.240   0.563 -0.4416  0.2560  0.8386
 5367TIP3   OH237515   2.385   3.316  14.701  0.6187  0.1316 -0.7619
 5367TIP3    H137516   2.421   3.274  14.623 -0.3039  1.3538 -1.8835
 5367TIP3    H237517   2.397   3.409  14.686 -1.1113  0.4840 -0.2665
 5368TIP3   OH237518   0.796   3.844  12.547  0.3374 -0.3135 -0.0827
 5368TIP3    H137519   0.746   3.795  12.482  0.2757  0.3776 -0.5712
 5368TIP3    H237520   0.744   3.923  12.562  0.7693 -0.0780  0.1783
 5369TIP3   OH237521   6.208   0.641   0.121 -0.4308 -0.5933  0.2708
 5369TIP3    H137522   6.189   0.547   0.125 -0.9734 -0.4842  0.2726
 5369TIP3    H237523   6.303   0.645   0.111 -0.6541 -1.2870 -3.9182
 5370TIP3   OH237524   3.172   4.447  12.508 -0.0083 -0.0921 -0.0155
 5370TIP3    H137525   3.136   4.413  12.426  1.4278 -1.5778 -0.0775
 5370TIP3    H237526   3.118   4.407  12.576 -0.0185 -0.3665 -0.1834
 5371TIP3   OH237527   2.578   2.140   4.485 -0.1122 -0.7215  0.1481
 5371TIP3    H137528   2.663   2.180   4.505  0.4160 -1.4151 -0.6800
 5371TIP3    H237529   2.521   2.215   4.466  0.5970 -0.2948 -0.3653
 5372TIP3   OH237530   2.360   0.933  13.118 -0.2241  0.1029  0.2521
 5372TIP3    H137531   2.402   0.863  13.169  0.7149  0.6021  0.1815
 5372TIP3    H237532   2.274   0.897  13.096 -1.0627  0.2155  2.9554
 5373TIP3   OH237533   5.663   1.613   3.624 -0.0478  0.3338  0.1618
 5373TIP3    H137534   5.571   1.619   3.647  0.1176 -0.4520  1.1036
 5373TIP3    H237535   5.681   1.692   3.574 -0.6196  1.8092  2.1775
 5374TIP3   OH237536   6.592   2.204   2.198  0.6914  0.3193 -0.0237
 5374TIP3    H137537   6.576   2.109   2.194  2.0833 -0.0373  1.3871
 5374TIP3    H237538   6.524   2.243   2.144  0.0380 -1.4908 -0.5764
 5375TIP3   OH237539   5.718   2.412   0.902 -0.3951 -0.4795  0.4310
 5375TIP3    H137540   5.730   2.392   0.810 -0.0330  0.8025  0.1688
 5375TIP3    H237541   5.786   2.361   0.947 -0.2233 -0.7005 -0.0699
 5376TIP3   OH237542   1.996   1.744  17.274  0.3251 -0.4736 -0.1671
 5376TIP3    H137543   1.913   1.770  17.233  1.1097  1.7229 -0.4731
 5376TIP3    H237544   2.026   1.669  17.222 -0.6043 -0.1935 -1.1521
 5377TIP3   OH237545   5.946   6.430  13.891 -0.3515 -0.0232 -0.2269
 5377TIP3    H137546   6.037   6.440  13.863  0.3245 -2.3658  0.8528
 5377TIP3    H237547   5.951   6.369  13.964 -2.8724 -0.8702 -0.6863
 5378TIP3   OH237548   5.982   3.618   4.744 -0.2065  0.0746 -0.2939
 5378TIP3    H137549   5.967   3.572   4.827  0.8325  0.7014  0.2582
 5378TIP3    H237550   5.906   3.595   4.690 -0.4664 -1.0537  0.5060
 5379TIP3   OH237551   4.334   1.994  13.204 -0.0561  0.1836  0.0200
 5379TIP3    H137552   4.390   2.000  13.282 -0.5222  3.0013  0.2590
 5379TIP3    H237553   4.389   2.028  13.133 -0.4571  0.0030 -0.3801
 5380TIP3   OH237554   5.353   2.748  16.973 -0.1923 -0.4113  0.4417
 5380TIP3    H137555   5.440   2.745  16.934 -1.1668 -1.2781 -1.7957
 5380TIP3    H237556   5.298   2.693  16.917 -2.6190  1.6018  0.6274
 5381TIP3   OH237557   6.316   5.469  13.743 -0.5415 -0.3535 -0.5619
 5381TIP3    H137558   6.264   5.390  13.753 -2.9152  0.9149 -1.9369
 5381TIP3    H237559   6.384   5.446  13.680 -0.8129 -1.4432 -0.4793
 5382TIP3   OH237560   0.478   5.022  17.292 -1.1059  0.0891  0.2792
 5382TIP3    H137561   0.540   4.969  17.242  0.7227  0.1113  2.3892
 5382TIP3    H237562   0.527   5.101  17.316 -2.6777  1.1436  0.1533
 5383TIP3   OH237563   2.011   1.566   2.486  0.1087 -0.1708 -0.1920
 5383TIP3    H137564   2.079   1.617   2.531  0.7221  0.0715 -1.3595
 5383TIP3    H237565   1.931   1.585   2.536  0.5583  0.9673  0.1435
 5384TIP3   OH237566   4.730   3.682   2.536  0.2918  0.7629 -0.3950
 5384TIP3    H137567   4.736   3.742   2.611 -1.5102 -0.7398  1.0560
 5384TIP3    H237568   4.653   3.712   2.487 -0.9720 -0.5842  0.6565
 5385TIP3   OH237569   6.395   2.068   2.789 -0.0626  0.4027 -0.0907
 5385TIP3    H137570   6.370   2.140   2.848  2.1572  1.2262 -0.0575
 5385TIP3    H237571   6.463   2.106   2.733 -1.8130 -0.4272 -3.0491
 5386TIP3   OH237572   1.973   4.377   1.749 -0.1546 -0.0029  0.0447
 5386TIP3    H137573   1.981   4.320   1.673  1.0759  0.0884  0.0888
 5386TIP3    H237574   2.052   4.431   1.748  0.5497 -0.8753  2.0729
 5387TIP3   OH237575   4.202   1.865   1.152 -0.0864 -0.2525 -0.4462
 5387TIP3    H137576   4.227   1.774   1.171  1.1188  0.2919  0.7101
 5387TIP3    H237577   4.249   1.885   1.071  0.0379 -0.5021 -0.4388
 5388TIP3   OH237578   2.144   0.583  15.779  0.2900 -0.1783  0.4435
 5388TIP3    H137579   2.069   0.629  15.816  0.4490 -1.2966  2.2794
 5388TIP3    H237580   2.219   0.616  15.828  0.6096 -1.1701  0.6499
 5389TIP3   OH237581   1.697   3.597  17.356  0.4919 -0.3912 -0.4282
 5389TIP3    H137582   1.695   3.624  17.265  1.5027 -1.1131 -0.6826
 5389TIP3    H237583   1.619   3.637  17.395  0.8714  1.2177 -1.2284
 5390TIP3   OH237584   6.406   4.366   4.648 -0.3928 -0.6635  0.1196
 5390TIP3    H137585   6.329   4.341   4.597 -0.8159 -2.0429  1.3455
 5390TIP3    H237586   6.471   4.299   4.628  0.7776  0.8482 -1.4038
 5391TIP3   OH237587   4.579   2.534  12.406  0.0821 -0.3426 -0.0319
 5391TIP3    H137588   4.543   2.486  12.331 -2.0381  0.3856  0.4540
 5391TIP3    H237589   4.619   2.467  12.461 -2.8752 -1.6962  0.6750
 5392TIP3   OH237590   1.037   6.160  13.539  0.1832  0.3790 -0.1174
 5392TIP3    H137591   0.995   6.089  13.587 -3.0083  0.9749 -1.7561
 5392TIP3    H237592   0.972   6.231  13.539  1.3405  1.5680 -2.4937
 5393TIP3   OH237593   4.575   0.290   5.311 -0.2136 -0.0670  0.6074
 5393TIP3    H137594   4.624   0.208   5.316  1.9169  1.1871  1.4181
 5393TIP3    H237595   4.624   0.351   5.367  0.1102  2.6491 -2.3644
 5394TIP3   OH237596   0.160   1.532  12.583  0.0525 -0.4299 -0.1595
 5394TIP3    H137597   0.228   1.465  12.578  0.6467  0.1938 -0.8756
 5394TIP3    H237598   0.127   1.539  12.493  0.0378  0.2554 -0.1107
 5395TIP3   OH237599   3.020   2.349  13.800  0.0314 -0.4093  0.2201
 5395TIP3    H137600   2.928   2.322  13.792  0.2522 -1.6051  1.3804
 5395TIP3    H237601   3.032   2.412  13.729 -1.0866 -1.8512 -1.3599
 5396TIP3   OH237602   4.330   0.971   1.808 -0.5998 -0.7624  0.5539
 5396TIP3    H137603   4.381   0.906   1.857  0.6688  0.1947  0.5401
 5396TIP3    H237604   4.369   0.971   1.721  1.2199  1.8554  1.2568
 5397TIP3   OH237605   0.447   0.218   4.089 -0.2012  0.4836  0.0702
 5397TIP3    H137606   0.534   0.208   4.126 -0.2834  0.6505  0.3103
 5397TIP3    H237607   0.462   0.233   3.996  0.0556  1.1925  0.2229
 5398TIP3   OH237608   6.139   5.409   0.699 -0.3286  0.0597  0.1293
 5398TIP3    H137609   6.215   5.463   0.679 -0.1841  0.1899  1.0134
 5398TIP3    H237610   6.148   5.333   0.641 -0.1365  0.6085 -0.5825
 5399TIP3   OH237611   5.025   6.042  14.560  0.4508  0.2479 -0.0225
 5399TIP3    H137612   5.088   6.067  14.627  0.1256  1.8117 -0.2569
 5399TIP3    H237613   5.039   6.105  14.489 -3.0002  2.2942  0.8991
 5400TIP3   OH237614   0.881   2.999   0.991 -1.0071 -0.5497 -0.7895
 5400TIP3    H137615   0.939   2.945   1.045 -3.7841 -4.0191 -0.8970
 5400TIP3    H237616   0.939   3.043   0.930  1.7723 -0.7819  1.4432
 5401TIP3   OH237617   4.078   1.085  16.876 -0.3372  0.0528  0.1000
 5401TIP3    H137618   4.022   1.007  16.872 -0.7224  0.3533 -0.8152
 5401TIP3    H237619   4.166   1.051  16.889 -0.6509 -0.4650  0.9520
 5402TIP3   OH237620   2.249   2.154  13.223  0.0437 -0.1629 -0.4612
 5402TIP3    H137621   2.343   2.156  13.205  0.0152 -0.8367 -0.7200
 5402TIP3    H237622   2.221   2.245  13.215  0.3611 -0.1785 -2.0905
 5403TIP3   OH237623   2.406   6.696   1.513 -0.1890  0.0563 -0.1866
 5403TIP3    H137624   2.459   6.719   1.589  1.4709  2.2463 -1.8488
 5403TIP3    H237625   2.339   6.765   1.509 -1.2565 -0.9327  0.1314
 5404TIP3   OH237626   0.290   3.469   4.331  0.3376  0.0396 -0.0350
 5404TIP3    H137627   0.385   3.477   4.339  0.4075  0.4846 -1.1425
 5404TIP3    H237628   0.276   3.423   4.248 -0.4059 -0.6780  0.4617
 5405TIP3   OH237629   4.539   4.449   0.444  0.2281 -0.4891  0.6597
 5405TIP3    H137630   4.451   4.438   0.410  0.8326 -2.7684 -0.3880
 5405TIP3    H237631   4.595   4.453   0.366  1.0383  1.9418  1.2578
 5406TIP3   OH237632   0.439   5.057   3.829 -0.3560  0.0831  0.4128
 5406TIP3    H137633   0.473   4.992   3.890 -1.3128 -1.6994 -0.8761
 5406TIP3    H237634   0.452   5.141   3.874  3.0724 -0.6980  1.1923
 5407TIP3   OH237635   2.662   3.598   4.786  0.7761 -0.4201 -0.3309
 5407TIP3    H137636   2.622   3.684   4.775 -0.6416 -1.1931 -1.7423
 5407TIP3    H237637   2.663   3.583   4.880 -0.2228  0.5804 -0.1382
 5408TIP3   OH237638   2.085   1.375   1.854 -0.4736  0.0739 -0.4744
 5408TIP3    H137639   2.024   1.325   1.801 -0.9936 -0.9258  0.9944
 5408TIP3    H237640   2.051   1.366   1.944  0.5812  1.3602  0.0864
 5409TIP3   OH237641   4.478   4.134   0.947  0.0701 -0.3103  0.4820
 5409TIP3    H137642   4.509   4.099   1.031 -0.5005 -2.3746 -0.1153
 5409TIP3    H237643   4.557   4.150   0.896  0.3708 -0.0549  1.0203
 5410TIP3   OH237644   2.373   3.022  17.071 -0.2497 -0.1838 -0.1893
 5410TIP3    H137645   2.416   3.094  17.025  1.8043 -1.4511 -0.3714
 5410TIP3    H237646   2.372   2.950  17.007  1.1869 -1.4638  1.1606
 5411TIP3   OH237647   5.211   3.179   0.953  0.5128  0.1700 -0.3066
 5411TIP3    H137648   5.281   3.136   1.003 -1.0321 -1.0554  0.9434
 5411TIP3    H237649   5.237   3.270   0.947  2.3257 -0.3017 -0.1163
 5412TIP3   OH237650   0.990   3.955   3.706  0.4018 -0.2046  0.6647
 5412TIP3    H137651   1.073   4.002   3.698 -0.8812  2.0545 -0.4197
 5412TIP3    H237652   0.979   3.911   3.622  0.1673  0.1038  0.5326
 5413TIP3   OH237653   5.143   5.207  12.829 -0.1001  0.1044 -0.0008
 5413TIP3    H137654   5.199   5.143  12.784 -0.3465 -2.3636  2.8738
 5413TIP3    H237655   5.205   5.268  12.869  0.1578  1.5083 -2.3748
 5414TIP3   OH237656   0.120   4.636  13.776  0.1094  0.1628  0.1983
 5414TIP3    H137657   0.131   4.694  13.852 -0.0975  0.6846 -0.1707
 5414TIP3    H237658   0.208   4.601  13.761 -0.0877 -1.0117  1.5156
 5415TIP3   OH237659   2.364   3.030  12.693  0.4107 -0.0527 -0.8059
 5415TIP3    H137660   2.270   3.015  12.693  0.5075 -1.0305  1.5360
 5415TIP3    H237661   2.389   3.031  12.600 -1.6843 -1.0909 -1.4206
 5416TIP3   OH237662   3.241   5.679  14.458 -0.2235  0.8633  0.5240
 5416TIP3    H137663   3.285   5.598  14.432 -0.2173  1.1755 -0.4557
 5416TIP3    H237664   3.156   5.650  14.490  0.2157  0.3690  1.2848
 5417TIP3   OH237665   4.830   3.620   2.201  0.3826  0.1118  0.4501
 5417TIP3    H137666   4.802   3.530   2.214 -1.0782  0.6663  1.4793
 5417TIP3    H237667   4.884   3.640   2.278 -0.9412  0.6843  1.2741
 5418TIP3   OH237668   4.593   0.434   5.846 -0.1186  0.2432  0.2330
 5418TIP3    H137669   4.659   0.368   5.822  0.1178  0.7230 -0.4784
 5418TIP3    H237670   4.582   0.424   5.940  1.9425  1.0430  0.6074
 5419TIP3   OH237671   0.200   5.492   5.013 -0.7157  0.1182 -0.5229
 5419TIP3    H137672   0.268   5.431   5.043 -1.6238 -1.5862 -1.7595
 5419TIP3    H237673   0.144   5.506   5.089 -1.4531 -1.9769 -0.6388
 5420TIP3   OH237674   1.713   2.177  14.618 -0.4123  0.2269 -0.5779
 5420TIP3    H137675   1.688   2.249  14.676  2.2015  0.1652  0.7756
 5420TIP3    H237676   1.724   2.218  14.532 -1.3000  0.9520 -0.3585
 5421TIP3   OH237677   5.635   2.318  15.638  0.6982 -0.2606 -0.7626
 5421TIP3    H137678   5.615   2.350  15.726  0.6145 -0.5899 -0.6603
 5421TIP3    H237679   5.553   2.279  15.607  0.5495  0.4264 -1.2388
 5422TIP3   OH237680   5.866   6.279   0.906 -0.1564  0.4063  0.3532
 5422TIP3    H137681   5.822   6.194   0.909  1.0222 -0.2061  1.6526
 5422TIP3    H237682   5.947   6.263   0.858 -0.1634  0.9072  0.1697
 5423TIP3   OH237683   5.748   3.884  12.472  0.4691 -0.1464 -0.3445
 5423TIP3    H137684   5.721   3.973  12.450 -0.7871 -0.3268  0.3870
 5423TIP3    H237685   5.771   3.889  12.565 -0.3768 -0.7490 -0.0944
 5424TIP3   OH237686   1.747   5.680   4.684 -0.1005 -0.4090  0.5003
 5424TIP3    H137687   1.782   5.756   4.637  2.8874 -1.7496  0.2869
 5424TIP3    H237688   1.740   5.709   4.775  0.0332  0.4101  0.2637
 5425TIP3   OH237689   5.658   4.709  11.392 -0.4474  0.2401 -0.0457
 5425TIP3    H137690   5.590   4.755  11.442  1.2177  1.0279  1.5909
 5425TIP3    H237691   5.671   4.763  11.314 -2.2468 -0.3777 -0.8411
 5426TIP3   OH237692   6.598   5.931  12.022  0.2058 -0.0065  0.1678
 5426TIP3    H137693   6.600   6.015  11.975  0.1938 -1.0526 -1.8032
 5426TIP3    H237694   6.505   5.910  12.028  0.1885  0.2660  0.9802
 5427TIP3   OH237695   3.294   2.113   5.445 -0.7008  0.0551 -0.4483
 5427TIP3    H137696   3.372   2.141   5.492 -1.1832  2.2573 -0.8406
 5427TIP3    H237697   3.291   2.018   5.457  1.8591 -0.0554 -0.1957
 5428TIP3   OH237698   2.482   4.778   2.629  1.0162  0.1030  0.4802
 5428TIP3    H137699   2.434   4.818   2.702  1.8935  1.7366  0.2391
 5428TIP3    H237700   2.564   4.749   2.668  0.8353 -0.4773  0.4356
 5429TIP3   OH237701   1.994   0.248   1.451 -0.2681 -0.3758  0.0487
 5429TIP3    H137702   1.958   0.221   1.535 -2.4862  0.2678 -0.6230
 5429TIP3    H237703   1.958   0.336   1.436 -0.2158 -0.6106 -1.7135
 5430TIP3   OH237704   6.743   5.107  16.855  0.2096 -0.1706 -0.5732
 5430TIP3    H137705   6.837   5.102  16.836  0.8096 -0.9687  2.2628
 5430TIP3    H237706   6.726   5.201  16.866  0.9495 -0.1052  0.0689
 5431TIP3   OH237707   1.369   2.521  15.014 -0.2565 -0.0698 -0.1447
 5431TIP3    H137708   1.301   2.532  14.948 -0.8902  0.2327  0.5428
 5431TIP3    H237709   1.421   2.446  14.983  0.7499  1.3343 -2.0508
 5432TIP3   OH237710   3.439   4.495   4.325 -0.5086 -0.1248 -0.1285
 5432TIP3    H137711   3.495   4.551   4.378 -0.7490 -0.5067  0.5289
 5432TIP3    H237712   3.457   4.523   4.235  2.2345 -1.5676 -0.1293
 5433TIP3   OH237713   2.648   3.587   0.121 -0.0133  0.6920 -0.5139
 5433TIP3    H137714   2.562   3.614   0.089 -1.1618  0.3617  2.0083
 5433TIP3    H237715   2.675   3.518   0.061 -2.3679 -0.4471 -0.4012
 5434TIP3   OH237716   4.026   6.449   4.186  0.0268  0.7648 -0.0157
 5434TIP3    H137717   4.014   6.544   4.184 -0.2195  0.7541  0.6256
 5434TIP3    H237718   3.975   6.420   4.262 -0.3500  0.0512 -0.5274
 5435TIP3   OH237719   3.274   2.253   0.201 -0.3318  0.9259 -0.2603
 5435TIP3    H137720   3.279   2.169   0.157 -0.6361  1.1543 -0.7482
 5435TIP3    H237721   3.361   2.268   0.237 -0.9928 -0.9534  2.4104
 5436TIP3   OH237722   2.093   2.079  16.499  0.2351 -0.1358 -0.6657
 5436TIP3    H137723   2.182   2.097  16.529  1.2296 -1.0531 -2.8393
 5436TIP3    H237724   2.081   2.136  16.423 -0.2280 -1.4912 -1.6533
 5437TIP3   OH237725   3.779   1.097  11.735 -0.3775 -0.2362  0.3635
 5437TIP3    H137726   3.840   1.060  11.671 -0.8665  0.5746 -0.5977
 5437TIP3    H237727   3.820   1.180  11.761  0.3044 -1.0129  1.8741
 5438TIP3   OH237728   1.375   1.093   1.317  0.1467 -0.0887  0.2172
 5438TIP3    H137729   1.439   1.164   1.306  0.7307 -0.6413 -0.0113
 5438TIP3    H237730   1.344   1.075   1.228 -1.0333  0.8059  0.4270
 5439TIP3   OH237731   1.022   3.881   4.602 -0.2226  0.4099 -0.1959
 5439TIP3    H137732   0.986   3.828   4.531  1.0634 -1.4459  0.4638
 5439TIP3    H237733   0.999   3.835   4.682  0.1615  1.3399  0.4786
 5440TIP3   OH237734   0.936   4.831  12.069  0.3231  0.0121 -0.3025
 5440TIP3    H137735   0.857   4.861  12.114  0.4455  2.3452 -1.5395
 5440TIP3    H237736   0.992   4.797  12.139 -0.9983  0.0449  0.8073
 5441TIP3   OH237737   1.201   1.130  12.199  0.3646  0.5189  0.7504
 5441TIP3    H137738   1.109   1.144  12.177  0.6685  1.6201  0.1521
 5441TIP3    H237739   1.204   1.039  12.230 -0.4683 -0.4475 -1.7358
 5442TIP3   OH237740   1.729   5.930   6.338  0.5367 -0.4319 -0.1037
 5442TIP3    H137741   1.656   5.927   6.401  1.2298  0.0383  0.7498
 5442TIP3    H237742   1.782   5.853   6.360 -0.4631 -1.6491 -1.7192
 5443TIP3   OH237743   1.914   2.874   5.669  0.1264  0.5039 -0.4664
 5443TIP3    H137744   1.875   2.928   5.599  1.8549 -0.9681 -2.6944
 5443TIP3    H237745   1.847   2.809   5.689 -0.3611  0.8980 -0.7832
 5444TIP3   OH237746   6.538   6.081  12.402  0.1753  0.1211 -0.7379
 5444TIP3    H137747   6.552   6.164  12.356 -0.5070  0.0814 -1.0298
 5444TIP3    H237748   6.626   6.046  12.415  0.4186  0.4669 -1.3899
 5445TIP3   OH237749   3.501   0.166  14.731  0.1929  0.2844 -0.2741
 5445TIP3    H137750   3.501   0.244  14.675  0.0741  1.3937  1.1917
 5445TIP3    H237751   3.461   0.196  14.813  0.9269 -1.1083  0.6265
 5446TIP3   OH237752   4.072   5.852  12.676 -0.1399 -0.2891 -0.3386
 5446TIP3    H137753   4.014   5.785  12.642 -0.6248 -0.0316 -0.0316
 5446TIP3    H237754   4.146   5.854  12.615 -0.7805 -0.1359 -1.1087
 5447TIP3   OH237755   1.031   2.056  12.026 -0.4115 -0.0910  0.1306
 5447TIP3    H137756   0.998   1.970  11.999 -0.5488  0.3522 -1.1698
 5447TIP3    H237757   0.954   2.112  12.030 -0.0184  0.6807 -1.8795
 5448TIP3   OH237758   5.538   2.166   3.659  0.2139  0.3875  0.1528
 5448TIP3    H137759   5.541   2.182   3.564  0.7121  2.3102  0.4649
 5448TIP3    H237760   5.446   2.143   3.676  0.6348 -2.7258 -1.1463
 5449TIP3   OH237761   0.168   2.012   3.498 -0.5214  0.0554  0.9655
 5449TIP3    H137762   0.262   2.027   3.510 -0.3777 -0.5455  0.6725
 5449TIP3    H237763   0.147   2.055   3.416  0.0821 -1.9942 -0.3502
 5450TIP3   OH237764   1.937   5.774  15.379  0.0602 -0.0474  0.1350
 5450TIP3    H137765   2.022   5.811  15.358 -0.3275  1.5467  1.2139
 5450TIP3    H237766   1.915   5.718  15.304  1.2362  0.9357 -0.9670
 5451TIP3   OH237767   2.224   3.859   4.210 -0.1400 -0.3184 -0.1663
 5451TIP3    H137768   2.167   3.785   4.229  0.2939 -0.5401  0.2925
 5451TIP3    H237769   2.273   3.873   4.292  1.0021 -0.6066 -0.7767
 5452TIP3   OH237770   2.411   1.672   0.180  0.2853  0.4849 -0.3722
 5452TIP3    H137771   2.361   1.728   0.121 -2.4037 -0.8847  0.4273
 5452TIP3    H237772   2.487   1.645   0.129 -1.5938 -0.1710 -3.0677
 5453TIP3   OH237773   1.264   6.249  12.266 -0.0551 -0.1530  0.3793
 5453TIP3    H137774   1.295   6.279  12.180 -1.8550  1.6369  0.2894
 5453TIP3    H237775   1.328   6.284  12.328 -0.1922  0.8658 -0.0372
 5454TIP3   OH237776   6.516   4.375   5.850  0.2767  0.0599  0.4961
 5454TIP3    H137777   6.429   4.335   5.848 -0.0742  0.7389  1.2547
 5454TIP3    H237778   6.521   4.426   5.770 -0.7114  1.3555  1.2140
 5455TIP3   OH237779   1.920   4.659   2.505  0.1769  0.5576  0.1712
 5455TIP3    H137780   1.967   4.703   2.576  0.3157  0.6961 -0.0047
 5455TIP3    H237781   1.972   4.582   2.486 -0.0067  0.3743  0.4042
 5456TIP3   OH237782   1.050   3.822   0.382 -0.0228  0.4800 -0.2882
 5456TIP3    H137783   1.122   3.866   0.427  1.2174 -0.7227 -1.0119
 5456TIP3    H237784   1.072   3.828   0.289  0.7453 -2.4362 -0.3860
 5457TIP3   OH237785   3.635   1.433  14.474  0.1973 -0.0196  0.3894
 5457TIP3    H137786   3.578   1.387  14.535  1.0476 -1.4665  0.1203
 5457TIP3    H237787   3.676   1.502  14.527  1.4185 -1.6517  1.6815
 5458TIP3   OH237788   4.261   2.004   1.849 -0.5353  0.3514  0.2515
 5458TIP3    H137789   4.229   1.992   1.760 -0.5964 -0.6349  0.3983
 5458TIP3    H237790   4.346   2.047   1.839 -1.3959  2.0198 -0.1873
 5459TIP3   OH237791   1.475   0.724  14.958  0.3530 -0.7365  0.2588
 5459TIP3    H137792   1.496   0.783  15.030 -0.2348 -0.3055  0.0879
 5459TIP3    H237793   1.416   0.775  14.902  0.7479 -1.0834 -0.4915
 5460TIP3   OH237794   2.105   1.575   3.008  0.6193 -0.3227 -0.4192
 5460TIP3    H137795   2.114   1.600   3.100  1.4863 -1.2134 -0.2506
 5460TIP3    H237796   2.187   1.530   2.987  0.7463  0.5189 -1.8397
 5461TIP3   OH237797   4.194   2.200   4.018  0.1584  0.6498 -0.1629
 5461TIP3    H137798   4.154   2.234   3.938 -1.0459 -1.1705 -0.3988
 5461TIP3    H237799   4.136   2.232   4.088  0.0130  0.5216 -0.2229
 5462TIP3   OH237800   0.725   2.972  14.166  0.5469 -0.6288 -0.6071
 5462TIP3    H137801   0.709   2.936  14.079 -0.6580  0.4680 -0.8764
 5462TIP3    H237802   0.638   2.978  14.205  0.7530  1.3658 -0.3567
 5463TIP3   OH237803   3.382   2.279  14.054 -0.1482  0.0912 -0.3914
 5463TIP3    H137804   3.292   2.304  14.077 -0.0337  2.2303 -1.9529
 5463TIP3    H237805   3.416   2.238  14.134 -2.8696 -2.0277 -0.1658
 5464TIP3   OH237806   4.958   3.119   3.803  0.4228  0.1555 -0.5330
 5464TIP3    H137807   4.915   3.151   3.882 -0.9239 -0.6485 -0.9006
 5464TIP3    H237808   4.960   3.194   3.744 -0.6203  0.1844 -0.5470
 5465TIP3   OH237809   3.846   2.326   1.441 -0.1747  0.4253 -0.4460
 5465TIP3    H137810   3.795   2.348   1.362 -0.5260 -1.5632 -0.8200
 5465TIP3    H237811   3.805   2.377   1.510 -0.1128  1.9169 -1.4607
 5466TIP3   OH237812   3.752   6.351  16.257  0.6483 -0.1731 -0.6907
 5466TIP3    H137813   3.795   6.416  16.312 -1.6453 -0.2278  1.3290
 5466TIP3    H237814   3.820   6.287  16.238  1.9188  0.6765  0.7475
 5467TIP3   OH237815   6.721   6.240   3.475 -0.1463 -0.4970  0.2827
 5467TIP3    H137816   6.659   6.262   3.545  0.0023  1.2284 -0.0938
 5467TIP3    H237817   6.722   6.317   3.419 -0.4951 -1.9463 -1.8310
 5468TIP3   OH237818   2.083   3.406  13.224 -0.3133 -0.1934  0.2361
 5468TIP3    H137819   2.075   3.482  13.283 -0.4787  0.4856 -0.6384
 5468TIP3    H237820   2.056   3.332  13.277  0.3960  0.2708  1.2937
 5469TIP3   OH237821   4.129   1.283   1.184  0.5884  0.8336 -0.1038
 5469TIP3    H137822   4.164   1.371   1.174  0.4882  0.8463 -0.3482
 5469TIP3    H237823   4.051   1.281   1.128  1.7951 -0.0690 -1.8558
 5470TIP3   OH237824   5.743   3.888  12.761 -0.0421 -0.1153  0.1135
 5470TIP3    H137825   5.681   3.819  12.785  0.9660 -0.1900  2.8253
 5470TIP3    H237826   5.800   3.897  12.837  1.0993  2.3781 -0.9215
 5471TIP3   OH237827   5.414   2.350   5.023  0.4892  0.2664 -0.4435
 5471TIP3    H137828   5.319   2.364   5.034  0.4448 -0.8882  0.8275
 5471TIP3    H237829   5.422   2.262   4.988  1.0325  1.1853 -2.8099
 5472TIP3   OH237830   3.824   2.880  16.629 -0.0226 -0.2493  0.2904
 5472TIP3    H137831   3.749   2.896  16.572 -0.8542  0.3333  1.5222
 5472TIP3    H237832   3.836   2.785  16.627 -1.9161 -0.5471  1.4655
 5473TIP3   OH237833   4.181   4.551  10.060 -0.3871 -0.2919  0.0237
 5473TIP3    H137834   4.230   4.592  10.131  2.3607 -0.9668 -1.3255
 5473TIP3    H237835   4.105   4.511  10.103 -0.5252  1.9000  2.0585
 5474TIP3   OH237836   6.349   4.123  14.217 -0.3444 -0.0011 -0.3369
 5474TIP3    H137837   6.441   4.128  14.244 -0.3577 -2.8734  0.5845
 5474TIP3    H237838   6.300   4.110  14.298 -1.2321 -1.1778 -1.0160
 5475TIP3   OH237839   0.109   4.959   1.321  0.1857 -0.4929  0.2847
 5475TIP3    H137840   0.156   4.976   1.403  1.8397 -1.8115 -0.3217
 5475TIP3    H237841   0.021   4.934   1.348  0.5957 -0.5497  1.6413
 5476TIP3   OH237842   3.787   6.532   6.021  0.0215  0.5169 -0.7944
 5476TIP3    H137843   3.821   6.554   6.108  1.0464  1.6192 -1.4590
 5476TIP3    H237844   3.713   6.474   6.039  1.4434 -0.9511  0.7519
 5477TIP3   OH237845   3.373   0.929   5.621  0.1415 -0.1210  0.5253
 5477TIP3    H137846   3.321   0.979   5.685  1.4735  2.6507 -0.3934
 5477TIP3    H237847   3.308   0.897   5.558 -0.7619  0.8688  0.9151
 5478TIP3   OH237848   6.075   0.918  14.622  0.1298 -1.0714 -0.1735
 5478TIP3    H137849   6.016   0.908  14.696  0.1935  0.4806  0.1217
 5478TIP3    H237850   6.098   1.011  14.622  2.0008 -1.4844 -0.7078
 5479TIP3   OH237851   6.071   5.691  15.199  0.0909 -0.1010  0.2514
 5479TIP3    H137852   6.101   5.728  15.116 -0.4401  0.3864  0.2657
 5479TIP3    H237853   6.125   5.613  15.212  0.7554  0.2817 -0.1317
 5480TIP3   OH237854   3.109   3.553  16.998  0.4634  0.3554  0.1182
 5480TIP3    H137855   3.109   3.639  16.956 -1.5267  1.2995  1.8653
 5480TIP3    H237856   3.046   3.502  16.947  0.6130  0.3710 -0.0859
 5481TIP3   OH237857   4.798   6.386   0.314 -0.3489  0.4860 -0.1408
 5481TIP3    H137858   4.769   6.295   0.327 -2.3181  0.9831 -0.7380
 5481TIP3    H237859   4.759   6.434   0.387  3.4364  0.4368  2.1868
 5482TIP3   OH237860   6.386   5.296  16.489 -0.1822  0.2577 -0.4189
 5482TIP3    H137861   6.468   5.248  16.504 -0.6179 -1.2980 -2.5916
 5482TIP3    H237862   6.322   5.254  16.546 -0.0569 -0.3370 -0.7058
 5483TIP3   OH237863   2.261   5.934   0.999  0.2308  0.1055  0.0727
 5483TIP3    H137864   2.276   5.840   0.991  0.8595  0.2469 -0.5182
 5483TIP3    H237865   2.169   5.946   0.979  0.3086 -0.3084 -0.5567
 5484TIP3   OH237866   4.480   1.210  12.342 -0.5653 -0.2841  0.2348
 5484TIP3    H137867   4.407   1.268  12.366 -0.4099 -0.7941  2.1004
 5484TIP3    H237868   4.547   1.270  12.308 -1.4580  0.2999 -0.5497
 5485TIP3   OH237869   1.121   1.733  12.180 -0.0065  0.7135 -0.7285
 5485TIP3    H137870   1.026   1.735  12.165 -0.5743  0.5040  2.2404
 5485TIP3    H237871   1.138   1.811  12.233  1.3460  0.2711 -0.4783
 5486TIP3   OH237872   6.192   1.770   0.762  0.2721  0.2104  0.0853
 5486TIP3    H137873   6.225   1.741   0.677  0.7540 -0.3767  0.4656
 5486TIP3    H237874   6.225   1.705   0.824 -0.5860  0.2911  0.6426
 5487TIP3   OH237875   6.394   6.657  13.795 -0.1481  0.1559 -0.2196
 5487TIP3    H137876   6.427   6.736  13.839  3.1416 -1.3552  0.3440
 5487TIP3    H237877   6.455   6.643  13.722  0.5258 -2.7846  0.7797
 5488TIP3   OH237878   5.189   0.908  15.889 -0.0896 -0.2349 -0.0624
 5488TIP3    H137879   5.224   0.953  15.965 -0.6020 -0.2863  0.2036
 5488TIP3    H237880   5.202   0.815  15.908 -0.0909 -0.2436 -0.1024
 5489TIP3   OH237881   1.536   0.011   2.240  0.0805  0.4020 -0.0039
 5489TIP3    H137882   1.588  -0.015   2.315  0.2926 -0.6765 -0.5143
 5489TIP3    H237883   1.600   0.029   2.171 -0.1555  0.5681 -0.1837
 5490TIP3   OH237884   2.365   3.508   3.258 -0.7467 -0.5257  0.1266
 5490TIP3    H137885   2.335   3.501   3.348 -1.5998 -0.1721 -0.1240
 5490TIP3    H237886   2.444   3.562   3.263 -1.4429  0.4724  0.5327
 5491TIP3   OH237887   5.317   4.449   4.240  0.8417  0.5703 -0.6381
 5491TIP3    H137888   5.233   4.471   4.200 -0.0150 -0.1928  0.6775
 5491TIP3    H237889   5.328   4.515   4.309  0.7788  0.0140 -0.0878
 5492TIP3   OH237890   3.639   2.685  14.774  0.3216 -0.1717  0.1936
 5492TIP3    H137891   3.630   2.780  14.776  1.1444 -0.0576 -0.6923
 5492TIP3    H237892   3.564   2.654  14.724  0.4493  0.0803 -0.1557
 5493TIP3   OH237893   2.197   1.112   2.678  0.0082  0.0904 -0.3407
 5493TIP3    H137894   2.172   1.043   2.739  0.5072  1.7747  1.8919
 5493TIP3    H237895   2.125   1.115   2.615 -0.6712 -1.5226  0.3071
 5494TIP3   OH237896   5.382   4.055  12.054 -0.3842  0.8032  0.9487
 5494TIP3    H137897   5.358   4.027  11.966 -0.9350  0.1932  1.2822
 5494TIP3    H237898   5.345   3.988  12.111  2.3439 -0.3698  1.5089
 5495TIP3   OH237899   3.008   6.471  14.857 -0.0647 -0.4774 -0.0253
 5495TIP3    H137900   2.952   6.482  14.780 -0.3127 -1.0681  0.0688
 5495TIP3    H237901   3.064   6.396  14.837 -2.0543 -2.5086  1.4589
 5496TIP3   OH237902   4.369   4.857  12.680  0.2796 -0.4399 -0.0171
 5496TIP3    H137903   4.408   4.943  12.698  0.3392 -0.6134  0.7200
 5496TIP3    H237904   4.307   4.873  12.609 -0.3769  0.4073  0.7240
 5497TIP3   OH237905   6.543   6.396   0.246  0.2108 -0.1208 -0.1410
 5497TIP3    H137906   6.623   6.370   0.291  0.0087 -0.6313 -0.0648
 5497TIP3    H237907   6.524   6.484   0.278 -0.4875 -0.8556  1.5776
 5498TIP3   OH237908   5.064   1.606  16.669  0.7845 -0.3748  0.3258
 5498TIP3    H137909   5.025   1.596  16.582 -1.3321  0.1207  1.1609
 5498TIP3    H237910   5.077   1.700  16.679 -0.8869 -0.2251  1.2995
 5499TIP3   OH237911   3.725   3.444   2.097  0.3928  0.1773 -0.6691
 5499TIP3    H137912   3.661   3.515   2.101  1.3302  1.0771 -1.0561
 5499TIP3    H237913   3.784   3.470   2.026  0.4964 -1.2257 -1.1135
 5500TIP3   OH237914   4.716   0.620   3.840 -0.3220 -0.0535  0.2236
 5500TIP3    H137915   4.712   0.585   3.929 -1.6313 -2.2357 -0.6145
 5500TIP3    H237916   4.795   0.582   3.802  2.3527  3.6863  1.3899
 5501TIP3   OH237917   0.113   5.781  13.161 -0.2476 -0.5327  0.1802
 5501TIP3    H137918   0.106   5.860  13.215  0.4048 -0.0236 -0.4705
 5501TIP3    H237919   0.023   5.763  13.134 -0.4385 -0.1900  0.5814
 5502TIP3   OH237920   5.361   2.389  12.175 -0.8092 -0.1721  0.0864
 5502TIP3    H137921   5.286   2.426  12.221 -1.4101 -0.8028 -0.3675
 5502TIP3    H237922   5.331   2.375  12.086 -0.0572 -0.1568 -0.1795
 5503TIP3   OH237923   3.185   2.240   1.444 -0.0124 -0.4561 -0.4826
 5503TIP3    H137924   3.110   2.287   1.479  1.4068  2.1618 -0.7294
 5503TIP3    H237925   3.196   2.274   1.355  2.2867  0.3740  0.0441
 5504TIP3   OH237926   4.188   0.665  12.550  0.1888  0.4097 -0.3016
 5504TIP3    H137927   4.170   0.738  12.491 -2.5972 -0.1558 -0.2614
 5504TIP3    H237928   4.123   0.599  12.527  2.3511 -1.9390 -0.0467
 5505TIP3   OH237929   0.329   2.745   2.753  0.4455 -0.2382 -0.4626
 5505TIP3    H137930   0.317   2.805   2.680 -0.9135 -1.2981 -1.1489
 5505TIP3    H237931   0.277   2.668   2.730 -0.7781 -0.2528  2.0416
 5506TIP3   OH237932   5.197   0.186   2.426 -0.6059  0.0938  0.5121
 5506TIP3    H137933   5.154   0.100   2.432 -0.4195  0.0494  1.2984
 5506TIP3    H237934   5.132   0.242   2.384 -0.6095 -0.5097 -0.3232
 5507TIP3   OH237935   5.401   1.496   3.827  0.0104 -0.0276 -0.1510
 5507TIP3    H137936   5.481   1.528   3.869  0.0684 -1.0641  0.5840
 5507TIP3    H237937   5.330   1.536   3.876  0.0183  1.7958 -1.5046
 5508TIP3   OH237938   4.891   2.615  15.205  0.4029 -0.0588  0.2263
 5508TIP3    H137939   4.871   2.527  15.238  0.3504  0.5900  2.0227
 5508TIP3    H237940   4.958   2.601  15.138 -2.4122 -1.8290 -2.5327
 5509TIP3   OH237941   0.228   5.226   4.427 -0.3213  0.4960 -0.0180
 5509TIP3    H137942   0.162   5.274   4.476 -0.5672 -0.2536  0.4050
 5509TIP3    H237943   0.221   5.136   4.459 -0.8877 -0.1430 -1.8044
 5510TIP3   OH237944   4.728   6.042  14.626 -0.1790  0.2238  0.6195
 5510TIP3    H137945   4.816   6.014  14.602 -0.2083  1.2512 -0.8426
 5510TIP3    H237946   4.682   5.961  14.647  0.8132 -0.4215  0.3849
 5511TIP3   OH237947   2.216   3.283  14.927  0.3781  0.2752  0.5452
 5511TIP3    H137948   2.264   3.340  14.867  0.6084  0.2511  0.7056
 5511TIP3    H237949   2.157   3.233  14.871  0.6618  0.1827  0.3290
 5512TIP3   OH237950   2.214   2.309   2.551 -0.0641 -0.1041 -0.1929
 5512TIP3    H137951   2.128   2.351   2.558  1.1385  2.7217 -0.9227
 5512TIP3    H237952   2.242   2.295   2.642 -0.0296  1.9239  0.1612
 5513TIP3   OH237953   2.191   2.719  11.505  0.3716 -0.1984 -0.1130
 5513TIP3    H137954   2.196   2.749  11.415 -0.2708  0.1076 -0.0498
 5513TIP3    H237955   2.192   2.623  11.499 -2.7254 -0.2919 -0.6786
 5514TIP3   OH237956   1.201   2.348   4.083  0.2249 -0.3920  0.0554
 5514TIP3    H137957   1.163   2.427   4.046 -0.5097 -0.3888  0.7807
 5514TIP3    H237958   1.279   2.331   4.030  0.7852  1.2082  0.3215
 5515TIP3   OH237959   4.563   1.392  10.173  0.4520 -0.5854  0.2292
 5515TIP3    H137960   4.522   1.321  10.223 -0.2750  0.6025  1.3774
 5515TIP3    H237961   4.491   1.434  10.127  0.2838  1.4790  2.2029
 5516TIP3   OH237962   4.036   3.034   1.137 -0.2634 -0.4033  0.1515
 5516TIP3    H137963   3.957   3.074   1.172  0.1076 -0.5230  1.1634
 5516TIP3    H237964   4.102   3.103   1.142  0.0515 -0.7325  0.6828
 5517TIP3   OH237965   4.894   5.641   3.056  0.9040 -0.3574 -0.0079
 5517TIP3    H137966   4.827   5.698   3.019 -1.4268 -3.6316 -1.3446
 5517TIP3    H237967   4.878   5.645   3.151 -0.3972 -0.1421 -0.2158
 5518TIP3   OH237968   3.161   2.051   4.044 -0.2238  0.1071  0.6154
 5518TIP3    H137969   3.198   2.064   4.131  1.6382  0.8023 -0.2191
 5518TIP3    H237970   3.125   2.137   4.021 -0.7238 -0.0791  0.6953
 5519TIP3   OH237971   1.583   6.575   1.584  0.1901 -0.5078  0.1257
 5519TIP3    H137972   1.516   6.510   1.605 -0.1001 -0.2156  0.1120
 5519TIP3    H237973   1.627   6.539   1.506 -0.4049 -0.3778 -0.2790
 5520TIP3   OH237974   1.489   4.972   2.412 -0.5754 -0.5078 -0.5746
 5520TIP3    H137975   1.459   4.984   2.502  1.0511  0.7811 -0.1566
 5520TIP3    H237976   1.443   5.040   2.363 -1.2037 -0.9886 -0.6542
 5521TIP3   OH237977   5.921   2.296   1.025 -0.7949 -0.1131  0.4929
 5521TIP3    H137978   5.878   2.215   1.053 -0.3728 -0.7252 -0.5703
 5521TIP3    H237979   5.974   2.322   1.100 -1.7414 -0.2317  1.2269
 5522TIP3   OH237980   5.822   3.814  10.966 -0.8076 -0.1560  0.1232
 5522TIP3    H137981   5.874   3.894  10.974 -1.5553  0.2388  1.2808
 5522TIP3    H237982   5.822   3.795  10.872  2.2834 -0.7969  0.1457
 5523TIP3   OH237983   4.255   0.838   3.830  0.2241 -0.5176  0.0848
 5523TIP3    H137984   4.346   0.834   3.859 -0.2752 -1.0226  1.6877
 5523TIP3    H237985   4.203   0.828   3.910 -1.2721  1.3527 -0.5691
 5524TIP3   OH237986   0.758   3.521  16.487  0.2849  0.0675  0.0545
 5524TIP3    H137987   0.730   3.612  16.495  0.6909  0.1762  0.2524
 5524TIP3    H237988   0.807   3.518  16.405 -0.0081 -0.0456 -0.1153
 5525TIP3   OH237989   4.423   1.991  16.530  0.0016  1.2132  0.3457
 5525TIP3    H137990   4.492   2.049  16.561 -0.1286  1.6319 -0.1324
 5525TIP3    H237991   4.363   1.983  16.604  0.2031  1.4099  0.5286
 5526TIP3   OH237992   2.753   2.433  13.971 -0.0913 -0.0330  0.2486
 5526TIP3    H137993   2.681   2.414  14.031  0.4224 -2.0337  0.2936
 5526TIP3    H237994   2.759   2.356  13.915 -0.1270  1.4905 -1.9997
 5527TIP3   OH237995   3.631   5.900  13.810  0.3618 -0.3341  0.6981
 5527TIP3    H137996   3.631   5.810  13.777 -0.6915 -0.6847  1.5879
 5527TIP3    H237997   3.667   5.893  13.899  1.6868  0.3622  0.2411
 5528TIP3   OH237998   1.185   4.332  13.631 -0.5375 -0.0653 -0.4144
 5528TIP3    H137999   1.219   4.371  13.711  0.9094  0.6926 -1.3742
 5528TIP3    H238000   1.090   4.329  13.645 -0.5361  2.1089  0.4380
 5529TIP3   OH238001   5.967   0.130   1.846  0.0359  0.2384 -0.0511
 5529TIP3    H138002   6.031   0.109   1.777  0.9853  1.5682  0.3959
 5529TIP3    H238003   5.907   0.191   1.804  0.5218  0.9236  0.2295
 5530TIP3   OH238004   3.742   4.720  12.510 -0.0102 -0.6865  0.0095
 5530TIP3    H138005   3.752   4.759  12.597  0.2344 -0.0860 -0.2825
 5530TIP3    H238006   3.651   4.693  12.506 -0.1158 -0.3779  0.3182
 5531TIP3   OH238007   4.055   1.307  14.353  0.1338 -0.0288 -0.4229
 5531TIP3    H138008   3.996   1.258  14.295 -1.2524  0.5069  0.4763
 5531TIP3    H238009   4.107   1.240  14.397 -0.2030 -0.5557 -0.8101
 5532TIP3   OH238010   0.270   5.014  12.265  0.1677 -0.1124 -0.3624
 5532TIP3    H138011   0.263   5.104  12.233  0.8511  0.4430  0.9586
 5532TIP3    H238012   0.187   4.999  12.311  0.1753 -0.0548 -0.3298
 5533TIP3   OH238013   6.263   5.284   2.386  0.5660 -0.1670  0.2623
 5533TIP3    H138014   6.310   5.277   2.303 -0.5623  1.5714 -0.5893
 5533TIP3    H238015   6.170   5.285   2.361  0.1641 -0.8358  1.6572
 5534TIP3   OH238016   4.242   6.262   0.951 -0.2640 -0.6842  0.0631
 5534TIP3    H138017   4.180   6.241   0.881  0.1973 -1.4844 -0.1293
 5534TIP3    H238018   4.319   6.297   0.905  0.3686 -1.9902  0.0636
 5535TIP3   OH238019   5.278   1.289  11.147 -0.0869 -0.1542 -0.0553
 5535TIP3    H138020   5.234   1.360  11.100 -0.2170  1.0382  1.7816
 5535TIP3    H238021   5.331   1.245  11.080 -1.1539  0.7371 -1.5314
 5536TIP3   OH238022   0.607   0.461   5.798  0.2990  0.2330  0.2354
 5536TIP3    H138023   0.588   0.553   5.779  2.4689  0.6940  0.0138
 5536TIP3    H238024   0.633   0.424   5.713  1.2007 -0.0916  0.6395
 5537TIP3   OH238025   4.973   6.639   0.816 -0.2302 -0.1344  0.6546
 5537TIP3    H138026   4.955   6.547   0.794  2.7275 -0.8392  0.8202
 5537TIP3    H238027   4.943   6.688   0.739  0.5006 -1.5332 -0.5681
 5538TIP3   OH238028   3.650   2.086  17.081  0.3117 -0.0377  0.3675
 5538TIP3    H138029   3.612   2.151  17.024 -0.1830 -0.0665  0.6557
 5538TIP3    H238030   3.708   2.035  17.025 -2.4325 -2.0625 -0.9116
 5539TIP3   OH238031   3.858   0.329   2.950 -0.1341 -0.0021  0.2040
 5539TIP3    H138032   3.884   0.287   3.032  1.1716  1.2548  0.4897
 5539TIP3    H238033   3.809   0.406   2.977 -1.9895 -0.9504 -0.2983
 5540TIP3   OH238034   1.437   5.948   5.344 -0.1136  0.3624 -0.5201
 5540TIP3    H138035   1.384   5.920   5.418  0.7571 -0.2152 -0.0919
 5540TIP3    H238036   1.420   5.883   5.275  1.4385 -0.9602  0.2633
 5541TIP3   OH238037   1.751   2.748  12.259 -0.4925 -0.2555 -0.4317
 5541TIP3    H138038   1.673   2.743  12.204 -0.5787 -1.0041 -0.2545
 5541TIP3    H238039   1.799   2.668  12.240  0.3645  0.3171 -0.7243
 5542TIP3   OH238040   1.357   4.661   4.355 -0.4053  0.6230  0.0495
 5542TIP3    H138041   1.385   4.630   4.441 -1.2888 -0.2817  0.0265
 5542TIP3    H238042   1.405   4.606   4.293  0.2912  1.3261 -0.0522
 5543TIP3   OH238043   0.133   2.522  17.357  0.1198 -0.6421 -0.0943
 5543TIP3    H138044   0.119   2.457  17.425 -0.8734  1.2980  1.6825
 5543TIP3    H238045   0.045   2.541  17.323  0.1874  0.7045  0.3970
 5544TIP3   OH238046   2.980   6.122  12.485  0.5163 -0.4858  0.0801
 5544TIP3    H138047   3.005   6.034  12.456  0.0677 -0.8761  0.8504
 5544TIP3    H238048   2.893   6.111  12.522  1.0263  0.0043  1.5017
 5545TIP3   OH238049   5.495   1.579   4.441 -0.5692  1.0645 -0.2947
 5545TIP3    H138050   5.530   1.613   4.359 -1.3698  0.6933 -0.8031
 5545TIP3    H238051   5.571   1.573   4.499  0.2981 -0.1583 -1.4946
 5546TIP3   OH238052   6.056   5.900   2.953  0.2917  0.2439 -0.0491
 5546TIP3    H138053   6.041   5.985   2.912  0.7641  0.6531  0.6056
 5546TIP3    H238054   5.984   5.845   2.922 -0.1281  0.9385 -0.3211
 5547TIP3   OH238055   2.657   5.231   4.428 -0.5872  0.0620 -0.3505
 5547TIP3    H138056   2.706   5.311   4.449 -1.9825  0.4819  1.6085
 5547TIP3    H238057   2.566   5.254   4.446 -1.0974 -1.7555 -0.4894
 5548TIP3   OH238058   6.089   1.707  10.883  0.2627  0.2002  0.4535
 5548TIP3    H138059   6.074   1.627  10.832  0.2622  1.0901 -0.9862
 5548TIP3    H238060   6.085   1.678  10.975  1.3567 -1.6539 -0.0252
 5549TIP3   OH238061   6.520   1.071  17.158 -1.2524 -0.0252  0.1877
 5549TIP3    H138062   6.506   0.982  17.191 -2.2891 -0.0701 -0.3129
 5549TIP3    H238063   6.607   1.069  17.118 -1.0118 -0.6422  0.7252
 5550TIP3   OH238064   3.610   3.431  16.911  0.0636  0.0232 -0.5407
 5550TIP3    H138065   3.534   3.403  16.860 -0.8789  0.7783  0.3879
 5550TIP3    H238066   3.608   3.526  16.908  0.1973  0.0763  0.5856
 5551TIP3   OH238067   1.976   4.020  16.668  0.0309 -0.3272  0.1446
 5551TIP3    H138068   1.975   3.928  16.642  0.6469 -0.1229 -0.6148
 5551TIP3    H238069   2.068   4.046  16.663 -0.3531  0.8593 -1.5724
 5552TIP3   OH238070   6.624   4.234  16.947 -0.1634  0.1358  0.9049
 5552TIP3    H138071   6.671   4.151  16.933  0.0863  0.3083  0.6973
 5552TIP3    H238072   6.566   4.217  17.021 -1.3408 -0.7473 -0.1632
 5553TIP3   OH238073   5.390   4.460  11.380  0.0535 -0.3714  0.4037
 5553TIP3    H138074   5.320   4.457  11.314  0.3288  0.1612  0.0825
 5553TIP3    H238075   5.348   4.500  11.457  0.3566  1.3163 -0.2574
 5554TIP3   OH238076   1.535   4.407   2.670 -0.0233 -0.2614  0.0906
 5554TIP3    H138077   1.500   4.370   2.589  1.5833 -1.1773 -0.2361
 5554TIP3    H238078   1.567   4.494   2.645 -2.2639  0.7642  0.4811
 5555TIP3   OH238079   2.139   5.475   2.727  0.0867 -0.1145  0.3990
 5555TIP3    H138080   2.061   5.421   2.739 -0.6913  1.2219  1.6695
 5555TIP3    H238081   2.109   5.550   2.677  0.7331  0.0294  0.2229
 5556TIP3   OH238082   4.658   5.924   5.033 -0.0001  0.6778 -0.5991
 5556TIP3    H138083   4.652   5.842   4.984  1.6458  0.5353 -0.6382
 5556TIP3    H238084   4.572   5.935   5.074 -0.0843 -1.3680 -0.1300
 5557TIP3   OH238085   3.347   1.237  15.646  0.0823 -0.1299 -0.4503
 5557TIP3    H138086   3.443   1.231  15.650  0.1776  1.6452  2.2014
 5557TIP3    H238087   3.330   1.319  15.600 -0.1745 -0.3460 -0.7452
 5558TIP3   OH238088   1.190   3.485   2.685 -0.7737  0.4775  0.2211
 5558TIP3    H138089   1.202   3.390   2.694  1.6127  0.3761 -2.4528
 5558TIP3    H238090   1.279   3.521   2.689 -1.2490  2.1644 -2.2532
 5559TIP3   OH238091   1.459   0.640   2.825 -0.3661 -0.0756 -0.2974
 5559TIP3    H138092   1.371   0.607   2.841  0.7711 -1.8985  3.1966
 5559TIP3    H238093   1.473   0.706   2.893  0.8615  0.4759 -1.0380
 5560TIP3   OH238094   6.653   3.983  13.646  0.5739  0.0437  0.6239
 5560TIP3    H138095   6.623   4.007  13.733  1.4397  0.1313  0.9028
 5560TIP3    H238096   6.585   3.925  13.612  0.7889 -0.9445  1.8196
 5561TIP3   OH238097   0.628   2.463  12.286 -0.2217  0.4293 -0.1512
 5561TIP3    H138098   0.588   2.399  12.227 -0.6937  1.1774 -0.6525
 5561TIP3    H238099   0.721   2.440  12.286 -0.7323 -2.2181  2.1240
 5562TIP3   OH238100   0.374   5.188   0.718 -0.2029  0.0064 -0.6092
 5562TIP3    H138101   0.392   5.180   0.625 -1.9283  0.6930 -1.0240
 5562TIP3    H238102   0.374   5.282   0.735 -0.2663 -0.1018  0.0121
 5563TIP3   OH238103   3.212   3.336   4.929  0.1764  0.1874 -0.2887
 5563TIP3    H138104   3.168   3.322   4.845  0.6271 -2.6470 -0.1270
 5563TIP3    H238105   3.145   3.316   4.995  0.2327  1.0132  0.0278
 5564TIP3   OH238106   4.822   4.246  12.798 -0.0850 -0.4899  0.2679
 5564TIP3    H138107   4.820   4.310  12.869 -0.9080 -0.2013 -0.0093
 5564TIP3    H238108   4.732   4.245  12.764 -0.0586 -1.6925  0.1882
 5565TIP3   OH238109   5.849   1.505  12.222  0.3471 -0.1886  0.0336
 5565TIP3    H138110   5.856   1.509  12.127  0.7157 -1.4204 -0.0109
 5565TIP3    H238111   5.874   1.592  12.252  2.2420 -0.3705 -0.8815
 5566TIP3   OH238112   4.522   4.889   5.254 -0.0129 -0.2596 -0.9707
 5566TIP3    H138113   4.520   4.954   5.183  1.1049  0.1851 -0.6251
 5566TIP3    H238114   4.515   4.942   5.333 -0.0881 -0.6608 -0.7104
 5567TIP3   OH238115   6.674   5.501   3.738  0.3231  0.2632 -0.1042
 5567TIP3    H138116   6.631   5.498   3.823  0.3016 -1.4109 -0.1458
 5567TIP3    H238117   6.697   5.594   3.726  0.2127  0.5454  1.6421
 5568TIP3   OH238118   1.619   0.508  15.223  0.4086  0.2348 -0.1875
 5568TIP3    H138119   1.533   0.521  15.183  0.6845  0.8865 -0.5950
 5568TIP3    H238120   1.610   0.544  15.311 -0.2115 -1.2370  0.3805
 5569TIP3   OH238121   1.559   1.388  11.309  0.4047 -0.4778 -0.1802
 5569TIP3    H138122   1.592   1.308  11.350  0.2882 -0.9601 -1.0063
 5569TIP3    H238123   1.476   1.406  11.355  0.9928 -0.1692  0.7912
 5570TIP3   OH238124   0.018   1.783   2.891 -0.2767 -0.4515  0.4079
 5570TIP3    H138125   0.026   1.698   2.847  1.9974 -0.9624  1.6111
 5570TIP3    H238126  -0.055   1.771   2.952  0.5905 -1.9167  1.2274
 5571TIP3   OH238127   1.690   4.119   4.034  0.5730 -0.0256 -0.5447
 5571TIP3    H138128   1.772   4.124   4.082  0.4482 -0.2314 -0.3041
 5571TIP3    H238129   1.692   4.193   3.974  0.9231 -0.0170 -0.5219
 5572TIP3   OH238130   2.153   2.979   0.091 -0.2224 -0.1022 -0.0632
 5572TIP3    H138131   2.123   3.020   0.010  2.3192 -2.1931 -2.2777
 5572TIP3    H238132   2.135   2.886   0.078 -2.3493 -0.2845  3.1388
 5573TIP3   OH238133   4.246   0.911  11.560  0.6488  0.0947 -0.1661
 5573TIP3    H138134   4.292   0.882  11.639  0.2129  0.2118  0.1386
 5573TIP3    H238135   4.308   0.968  11.515  0.1845  1.7520  1.1735
 5574TIP3   OH238136   1.581   5.813   2.020 -0.3426 -0.5593 -0.0019
 5574TIP3    H138137   1.661   5.854   1.987 -0.4158 -0.5772 -0.2016
 5574TIP3    H238138   1.584   5.828   2.115  0.5282 -1.6606  0.1609
 5575TIP3   OH238139   2.959   1.718  10.171 -0.0211  0.5257 -0.2240
 5575TIP3    H138140   2.912   1.648  10.125 -0.1540 -0.6346  1.5807
 5575TIP3    H238141   3.052   1.698  10.154 -0.0678  0.0787  0.0179
 5576TIP3   OH238142   0.141   5.589  11.781  0.2204  0.5113 -0.2226
 5576TIP3    H138143   0.056   5.551  11.759 -0.3460 -0.2280  2.7601
 5576TIP3    H238144   0.202   5.515  11.780  0.4690  0.7201 -0.6719
 5577TIP3   OH238145   3.452   1.304  16.344 -0.0660  0.1991 -0.4922
 5577TIP3    H138146   3.510   1.332  16.273 -0.6881 -0.2877 -1.2152
 5577TIP3    H238147   3.390   1.244  16.302  0.1882 -0.9263  0.6773
 5578TIP3   OH238148   0.517   0.072  13.044  0.0503 -0.2974 -0.0390
 5578TIP3    H138149   0.534   0.113  12.959 -0.1757  0.2582  0.1756
 5578TIP3    H238150   0.510  -0.021  13.026 -2.5565  0.0254 -1.0574
 5579TIP3   OH238151   0.622   3.643   1.368  0.2740  0.1496 -0.1919
 5579TIP3    H138152   0.593   3.559   1.332  0.9007 -1.0113  1.8330
 5579TIP3    H238153   0.656   3.691   1.292  0.1018 -1.5116 -1.3845
 5580TIP3   OH238154   0.605   0.290  10.613 -0.2148  0.0759  0.0261
 5580TIP3    H138155   0.544   0.342  10.560 -2.0756 -1.4831  0.5279
 5580TIP3    H238156   0.644   0.228  10.552  0.3630  0.6111 -0.1601
 5581TIP3   OH238157   6.395   5.042  16.310  0.6163  0.7116  0.5321
 5581TIP3    H138158   6.417   5.133  16.333  1.1930  1.0082 -1.0645
 5581TIP3    H238159   6.301   5.044  16.293  0.4693  0.8098  1.2940
 5582TIP3   OH238160   3.770   6.669  13.907 -0.0637  0.1428  0.6808
 5582TIP3    H138161   3.719   6.740  13.947  1.2166  0.2067  2.3219
 5582TIP3    H238162   3.746   6.670  13.815 -0.0241  2.7817  0.6359
 5583TIP3   OH238163   1.140   1.912  16.021 -0.0517 -0.5081 -0.1920
 5583TIP3    H138164   1.156   1.970  15.947 -1.1907  0.5622  0.3580
 5583TIP3    H238165   1.228   1.891  16.054  0.4237 -0.1045 -1.1557
 5584TIP3   OH238166   1.359   6.049   2.817  0.4129 -0.3737 -0.1679
 5584TIP3    H138167   1.280   5.997   2.801 -0.0321 -0.4710  2.0112
 5584TIP3    H238168   1.326   6.132   2.852  1.2427  0.0281 -0.3171
 5585TIP3   OH238169   1.739   1.473   4.777 -0.0101  0.0549 -0.0301
 5585TIP3    H138170   1.724   1.396   4.831  0.1573 -0.7763 -1.1266
 5585TIP3    H238171   1.813   1.449   4.721  0.1941  1.1034 -0.2367
 5586TIP3   OH238172   6.086   0.206  13.495 -0.0593  0.1682  0.3111
 5586TIP3    H138173   5.994   0.221  13.519 -0.5495  0.2989 -1.5337
 5586TIP3    H238174   6.122   0.294  13.481 -0.1576  0.0573 -0.6934
 5587TIP3   OH238175   1.079   2.985  13.425  0.0020 -0.0815  0.4411
 5587TIP3    H138176   1.138   2.943  13.363 -0.9095  0.4362 -0.7968
 5587TIP3    H238177   1.018   2.916  13.451 -0.8402  0.1842 -0.7802
 5588TIP3   OH238178   0.734   3.889  11.348  0.5453 -0.3062  0.2908
 5588TIP3    H138179   0.718   3.923  11.260  1.8172 -2.2754 -0.7922
 5588TIP3    H238180   0.828   3.871  11.349  0.3981 -1.0960  1.7661
 5589TIP3   OH238181   5.228   2.249  13.309 -0.2271  0.3774 -0.2605
 5589TIP3    H138182   5.203   2.304  13.235  2.1514  1.8121 -0.1103
 5589TIP3    H238183   5.306   2.291  13.345  1.1802 -2.6048  0.4978
 5590TIP3   OH238184   0.407   0.545  15.610 -0.1011  0.3167 -0.4806
 5590TIP3    H138185   0.473   0.615  15.609 -0.3964  0.5982 -0.5405
 5590TIP3    H238186   0.452   0.469  15.574  0.4747  0.2422  0.3598
 5591TIP3   OH238187   3.042   6.470  15.234 -0.2935 -0.4002  0.0717
 5591TIP3    H138188   3.110   6.407  15.257  1.2751  1.5292  0.9676
 5591TIP3    H238189   2.971   6.452  15.296  0.0013 -1.4313  0.1370
 5592TIP3   OH238190   1.530   5.201  14.925 -0.5458 -0.1192  0.4317
 5592TIP3    H138191   1.525   5.106  14.916  1.5438 -0.0869 -4.5616
 5592TIP3    H238192   1.614   5.216  14.969 -0.5869 -0.5939  0.6801
 5593TIP3   OH238193   1.240   0.226   6.026 -0.4361  0.9654  0.1721
 5593TIP3    H138194   1.186   0.163   6.075 -0.0940 -1.3602 -2.2212
 5593TIP3    H238195   1.330   0.198   6.042 -0.3154  0.1860 -1.6161
 5594TIP3   OH238196   4.830   3.206   1.433 -0.5120  0.2054 -0.4167
 5594TIP3    H138197   4.753   3.262   1.423  0.0209  1.0534  0.0474
 5594TIP3    H238198   4.902   3.268   1.444  0.7562 -0.4129 -3.9480
 5595TIP3   OH238199   4.644   5.745  13.625  0.1081  0.3759 -0.2144
 5595TIP3    H138200   4.619   5.836  13.642  1.4623  0.7772 -0.2117
 5595TIP3    H238201   4.679   5.714  13.709 -0.7153 -0.2818 -0.1073
 5596TIP3   OH238202   2.579   5.327   4.751 -0.6697  0.4612 -0.7199
 5596TIP3    H138203   2.577   5.422   4.763 -1.1344  0.2854  0.9403
 5596TIP3    H238204   2.554   5.292   4.837  2.9977 -1.2076 -0.1361
 5597TIP3   OH238205   1.986   6.456  14.642 -0.0776 -0.1919  0.3541
 5597TIP3    H138206   1.952   6.436  14.555 -0.4608 -1.6274  0.8037
 5597TIP3    H238207   2.064   6.401  14.651 -0.7934 -1.0841  1.3962
 5598TIP3   OH238208   2.741   4.670   2.658 -0.0141 -0.2131 -0.3227
 5598TIP3    H138209   2.784   4.755   2.667 -2.3197  1.3073 -2.1251
 5598TIP3    H238210   2.809   4.606   2.675  1.8467  1.9852  1.0770
 5599TIP3   OH238211   4.152   3.447  11.716  0.8573  0.1071 -0.4681
 5599TIP3    H138212   4.156   3.540  11.692  2.1629 -0.0373 -0.9313
 5599TIP3    H238213   4.244   3.422  11.727  0.5427 -1.2366 -0.7693
 5600TIP3   OH238214   1.852   0.725   4.290  0.0937 -0.3301  0.1642
 5600TIP3    H138215   1.808   0.735   4.375  0.6767 -1.9250  0.6889
 5600TIP3    H238216   1.861   0.815   4.257 -4.7588  0.1320 -0.6379
 5601TIP3   OH238217   0.843   2.250   4.477  0.3788  0.1282 -0.3457
 5601TIP3    H138218   0.930   2.286   4.494 -0.7015  2.3770  0.8095
 5601TIP3    H238219   0.785   2.326   4.477 -1.8671 -1.4892  0.8187
 5602TIP3   OH238220   2.381   2.913  17.328 -0.0113  0.1106 -0.2268
 5602TIP3    H138221   2.341   2.999  17.343  0.2500 -0.1274  2.2552
 5602TIP3    H238222   2.379   2.902  17.233 -2.3412  1.7570 -0.4540
 5603TIP3   OH238223   4.223   4.263   1.039  0.5273 -0.1955  0.6234
 5603TIP3    H138224   4.220   4.189   1.099 -0.9664 -0.7095 -0.0506
 5603TIP3    H238225   4.300   4.247   0.984 -0.6024 -2.0753 -0.5090
 5604TIP3   OH238226   6.120   4.672   3.496  0.1000 -0.5792  0.9529
 5604TIP3    H138227   6.110   4.605   3.429 -0.3745 -0.7758  1.2195
 5604TIP3    H238228   6.031   4.704   3.512  0.2224 -0.4580  1.4096
 5605TIP3   OH238229   2.242   5.612  17.231 -0.1182 -0.3900  0.1324
 5605TIP3    H138230   2.206   5.698  17.208 -0.4158 -0.5412  0.0284
 5605TIP3    H238231   2.267   5.620  17.323  0.7786  0.1201 -0.1349
 5606TIP3   OH238232   3.090   3.886   1.694 -0.3595  0.1255 -0.3873
 5606TIP3    H138233   3.179   3.906   1.666  0.2274  0.9965  1.8510
 5606TIP3    H238234   3.072   3.950   1.763 -1.4221 -2.1446  1.6002
 5607TIP3   OH238235   4.418   2.335  14.383 -0.0339 -0.0341 -0.1237
 5607TIP3    H138236   4.445   2.243  14.390  0.0167 -0.0420 -0.3826
 5607TIP3    H238237   4.450   2.362  14.296  0.5464  0.4263  0.2234
 5608TIP3   OH238238   4.387   1.157  13.396 -0.1204 -0.7725 -0.2344
 5608TIP3    H138239   4.325   1.096  13.357  0.3719 -0.8159 -0.9889
 5608TIP3    H238240   4.333   1.226  13.434 -0.6898 -1.7293  0.7505
 5609TIP3   OH238241   1.527   4.859   5.945  0.2537 -0.2930  0.3660
 5609TIP3    H138242   1.592   4.822   6.003  0.8538  2.7620  1.8352
 5609TIP3    H238243   1.467   4.907   6.003 -1.1232  0.0776 -1.2663
 5610TIP3   OH238244   5.643   3.344  11.442 -0.3352 -0.9226 -0.4241
 5610TIP3    H138245   5.624   3.391  11.360  1.5209 -0.3485 -0.5783
 5610TIP3    H238246   5.602   3.398  11.510  0.6812  0.2762 -0.7232
 5611TIP3   OH238247   3.225   3.448   1.182  0.0055  0.1318 -0.2996
 5611TIP3    H138248   3.151   3.409   1.136 -1.2533  0.8401  1.0290
 5611TIP3    H238249   3.297   3.388   1.167 -1.4661 -1.9335  0.4576
 5612TIP3   OH238250   1.647   2.228   0.314  0.1825 -0.1116  0.2250
 5612TIP3    H138251   1.634   2.307   0.366  1.3875  1.4888 -1.7362
 5612TIP3    H238252   1.734   2.197   0.340  0.6353  0.4908 -0.5029
 5613TIP3   OH238253   6.042   0.580  12.557  0.0172 -0.0377  0.3457
 5613TIP3    H138254   5.947   0.580  12.543  0.1271  0.5904 -0.4651
 5613TIP3    H238255   6.079   0.591  12.470  0.8005  1.3270  0.8210
 5614TIP3   OH238256   3.837   2.234   3.202 -0.2372 -0.0174 -0.1325
 5614TIP3    H138257   3.788   2.244   3.283 -1.3775 -0.2268 -0.7767
 5614TIP3    H238258   3.923   2.202   3.230 -1.1376 -1.6821  0.8973
 5615TIP3   OH238259   0.117   5.434  16.141 -0.7060 -0.5186 -0.2319
 5615TIP3    H138260   0.029   5.404  16.122 -0.4670 -0.3138 -1.8403
 5615TIP3    H238261   0.105   5.507  16.202 -1.7091 -0.0978 -0.8996
 5616TIP3   OH238262   2.195   2.119   3.329 -0.1093  0.5176  0.4238
 5616TIP3    H138263   2.154   2.194   3.286  0.4158 -0.6428 -2.2981
 5616TIP3    H238264   2.125   2.056   3.341 -0.2747  0.8799  1.3919
 5617TIP3   OH238265   5.057   5.576   1.114 -0.1293 -0.6569  0.7029
 5617TIP3    H138266   5.132   5.534   1.073 -0.3090 -1.3653  1.0883
 5617TIP3    H238267   5.094   5.651   1.161  0.1704 -0.2846 -0.1218
 5618TIP3   OH238268   2.604   4.485  13.678 -0.7526  0.2954  0.1001
 5618TIP3    H138269   2.520   4.445  13.702 -1.4263  1.8370  0.4521
 5618TIP3    H238270   2.665   4.412  13.672 -1.8519 -0.7326  1.0082
 5619TIP3   OH238271   3.213   3.862   5.707  1.0673  0.5081  0.0012
 5619TIP3    H138272   3.118   3.873   5.715  1.2917  1.4176  2.3634
 5619TIP3    H238273   3.228   3.847   5.614 -1.2804  1.5369 -0.6192
 5620TIP3   OH238274   0.470   2.906   2.342  0.6293  0.2314  0.5382
 5620TIP3    H138275   0.440   2.838   2.281 -0.1811  0.3546  0.7894
 5620TIP3    H238276   0.539   2.863   2.393  0.2939 -0.3365  0.5304
 5621TIP3   OH238277   3.931   2.563   2.696 -0.0039 -0.1485  0.0317
 5621TIP3    H138278   3.851   2.565   2.644 -0.1994 -0.7176  0.3113
 5621TIP3    H238279   3.992   2.511   2.645  0.7585  1.6338 -0.9780
 5622TIP3   OH238280   3.604   4.279  12.483  0.0330  0.1200  0.0760
 5622TIP3    H138281   3.553   4.237  12.553  0.1274  1.2580  0.8634
 5622TIP3    H238282   3.673   4.216  12.462 -0.8203 -0.8179  0.0278
 5623TIP3   OH238283   1.893   3.645   3.701 -0.1125 -0.4260 -0.3097
 5623TIP3    H138284   1.896   3.598   3.785 -2.2596  0.3422  0.2577
 5623TIP3    H238285   1.840   3.722   3.719 -1.4370 -0.7415 -2.6132
 5624TIP3   OH238286   0.262   5.091  14.024  0.5351  0.4479  0.0335
 5624TIP3    H138287   0.338   5.059  14.072  0.0320  0.3923  0.8050
 5624TIP3    H238288   0.299   5.142  13.952  1.2999  0.7068  0.6032
 5625TIP3   OH238289   3.787   4.403   6.024 -0.5037 -0.1945  0.6075
 5625TIP3    H138290   3.728   4.381   6.097  1.8976 -1.4886  2.2942
 5625TIP3    H238291   3.851   4.463   6.063 -0.0541  0.3439 -0.8946
 5626TIP3   OH238292   2.525   6.439  13.635  0.0805  0.0120  0.1495
 5626TIP3    H138293   2.620   6.435  13.622 -0.1300 -0.9001 -1.2546
 5626TIP3    H238294   2.507   6.369  13.698  0.3245  0.1214  0.3439
 5627TIP3   OH238295   1.769   6.209   0.697 -0.0270 -0.4732  0.2064
 5627TIP3    H138296   1.737   6.198   0.786 -0.2064  1.7090  0.4727
 5627TIP3    H238297   1.844   6.268   0.706  0.1418 -0.4655 -1.0532
 5628TIP3   OH238298   2.949   5.299  15.343  0.2800  0.0806 -0.6304
 5628TIP3    H138299   2.979   5.390  15.333 -0.6485  0.6591  1.3619
 5628TIP3    H238300   3.011   5.261  15.405 -0.5074 -0.0551  0.0698
 5629TIP3   OH238301   6.124   2.880  15.488  0.1836 -0.9192 -0.2432
 5629TIP3    H138302   6.086   2.885  15.400 -2.6245  0.1249  0.9019
 5629TIP3    H238303   6.078   2.806  15.530  0.1385 -0.2786  0.8844
 5630TIP3   OH238304   1.236   6.283   3.736  0.2342 -0.2346  0.0827
 5630TIP3    H138305   1.287   6.207   3.709 -0.3013 -0.4100 -0.4794
 5630TIP3    H238306   1.175   6.298   3.663  3.2175  3.5073 -2.0356
 5631TIP3   OH238307   1.918   1.396   5.816 -0.2379  0.2064  0.2381
 5631TIP3    H138308   1.842   1.401   5.757  0.0803  2.3179 -0.0616
 5631TIP3    H238309   1.987   1.443   5.770  1.1535 -1.2416  0.7378
 5632TIP3   OH238310   1.665   0.472   5.097  0.6916  0.1287  0.1272
 5632TIP3    H138311   1.600   0.538   5.122  0.1001 -0.5860  0.5110
 5632TIP3    H238312   1.735   0.522   5.055  0.3031  1.0095  0.5085
 5633TIP3   OH238313   2.405   5.169  14.544 -0.3958 -0.3167 -0.1763
 5633TIP3    H138314   2.358   5.113  14.606  0.3283  0.4534  1.0929
 5633TIP3    H238315   2.337   5.228  14.510 -0.5254  0.3162  1.1069
 5634TIP3   OH238316   3.148   1.317  16.273  0.3411  0.2075  0.0187
 5634TIP3    H138317   3.074   1.354  16.225 -0.3922  0.0798  1.0223
 5634TIP3    H238318   3.118   1.313  16.364  0.8728 -1.6351  0.1548
 5635TIP3   OH238319   3.852   0.804  16.907 -0.0839 -0.2801 -1.0641
 5635TIP3    H138320   3.941   0.802  16.872  0.7202  0.4080  0.8095
 5635TIP3    H238321   3.796   0.818  16.830  1.2289 -2.4749 -2.5281
 5636TIP3   OH238322   2.404   5.790  11.326 -0.3706 -0.4784 -0.2362
 5636TIP3    H138323   2.372   5.825  11.243  1.0434 -0.4100 -0.7749
 5636TIP3    H238324   2.430   5.867  11.377  0.8535 -0.6171 -0.6275
 5637TIP3   OH238325   1.673   0.408  14.876 -0.0974 -0.1449  0.0530
 5637TIP3    H138326   1.716   0.493  14.887  0.8694 -0.5153 -0.6768
 5637TIP3    H238327   1.585   0.420  14.910  0.2419  0.9655  0.5582
 5638TIP3   OH238328   6.015   4.462   4.861 -0.3643  0.8491 -0.0634
 5638TIP3    H138329   5.943   4.401   4.876 -0.1025  0.3672 -0.7308
 5638TIP3    H238330   6.092   4.416   4.894 -0.0072  0.3718 -1.4872
 5639TIP3   OH238331   1.242   5.371   6.392  0.3737  0.2073 -0.4489
 5639TIP3    H138332   1.324   5.389   6.439 -0.5604  0.4367  1.1521
 5639TIP3    H238333   1.200   5.456   6.381 -1.0575 -0.1860  1.4794
 5640TIP3   OH238334   1.837   2.923  15.475  0.7065 -0.1064  0.0513
 5640TIP3    H138335   1.757   2.906  15.525  0.5622 -0.4538 -0.2951
 5640TIP3    H238336   1.838   3.017  15.461 -0.0517 -0.1984 -0.6370
 5641TIP3   OH238337   0.755   1.547   1.572 -0.9719 -0.0624  0.2589
 5641TIP3    H138338   0.751   1.461   1.613  0.3028 -0.4569 -0.4049
 5641TIP3    H238339   0.676   1.551   1.517 -0.2065 -1.5271 -1.0395
 5642TIP3   OH238340   3.182   5.488  16.714 -0.6183 -0.4349 -0.1150
 5642TIP3    H138341   3.202   5.450  16.629  0.5983 -0.6499  0.2437
 5642TIP3    H238342   3.111   5.550  16.697 -0.6846 -0.7890 -1.1955
 5643TIP3   OH238343   1.844   1.171  10.567  0.2850  0.2302 -0.0035
 5643TIP3    H138344   1.895   1.252  10.571 -0.2119  0.5146  0.7876
 5643TIP3    H238345   1.780   1.187  10.497  1.4447 -0.2407 -1.2018
 5644TIP3   OH238346   1.697   5.948   4.564 -0.0195 -0.1906  0.6162
 5644TIP3    H138347   1.791   5.933   4.549  0.5078  2.6283  0.5414
 5644TIP3    H238348   1.661   5.958   4.476 -0.3709 -1.0662  0.6549
 5645TIP3   OH238349   3.005   2.187   0.243 -0.1923 -0.4569  0.0416
 5645TIP3    H138350   3.093   2.220   0.255  1.4349 -3.9976 -0.8048
 5645TIP3    H238351   2.982   2.208   0.153  0.5077 -0.9712 -0.2599
 5646TIP3   OH238352   5.039   1.344   5.280 -0.4823  0.2596  0.1227
 5646TIP3    H138353   5.121   1.316   5.238 -0.2638  1.2414 -0.1449
 5646TIP3    H238354   4.983   1.371   5.207 -0.2178  1.6792  0.4121
 5647TIP3   OH238355   6.434   4.761   3.484 -0.0192  1.1284 -0.1319
 5647TIP3    H138356   6.493   4.836   3.479  0.7460  0.4916 -4.3611
 5647TIP3    H238357   6.346   4.799   3.475  0.2157  1.6589 -0.2238
 5648TIP3   OH238358   3.338   2.423  10.373  0.2895 -0.7773  0.4935
 5648TIP3    H138359   3.265   2.366  10.347  0.8795 -1.3926  0.1636
 5648TIP3    H238360   3.373   2.384  10.453 -0.6268  0.3248  1.4752
 5649TIP3   OH238361   6.595   4.555   1.702 -0.6421  0.5209  0.0155
 5649TIP3    H138362   6.617   4.490   1.769 -1.5693  0.0749 -0.0927
 5649TIP3    H238363   6.512   4.524   1.664 -1.0206  1.6758 -0.1603
 5650TIP3   OH238364   2.774   2.656   2.031  0.6270  0.0798  0.0715
 5650TIP3    H138365   2.680   2.663   2.015  0.5908 -1.1013 -0.2767
 5650TIP3    H238366   2.782   2.612   2.115  0.8675  0.3594  0.1983
 5651TIP3   OH238367   3.916   2.063   5.083  0.6208 -0.1144 -0.1673
 5651TIP3    H138368   3.997   2.026   5.120  1.0348  3.4164  3.1669
 5651TIP3    H238369   3.934   2.157   5.080 -2.6325  0.5574 -1.4696
 5652TIP3   OH238370   5.850   5.953   2.505  0.0293 -0.1061 -0.5214
 5652TIP3    H138371   5.910   5.880   2.514  1.0849  0.9502  2.6646
 5652TIP3    H238372   5.763   5.914   2.519  0.6092 -0.7919  1.6658
 5653TIP3   OH238373   5.373   1.041   5.388  0.1555 -0.1098  0.2242
 5653TIP3    H138374   5.334   1.112   5.440 -0.1381  0.0008 -0.1403
 5653TIP3    H238375   5.306   1.019   5.323  0.7239  0.1166 -0.4512
 5654TIP3   OH238376   0.746   6.665  14.071 -0.0912 -0.0772 -0.0700
 5654TIP3    H138377   0.814   6.705  14.125 -0.8304  2.7408 -1.0968
 5654TIP3    H238378   0.674   6.728  14.070 -0.6920 -0.6445 -3.0760
 5655TIP3   OH238379   1.351   2.131   2.199 -0.1326 -0.4375 -0.0913
 5655TIP3    H138380   1.336   2.102   2.290 -2.1905  3.5710  1.0702
 5655TIP3    H238381   1.446   2.142   2.193 -0.0561  1.1038  2.3748
 5656TIP3   OH238382   0.473   6.671   2.871  0.3376 -0.5174  0.2151
 5656TIP3    H138383   0.503   6.612   2.941  1.7534 -1.6870 -1.2815
 5656TIP3    H238384   0.540   6.740   2.868 -1.0571  0.9701  1.6333
 5657TIP3   OH238385   1.697   1.624  16.780 -0.2127  0.0023  0.5548
 5657TIP3    H138386   1.688   1.718  16.766 -1.6971  0.0656  1.6624
 5657TIP3    H238387   1.607   1.591  16.781  0.2866 -1.4771 -0.0245
 5658TIP3   OH238388   3.363   3.175   2.794  0.2956  0.7437 -0.4128
 5658TIP3    H138389   3.323   3.213   2.872  1.6248 -0.8427  1.1352
 5658TIP3    H238390   3.291   3.129   2.750  0.1689 -1.6344  2.0305
 5659TIP3   OH238391   0.706   4.812   5.029  0.1079 -0.9674 -0.3240
 5659TIP3    H138392   0.663   4.896   5.044  1.3844 -0.4865  0.8605
 5659TIP3    H238393   0.664   4.752   5.091 -0.1612 -0.9802 -0.5166
 5660TIP3   OH238394   1.401   0.576  15.409  0.0030 -0.1859 -0.7117
 5660TIP3    H138395   1.389   0.605  15.499  0.2968 -1.0417 -0.3946
 5660TIP3    H238396   1.335   0.625  15.359 -0.9833 -0.6126  0.1420
 5661TIP3   OH238397   3.242   0.118   4.976  0.0650  0.6216 -0.4831
 5661TIP3    H138398   3.216   0.092   4.887  0.7619  0.7832 -0.7422
 5661TIP3    H238399   3.238   0.036   5.026  1.0825  0.2371 -1.0111
 5662TIP3   OH238400   3.036   5.156   1.712 -0.3447 -0.8158 -0.0141
 5662TIP3    H138401   3.115   5.103   1.717 -0.5226 -1.1773 -0.8826
 5662TIP3    H238402   3.051   5.214   1.638 -0.4330 -0.1023  0.5153
 5663TIP3   OH238403   2.201   4.033  13.054  0.5716  0.1457  0.6029
 5663TIP3    H138404   2.141   4.011  12.982  0.7481  6.3756 -2.1239
 5663TIP3    H238405   2.287   4.008  13.021  0.2674 -1.0766  0.6989
 5664TIP3   OH238406   2.206   3.814   0.860 -0.6187 -0.2804 -0.1999
 5664TIP3    H138407   2.173   3.780   0.943 -0.8951  1.6393  0.5245
 5664TIP3    H238408   2.294   3.778   0.853  0.4267  1.4935  2.2469
 5665TIP3   OH238409   5.442   0.388  13.752 -0.0715 -0.6636  0.3986
 5665TIP3    H138410   5.496   0.399  13.830 -0.5718  0.9912  0.5650
 5665TIP3    H238411   5.428   0.294  13.745  1.1569 -0.9539  1.4873
 5666TIP3   OH238412   0.750   4.569  13.295  0.3555  0.3965 -0.6920
 5666TIP3    H138413   0.810   4.527  13.234 -0.1789 -0.0487 -0.9121
 5666TIP3    H238414   0.718   4.498  13.350  0.8674  0.7957  0.1483
 5667TIP3   OH238415   1.427   3.178   1.573 -0.5935  0.5541  0.0695
 5667TIP3    H138416   1.447   3.163   1.481  1.0861 -3.0434  0.8373
 5667TIP3    H238417   1.334   3.155   1.581  0.0884 -2.9236 -0.2483
 5668TIP3   OH238418   4.531   2.596   1.335  0.4079 -0.3463  0.6332
 5668TIP3    H138419   4.455   2.609   1.278  1.3746 -0.1017 -0.6567
 5668TIP3    H238420   4.509   2.642   1.415 -0.7302 -0.1203  0.2080
 5669TIP3   OH238421   5.550   2.105   4.991 -0.0530 -0.2338  0.4746
 5669TIP3    H138422   5.556   2.031   5.052  0.5298 -1.6257 -1.1860
 5669TIP3    H238423   5.636   2.108   4.949 -0.2716  1.0133  0.0754
 5670TIP3   OH238424   0.344   5.361  17.357 -0.3236 -0.2035  0.3569
 5670TIP3    H138425   0.413   5.326  17.301 -1.4391 -2.2074  0.1422
 5670TIP3    H238426   0.324   5.447  17.319  0.5989 -0.4935 -0.8368
 5671TIP3   OH238427   3.518   0.384  15.978  0.1443  0.3302 -0.3503
 5671TIP3    H138428   3.449   0.355  15.918 -0.2676  3.5826 -1.6583
 5671TIP3    H238429   3.599   0.360  15.934 -0.1740  1.6133 -1.7506
 5672TIP3   OH238430   2.215   6.616   6.350 -0.9564  0.0026 -0.9809
 5672TIP3    H138431   2.250   6.539   6.305 -1.9503 -1.3248  0.4186
 5672TIP3    H238432   2.292   6.657   6.391 -0.6457 -1.4996  0.0477
 5673TIP3   OH238433   0.607   3.316  11.980  0.4262  0.2573 -0.0566
 5673TIP3    H138434   0.583   3.270  12.061  0.0301 -2.2067 -1.4694
 5673TIP3    H238435   0.668   3.257  11.936 -1.9581 -0.2075 -3.1265
 5674TIP3   OH238436   4.244   5.733   0.698  0.4100 -0.0048 -0.4103
 5674TIP3    H138437   4.295   5.682   0.760  1.0733 -0.6283 -1.4320
 5674TIP3    H238438   4.261   5.824   0.721  2.1117 -0.1856 -0.7909
 5675TIP3   OH238439   6.135   1.045  16.057 -0.0486  0.0685 -0.1595
 5675TIP3    H138440   6.231   1.039  16.054  0.1854  1.8911  1.7763
 5675TIP3    H238441   6.113   1.039  16.150 -1.9336 -1.1990 -0.6205
 5676TIP3   OH238442   1.943   6.336  16.812 -0.0258  0.3104 -0.0187
 5676TIP3    H138443   1.878   6.352  16.743  0.2971  0.6625 -0.2457
 5676TIP3    H238444   1.900   6.362  16.893 -0.9495 -1.4863  0.1196
 5677TIP3   OH238445   2.365   6.492   4.809  0.2047 -0.5543 -0.2730
 5677TIP3    H138446   2.400   6.516   4.723  2.2088 -1.0123  0.3593
 5677TIP3    H238447   2.437   6.447   4.853 -1.1917 -1.4975  1.1809
 5678TIP3   OH238448   0.492   6.102  13.550  0.0570  0.0634  0.5490
 5678TIP3    H138449   0.545   6.106  13.470  1.2424  1.8745  1.3603
 5678TIP3    H238450   0.410   6.145  13.526  0.7062  1.3049  0.5024
 5679TIP3   OH238451   3.937   4.464  17.328  0.6419  0.1354  0.1728
 5679TIP3    H138452   3.943   4.548  17.281  0.2455  0.0187 -0.0961
 5679TIP3    H238453   3.843   4.443  17.328  0.5663  0.3849  1.4836
 5680TIP3   OH238454   2.616   4.076  10.809  0.3927 -0.3676 -0.2081
 5680TIP3    H138455   2.540   4.077  10.867  0.9190 -1.8412  0.5619
 5680TIP3    H238456   2.632   3.983  10.793  1.1248 -0.0317 -1.5841
 5681TIP3   OH238457   4.940   0.202   0.308  0.3136 -0.3582 -0.4389
 5681TIP3    H138458   4.928   0.278   0.365 -1.6797  0.1622 -1.4636
 5681TIP3    H238459   5.013   0.154   0.347 -0.7227  0.1434  2.3345
 5682TIP3   OH238460   1.016   3.695  13.159 -0.5032 -0.1567  0.1498
 5682TIP3    H138461   1.088   3.648  13.119 -0.9024 -0.8119  0.1942
 5682TIP3    H238462   1.054   3.734  13.238  0.6324  2.2260 -1.4405
 5683TIP3   OH238463   6.141   4.423  14.686 -0.2460 -0.5680 -0.4416
 5683TIP3    H138464   6.137   4.508  14.643  2.4825  0.1362  0.4963
 5683TIP3    H238465   6.235   4.406  14.697 -0.7005 -1.7312  3.0992
 5684TIP3   OH238466   5.024   6.020  15.618 -0.1581  0.1328  0.6729
 5684TIP3    H138467   5.029   5.983  15.530  0.6919  1.4805  0.1375
 5684TIP3    H238468   5.008   5.944  15.674 -0.1491 -0.8201 -0.5667
 5685TIP3   OH238469   3.762   6.736   4.436  0.2022 -0.1484 -0.4489
 5685TIP3    H138470   3.799   6.802   4.494  0.1141  0.8536 -1.4933
 5685TIP3    H238471   3.678   6.712   4.476  0.5108 -0.0719  0.2488
 5686TIP3   OH238472   1.057   6.248   3.514 -0.4494 -0.4071  0.6597
 5686TIP3    H138473   1.013   6.312   3.569 -0.6105 -0.2529  0.3575
 5686TIP3    H238474   0.986   6.202   3.469 -0.3014  0.8683 -0.9844
 5687TIP3   OH238475   5.701   6.047  12.177  0.0315 -0.6319  0.1252
 5687TIP3    H138476   5.723   5.985  12.247  1.0652 -1.0398 -0.5316
 5687TIP3    H238477   5.785   6.086  12.153 -0.1860 -0.9988 -1.3475
 5688TIP3   OH238478   6.041   6.610   5.271  0.0046  0.6084  0.5948
 5688TIP3    H138479   5.977   6.631   5.204 -0.8847  1.2055  1.5983
 5688TIP3    H238480   6.042   6.514   5.274 -2.8345  0.5307  2.3439
 5689TIP3   OH238481   4.243   1.855  15.313 -0.2583 -0.0760 -0.0825
 5689TIP3    H138482   4.304   1.836  15.242  0.8718  0.7153  0.6478
 5689TIP3    H238483   4.218   1.947  15.299 -1.8205 -0.5685 -0.7446
 5690TIP3   OH238484   4.485   0.750  14.134  0.1653  0.1893 -0.3615
 5690TIP3    H138485   4.432   0.824  14.105 -0.4229 -0.2544 -0.4301
 5690TIP3    H238486   4.422   0.686  14.167  0.7549  0.4526  1.4058
 5691TIP3   OH238487   6.285   4.899   2.995  0.3442 -0.2612 -0.0221
 5691TIP3    H138488   6.285   4.808   2.964  0.1791  1.0131 -4.4497
 5691TIP3    H238489   6.378   4.921   3.004  0.4841 -0.2771 -1.2363
 5692TIP3   OH238490   4.088   2.090   1.257 -0.4565  0.0876  0.6626
 5692TIP3    H138491   4.027   2.063   1.326 -1.4456 -1.7968 -0.8444
 5692TIP3    H238492   4.134   2.010   1.233  0.3274  0.8360 -0.4157
 5693TIP3   OH238493   2.272   0.224  16.629 -0.1497  0.0107  0.3513
 5693TIP3    H138494   2.291   0.225  16.723  0.4315 -0.6481  0.2458
 5693TIP3    H238495   2.275   0.316  16.603 -1.5281  0.3206  1.2055
 5694TIP3   OH238496   2.500   1.437   4.839  0.1652 -0.2601  0.1982
 5694TIP3    H138497   2.424   1.394   4.878 -0.2777  0.3700  0.0430
 5694TIP3    H238498   2.535   1.492   4.909 -1.0496  1.4238 -0.4348
 5695TIP3   OH238499   0.583   3.492   3.223  0.3511 -0.1206  0.2708
 5695TIP3    H138500   0.547   3.497   3.135  1.2047  1.5547 -0.0173
 5695TIP3    H238501   0.675   3.468   3.210  0.4454 -0.0087  0.7169
 5696TIP3   OH238502   6.666   5.433   0.219  0.0168 -0.0595 -0.4306
 5696TIP3    H138503   6.665   5.383   0.137  0.5480 -1.0294  0.1292
 5696TIP3    H238504   6.720   5.381   0.278  1.2518  1.5877 -0.0446
 5697TIP3   OH238505   0.521   5.909   0.066 -0.5574  0.3465  0.0621
 5697TIP3    H138506   0.522   5.813   0.068  1.0686  0.3384  0.8085
 5697TIP3    H238507   0.613   5.933   0.074 -0.7378  1.9651 -1.8581
 5698TIP3   OH238508   6.419   5.467  13.385 -0.5579 -0.3140 -0.3024
 5698TIP3    H138509   6.364   5.439  13.312 -0.5690 -0.4114 -0.2567
 5698TIP3    H238510   6.463   5.387  13.414  0.0441 -0.1318 -0.7060
 5699TIP3   OH238511   4.516   1.148  12.916 -0.0904 -0.3296 -0.1172
 5699TIP3    H138512   4.554   1.066  12.950  1.6530  0.5543  0.2139
 5699TIP3    H238513   4.485   1.194  12.994 -1.0580 -0.6591 -0.3021
 5700TIP3   OH238514   2.318   5.378   2.538 -0.0969 -0.1294 -0.2879
 5700TIP3    H138515   2.255   5.416   2.600 -0.3780 -2.4465  0.9564
 5700TIP3    H238516   2.336   5.449   2.476 -2.9150  1.0524  0.0778
 5701TIP3   OH238517   0.193   0.176  12.663  0.6714  0.1388 -0.0807
 5701TIP3    H138518   0.107   0.135  12.662 -0.1348  1.5220  2.5213
 5701TIP3    H238519   0.244   0.127  12.599 -1.3434 -2.2508  0.0015
 5702TIP3   OH238520   0.403   5.079   2.883  0.3437 -0.2395 -0.0571
 5702TIP3    H138521   0.381   5.003   2.936 -0.8326  0.1002 -0.0296
 5702TIP3    H238522   0.402   5.046   2.793  1.5105 -0.6238  0.0533
 5703TIP3   OH238523   3.349   0.554   1.700  0.2490  0.3006 -0.2996
 5703TIP3    H138524   3.296   0.632   1.716 -1.4513 -1.1485  1.8092
 5703TIP3    H238525   3.332   0.530   1.609 -0.0746  1.7431 -0.6309
 5704TIP3   OH238526   2.405   2.848  15.043 -0.4885  0.0053  0.0567
 5704TIP3    H138527   2.477   2.799  15.003  0.6912  0.3918  1.6046
 5704TIP3    H238528   2.377   2.909  14.975  1.1966  0.3873 -0.3414
 5705TIP3   OH238529   2.471   1.207  13.954  0.4269  0.4933  0.6879
 5705TIP3    H138530   2.465   1.212  13.859 -2.8029 -0.0880  0.7463
 5705TIP3    H238531   2.465   1.297  13.984  2.0908  0.7378  0.3886
 5706TIP3   OH238532   1.612   2.638  12.030 -0.7548 -0.5087  0.3318
 5706TIP3    H138533   1.662   2.606  11.955 -0.5619  0.6468 -0.0575
 5706TIP3    H238534   1.583   2.726  12.004  1.9096  1.2445  2.7010
 5707TIP3   OH238535   1.737   0.730   3.228 -0.3972 -0.2260  0.1047
 5707TIP3    H138536   1.824   0.715   3.264 -1.1629 -1.7154  1.4582
 5707TIP3    H238537   1.695   0.789   3.291  0.0884  1.7300 -1.3257
 5708TIP3   OH238538   6.633   5.209  11.022 -0.3101  0.2846 -0.3436
 5708TIP3    H138539   6.569   5.224  10.953 -2.2851 -0.7227  1.1851
 5708TIP3    H238540   6.660   5.117  11.010 -0.2066  0.2863 -0.1253
 5709TIP3   OH238541   0.895   0.640   1.469  0.3910 -0.3792  0.0536
 5709TIP3    H138542   0.893   0.729   1.504 -0.2623 -0.3846  0.0556
 5709TIP3    H238543   0.913   0.651   1.375 -0.2630 -0.1923 -0.0615
 5710TIP3   OH238544   6.444   1.684  12.575  0.1891 -0.1975 -0.6123
 5710TIP3    H138545   6.412   1.747  12.510  1.8805 -0.1857 -1.4823
 5710TIP3    H238546   6.391   1.606  12.560 -1.7476  0.8640  0.2936
 5711TIP3   OH238547   3.955   2.820  12.465  0.5529 -0.1899  0.0985
 5711TIP3    H138548   3.923   2.839  12.377  1.3406  2.9941  0.3827
 5711TIP3    H238549   3.953   2.724  12.471 -0.1659 -0.4915 -3.1024
 5712TIP3   OH238550   1.035   2.405   0.406 -0.1424 -0.3386 -0.5939
 5712TIP3    H138551   0.996   2.367   0.327 -0.7407 -0.1440 -0.3938
 5712TIP3    H238552   1.057   2.329   0.460 -1.3340 -0.4296 -0.1976
 5713TIP3   OH238553   5.691   2.505   0.436  0.0489 -0.2649 -0.5175
 5713TIP3    H138554   5.781   2.484   0.412 -0.2376 -1.4098 -0.6239
 5713TIP3    H238555   5.690   2.601   0.442  1.8769 -0.2815  1.8396
 5714TIP3   OH238556   6.368   4.335   3.033 -0.2618  0.2861 -0.4618
 5714TIP3    H138557   6.331   4.276   3.099 -0.4376 -0.4903 -1.2402
 5714TIP3    H238558   6.458   4.351   3.063  1.2775 -3.6528 -2.2350
 5715TIP3   OH238559   1.981   4.070  14.253 -0.4344  0.3755 -0.3071
 5715TIP3    H138560   1.975   4.165  14.244 -1.7136  0.2128 -1.5696
 5715TIP3    H238561   1.954   4.052  14.343  0.5719  1.2432  0.1863
 5716TIP3   OH238562   6.380   0.608  14.549 -0.2254  0.2448  0.5878
 5716TIP3    H138563   6.287   0.621  14.535 -0.1102  0.9107  0.3986
 5716TIP3    H238564   6.396   0.517  14.524 -1.1242 -0.4091  2.2903
 5717TIP3   OH238565   6.603   3.694   3.435 -1.0343 -0.6048  0.3338
 5717TIP3    H138566   6.601   3.605   3.469  0.2798 -1.2689 -1.1639
 5717TIP3    H238567   6.536   3.694   3.366 -1.5660 -0.1832  0.8395
 5718TIP3   OH238568   6.678   5.462  11.650  0.3240  0.2247  0.0242
 5718TIP3    H138569   6.713   5.414  11.574  1.3807  3.9642 -2.1422
 5718TIP3    H238570   6.589   5.484  11.625 -0.0543 -0.3287  0.8652
 5719TIP3   OH238571   4.709   2.105  14.132  0.7970 -0.7426 -0.0418
 5719TIP3    H138572   4.618   2.130  14.115  1.6525  0.8555 -3.0539
 5719TIP3    H238573   4.734   2.052  14.056  1.8965 -2.8705  1.6766
 5720TIP3   OH238574   1.930   1.182  13.039 -0.6316  0.7904  0.8395
 5720TIP3    H138575   2.025   1.186  13.038 -0.6353  3.3231  2.1453
 5720TIP3    H238576   1.909   1.089  13.025  1.9679  0.2448  0.0679
 5721TIP3   OH238577   1.680   4.630  16.823 -0.1689 -0.3221  0.0042
 5721TIP3    H138578   1.761   4.597  16.783 -0.5793 -2.5477  0.8795
 5721TIP3    H238579   1.709   4.685  16.895  0.5484  0.3157 -0.7523
 5722TIP3   OH238580   2.847   2.780  13.849  0.0033  0.1042 -0.3044
 5722TIP3    H138581   2.798   2.825  13.780 -1.8278 -1.2862  0.0139
 5722TIP3    H238582   2.896   2.712  13.804  0.9203  0.8947 -0.5185
 5723TIP3   OH238583   2.791   5.017   1.529  0.3661  0.4501  0.0086
 5723TIP3    H138584   2.874   5.036   1.485  0.6858 -1.9311 -0.5028
 5723TIP3    H238585   2.812   4.951   1.594 -1.0773  0.0469  0.1028
 5724TIP3   OH238586   0.326   0.483   3.649 -0.2035 -0.9577 -0.2604
 5724TIP3    H138587   0.359   0.564   3.610  1.0408 -0.3274  1.9420
 5724TIP3    H238588   0.231   0.492   3.645 -0.1502 -0.7780 -2.7065
 5725TIP3   OH238589   3.401   0.905   0.804 -0.5034  0.0354 -0.5944
 5725TIP3    H138590   3.339   0.833   0.816  0.3787 -0.9628 -1.7574
 5725TIP3    H238591   3.389   0.932   0.713  2.4534 -1.9193 -1.7240
 5726TIP3   OH238592   3.441   2.848  12.446 -0.2328 -0.2124 -0.4160
 5726TIP3    H138593   3.377   2.843  12.518 -1.0541 -0.8171 -1.1626
 5726TIP3    H238594   3.454   2.757  12.420  0.1761 -0.0057 -0.9378
 5727TIP3   OH238595   2.164   4.871  13.729  0.2407  0.2963  0.1426
 5727TIP3    H138596   2.192   4.914  13.648  3.0083 -1.3626  0.0978
 5727TIP3    H238597   2.164   4.778  13.709 -1.0011 -0.0611  1.5509
 5728TIP3   OH238598   5.049   6.175  12.080 -0.4562  0.1353  0.1792
 5728TIP3    H138599   5.130   6.175  12.029 -0.5440 -0.0887  0.0357
 5728TIP3    H238600   5.075   6.141  12.166 -0.3086  0.5070  0.2801
 5729TIP3   OH238601   6.169   4.804   1.937  0.4242 -0.3621 -0.4291
 5729TIP3    H138602   6.245   4.813   1.994 -0.9431  0.6146  1.3174
 5729TIP3    H238603   6.179   4.874   1.872  0.5502  0.3427  0.3429
 5730TIP3   OH238604   4.289   5.870  16.797  0.7465  0.2772  0.0997
 5730TIP3    H138605   4.303   5.965  16.796 -1.4614  0.6506 -0.9735
 5730TIP3    H238606   4.294   5.846  16.890  0.0357  1.6782  0.5261
 5731TIP3   OH238607   2.038   4.924  15.128  0.0307 -0.0132 -0.2869
 5731TIP3    H138608   1.986   4.845  15.144  0.7164 -0.3149  0.4718
 5731TIP3    H238609   1.998   4.963  15.050 -0.2475 -1.1662 -0.7397
 5732TIP3   OH238610   5.129   4.602   3.151 -0.7622 -0.2165  0.4815
 5732TIP3    H138611   5.199   4.575   3.092 -0.7065 -1.3981  1.0399
 5732TIP3    H238612   5.061   4.535   3.140 -1.5525  0.5828  0.3866
 5733TIP3   OH238613   1.652   6.466  13.817  0.6298 -0.1390 -0.1702
 5733TIP3    H138614   1.658   6.562  13.820  0.0926 -0.1117  0.2221
 5733TIP3    H238615   1.654   6.440  13.909  0.6847 -0.4977 -0.2755
 5734TIP3   OH238616   3.425   4.500   1.056 -0.3863 -0.7470 -0.4524
 5734TIP3    H138617   3.435   4.441   1.131 -0.8437  0.5474  0.6807
 5734TIP3    H238618   3.515   4.517   1.027 -0.1768 -0.9704  0.0459
 5735TIP3   OH238619   5.762   2.687  13.363  0.5108  0.6555 -0.4542
 5735TIP3    H138620   5.826   2.721  13.425  2.3680 -1.3591 -1.1540
 5735TIP3    H238621   5.813   2.659  13.287 -1.3215  0.0048 -1.5315
 5736TIP3   OH238622   0.473   3.559  11.361 -0.0995  0.6849 -0.4081
 5736TIP3    H138623   0.493   3.625  11.428 -1.2139 -0.0055  0.6468
 5736TIP3    H238624   0.538   3.490  11.376  0.0478  0.8122 -0.4561
 5737TIP3   OH238625   3.142   4.237   0.114 -0.3859  0.4691 -0.2463
 5737TIP3    H138626   3.124   4.331   0.120 -0.7867  0.4579 -1.1247
 5737TIP3    H238627   3.090   4.198   0.184 -0.3826  0.8821 -0.0128
 5738TIP3   OH238628   3.642   1.547   2.345 -0.3019  0.7986  0.1873
 5738TIP3    H138629   3.736   1.564   2.351 -0.3096  1.1603 -0.6390
 5738TIP3    H238630   3.602   1.634   2.333 -0.9411  0.9026  2.4758
 5739TIP3   OH238631   1.603   6.601   3.966  0.4979 -0.8462 -0.1498
 5739TIP3    H138632   1.547   6.659   4.018  1.6249  0.7694 -0.6769
 5739TIP3    H238633   1.565   6.603   3.879  1.7041  0.8561 -0.7026
 5740TIP3   OH238634   3.379   2.545  14.231  0.4294 -0.1582  0.0226
 5740TIP3    H138635   3.415   2.462  14.199  4.0446  1.1010  0.3596
 5740TIP3    H238636   3.427   2.562  14.312 -0.4303  2.1047  0.1265
 5741TIP3   OH238637   0.407   1.150  12.150 -0.0071 -0.2439  0.4327
 5741TIP3    H138638   0.353   1.213  12.102 -0.1993 -0.3077  0.5668
 5741TIP3    H238639   0.497   1.169  12.121 -0.0882 -0.0623  0.2983
 5742TIP3   OH238640   5.108   3.406   2.976 -0.2857 -0.1984  0.2655
 5742TIP3    H138641   5.161   3.453   3.040 -0.8327 -0.3640  0.8429
 5742TIP3    H238642   5.021   3.446   2.983 -0.7692 -1.3050  0.7803
 5743TIP3   OH238643   1.316   1.065  17.192  0.0401  1.2273 -0.2461
 5743TIP3    H138644   1.340   1.153  17.220  1.4700  0.6601  0.4689
 5743TIP3    H238645   1.345   1.060  17.101 -2.2429  2.2366 -1.0924
 5744TIP3   OH238646   2.902   3.488   1.690 -0.0984  0.4115 -0.3063
 5744TIP3    H138647   2.975   3.426   1.698 -0.5911 -0.0687  0.7698
 5744TIP3    H238648   2.823   3.434   1.696 -0.5491  1.1618  1.2009
 5745TIP3   OH238649   1.518   3.394   2.762  0.5082 -0.1702 -0.1906
 5745TIP3    H138650   1.598   3.350   2.792  0.9022  0.3956 -0.4148
 5745TIP3    H238651   1.548   3.460   2.700  0.0074  1.0436  0.8103
 5746TIP3   OH238652   4.573   3.855  10.470 -0.2638  0.6279  0.1941
 5746TIP3    H138653   4.630   3.929  10.488  1.0043  0.0831 -1.3023
 5746TIP3    H238654   4.631   3.791  10.428 -2.1505  0.4392 -2.3296
 5747TIP3   OH238655   3.668   0.715   0.362 -0.2579 -0.1211  0.0401
 5747TIP3    H138656   3.690   0.645   0.424 -0.3683 -0.5750 -0.4323
 5747TIP3    H238657   3.579   0.697   0.335 -0.1865  0.0412 -0.3075
 5748TIP3   OH238658   3.141   1.980  14.352  0.5231 -0.0573  0.8287
 5748TIP3    H138659   3.210   1.968  14.287  1.3058 -2.2998  1.9559
 5748TIP3    H238660   3.061   1.991  14.301  0.9356 -2.7704 -0.6013
 5749TIP3   OH238661   0.327   4.694   4.428  0.2202 -0.0364 -0.5558
 5749TIP3    H138662   0.264   4.747   4.380 -0.5612 -0.5141 -0.0763
 5749TIP3    H238663   0.305   4.708   4.520  0.4906 -0.5976 -0.3975
 5750TIP3   OH238664   1.467   5.911  16.037 -1.1216 -0.1653  1.0982
 5750TIP3    H138665   1.380   5.900  15.998  0.2500 -0.5088 -2.1834
 5750TIP3    H238666   1.509   5.826  16.026 -0.1866  0.1281  2.2172
 5751TIP3   OH238667   4.706   6.087  13.552  0.3071 -0.2183 -0.2510
 5751TIP3    H138668   4.785   6.034  13.560 -1.3793 -2.8547  0.3121
 5751TIP3    H238669   4.691   6.122  13.639 -0.4496 -1.8423  0.3127
 5752TIP3   OH238670   0.839   3.600  13.562  0.6336  0.1731  0.0097
 5752TIP3    H138671   0.903   3.550  13.513  2.5257  1.7091  0.7656
 5752TIP3    H238672   0.890   3.648  13.627 -1.1182  2.4700 -0.1649
 5753TIP3   OH238673   1.954   6.747  13.189  0.2524  0.4331 -0.2571
 5753TIP3    H138674   1.862   6.753  13.164  0.1268 -2.1823 -0.7715
 5753TIP3    H238675   1.982   6.838  13.203 -1.3207  1.6531 -3.9580
 5754TIP3   OH238676   4.727   5.694   5.487  0.3691  0.3879  0.5806
 5754TIP3    H138677   4.760   5.604   5.483 -1.0027 -0.1258  0.2603
 5754TIP3    H238678   4.777   5.741   5.421 -0.1958 -0.5988 -0.5914
 5755TIP3   OH238679   4.426   6.676   5.523  0.3603  0.1861  0.0049
 5755TIP3    H138680   4.513   6.712   5.505  0.8987 -1.7553 -1.7097
 5755TIP3    H238681   4.378   6.690   5.441 -0.4750 -0.0438  0.4522
 5756TIP3   OH238682   5.459   6.214   3.213 -0.3053  0.0456  0.6604
 5756TIP3    H138683   5.424   6.272   3.280 -0.5670  0.1755  0.4181
 5756TIP3    H238684   5.465   6.129   3.255  0.2352  0.2840  1.0655
 5757TIP3   OH238685   2.519   3.855  15.886 -0.3175 -0.8283 -0.6074
 5757TIP3    H138686   2.456   3.821  15.949  0.8945 -0.1874  1.0231
 5757TIP3    H238687   2.552   3.936  15.926 -0.1015  0.0499 -2.4635
 5758TIP3   OH238688   3.596   2.699   3.718 -0.4446  0.2495  0.3685
 5758TIP3    H138689   3.642   2.715   3.801  1.2441  0.2278 -0.5092
 5758TIP3    H238690   3.592   2.786   3.677 -2.3862  0.4892  0.9665
 5759TIP3   OH238691   0.503   5.821  11.665 -0.0722  0.8036 -0.2076
 5759TIP3    H138692   0.505   5.849  11.757 -2.0318  1.3675 -0.2970
 5759TIP3    H238693   0.412   5.832  11.638 -0.6632 -3.6096 -0.9115
 5760TIP3   OH238694   1.117   5.925  15.490 -0.2065 -0.0532  0.2071
 5760TIP3    H138695   1.209   5.929  15.515  0.0469  0.1040 -0.7219
 5760TIP3    H238696   1.070   5.959  15.566  0.5558  0.6735  0.3653
 5761TIP3   OH238697   0.507   1.575   0.186 -0.3968 -0.3884  0.3881
 5761TIP3    H138698   0.576   1.551   0.125 -0.4253 -1.9453  0.9108
 5761TIP3    H238699   0.435   1.515   0.166  0.1160 -2.0070  2.8257
 5762TIP3   OH238700   4.547   4.412   5.895 -0.1710 -0.5692 -0.7235
 5762TIP3    H138701   4.538   4.505   5.918 -1.4018 -0.8949  0.1721
 5762TIP3    H238702   4.641   4.396   5.903  0.2066  0.8256 -1.8498
 5763TIP3   OH238703   4.555   2.757  12.921  0.2272 -0.6198 -0.0151
 5763TIP3    H138704   4.621   2.825  12.924  0.2851 -0.6358 -0.6394
 5763TIP3    H238705   4.574   2.701  12.996  0.0982  0.1154  0.5763
 5764TIP3   OH238706   1.473   6.604   5.588 -0.1284  0.4387 -0.2166
 5764TIP3    H138707   1.460   6.510   5.599 -0.2353  0.3199 -1.3102
 5764TIP3    H238708   1.385   6.641   5.590 -0.2736  0.2593 -1.9408
 5765TIP3   OH238709   3.181   5.896   0.748 -0.3013  0.1909 -0.3922
 5765TIP3    H138710   3.143   5.944   0.822 -0.5736  0.7867 -0.9086
 5765TIP3    H238711   3.202   5.809   0.784 -2.6752 -0.3783 -0.1973
 5766TIP3   OH238712   1.448   1.037  16.918  0.1695 -0.2988 -0.4486
 5766TIP3    H138713   1.449   1.091  16.839  2.3697  3.3722  1.7934
 5766TIP3    H238714   1.533   0.994  16.919  1.2382  1.6877  1.0025
 5767TIP3   OH238715   2.712   4.333   2.189  0.6593 -0.2653 -0.1605
 5767TIP3    H138716   2.789   4.278   2.177  0.0223 -1.2037 -0.0738
 5767TIP3    H238717   2.640   4.282   2.151  0.2059  0.9636 -1.0246
 5768TIP3   OH238718   0.703   3.776  16.564  0.0369  0.3803  0.0036
 5768TIP3    H138719   0.626   3.828  16.589  0.6221  0.8335  0.9108
 5768TIP3    H238720   0.774   3.839  16.560  1.0748 -0.5106  2.5859
 5769TIP3   OH238721   4.899   5.000   2.112 -0.4079 -0.3432 -0.5013
 5769TIP3    H138722   4.853   4.917   2.096  0.1037 -0.7484  0.0856
 5769TIP3    H238723   4.966   4.978   2.177 -0.4259  0.5875 -0.1545
 5770TIP3   OH238724   1.385   0.962  11.977 -0.1297 -0.3603 -0.2895
 5770TIP3    H138725   1.454   0.923  11.924  0.3136  1.0088 -0.7677
 5770TIP3    H238726   1.426   0.974  12.063  0.8209  1.9054 -0.9891
 5771TIP3   OH238727   1.390   4.273  15.490  0.3089 -0.2806 -0.0512
 5771TIP3    H138728   1.477   4.303  15.516  1.0481 -1.9440 -0.4680
 5771TIP3    H238729   1.365   4.209  15.557  0.7665 -2.0591 -1.4786
 5772TIP3   OH238730   6.498   3.426   0.508  0.3929  0.1213  0.3953
 5772TIP3    H138731   6.423   3.399   0.560  1.2100 -1.4914  0.8042
 5772TIP3    H238732   6.482   3.389   0.421 -0.8178  2.5487 -0.5307
 5773TIP3   OH238733   5.367   3.996   2.066 -0.3347 -0.5059 -0.5074
 5773TIP3    H138734   5.409   4.082   2.066  0.1885 -0.7575 -0.7744
 5773TIP3    H238735   5.341   3.982   1.976 -2.2597  0.2371 -0.1179
 5774TIP3   OH238736   0.884   2.071  12.369 -0.0023 -0.0052 -0.4447
 5774TIP3    H138737   0.958   2.108  12.418 -0.0973 -0.9817  0.4558
 5774TIP3    H238738   0.828   2.031  12.435 -1.0410  0.1920 -1.1829
 5775TIP3   OH238739   6.660   6.448  16.507 -0.0137  0.1304 -0.4909
 5775TIP3    H138740   6.608   6.528  16.517  1.3046  0.8450  1.1633
 5775TIP3    H238741   6.678   6.442  16.413 -0.7884  1.3543 -0.7349
 5776TIP3   OH238742   3.178   5.237   3.620  0.0017  0.2375  0.7346
 5776TIP3    H138743   3.097   5.277   3.588  0.6926  1.5349  0.5654
 5776TIP3    H238744   3.178   5.254   3.714  0.2992  0.6694  0.6612
 5777TIP3   OH238745   4.707   6.068  17.218  0.7767  0.2170  0.3061
 5777TIP3    H138746   4.722   5.975  17.235 -0.4275 -0.1221 -0.3590
 5777TIP3    H238747   4.634   6.069  17.156 -1.0864  1.6717  2.3792
 5778TIP3   OH238748   1.148   0.499  15.824 -0.3259 -0.5878  0.2760
 5778TIP3    H138749   1.092   0.572  15.797  1.0403 -0.3266 -2.1750
 5778TIP3    H238750   1.149   0.504  15.919  0.4601  3.2343  0.2467
 5779TIP3   OH238751   6.425   0.834   5.263  0.1945 -0.0487 -0.7847
 5779TIP3    H138752   6.387   0.747   5.272  0.6729 -0.2479 -0.6458
 5779TIP3    H238753   6.360   0.884   5.213  0.8087 -1.0604 -2.6868
 5780TIP3   OH238754   2.255   2.092  15.447 -0.0625 -0.5225  0.5214
 5780TIP3    H138755   2.324   2.138  15.399 -0.6399  1.5979  1.5943
 5780TIP3    H238756   2.268   2.000  15.425  0.8709  0.1510 -2.1283
 5781TIP3   OH238757   0.696   4.952   1.923 -0.1169  0.3070  0.6646
 5781TIP3    H138758   0.755   4.933   1.849  0.2948 -0.8240  1.2589
 5781TIP3    H238759   0.712   4.881   1.985  1.2842  2.4158  2.9375
 5782TIP3   OH238760   0.020   6.109  16.469  0.0596  0.2796  0.0747
 5782TIP3    H138761  -0.040   6.148  16.532  0.6134  1.5528 -0.1534
 5782TIP3    H238762  -0.017   6.022  16.451  1.3626 -1.3444  4.2340
 5783TIP3   OH238763   5.362   2.784  14.701 -0.3677 -0.3335  0.3825
 5783TIP3    H138764   5.321   2.869  14.719 -0.5404 -0.5381  0.9640
 5783TIP3    H238765   5.453   2.806  14.679 -0.5927  0.0565 -0.1927
 5784TIP3   OH238766   3.518   4.834   3.523 -0.4905  0.5458 -0.2657
 5784TIP3    H138767   3.498   4.927   3.510 -2.0631  0.5150  1.5602
 5784TIP3    H238768   3.436   4.796   3.553  0.9286 -0.7703  2.2221
 5785TIP3   OH238769   5.675   1.293  13.803  0.3040 -0.1047 -0.0744
 5785TIP3    H138770   5.686   1.331  13.716 -0.3205 -0.9812 -0.5453
 5785TIP3    H238771   5.584   1.261  13.805  0.9176 -1.9557  0.1417
 5786TIP3   OH238772   1.645   0.899   3.421  0.1046 -0.0917  0.0845
 5786TIP3    H138773   1.552   0.920   3.411  0.6697  2.4890 -0.4180
 5786TIP3    H238774   1.660   0.903   3.516  0.0982  1.5546  0.0348
 5787TIP3   OH238775   3.255   3.131  16.953 -0.2085  0.3949  0.2104
 5787TIP3    H138776   3.265   3.156  17.045  0.4863 -0.0737  0.2753
 5787TIP3    H238777   3.344   3.138  16.917 -0.6500  1.5918 -0.6975
 5788TIP3   OH238778   0.350   3.450  13.244 -0.3664  0.2152  0.4731
 5788TIP3    H138779   0.334   3.542  13.263 -2.3286  0.2549 -1.0278
 5788TIP3    H238780   0.387   3.449  13.156 -0.0962 -0.4307  0.5827
 5789TIP3   OH238781   3.100   6.448   5.838 -0.0622  0.9258  0.1885
 5789TIP3    H138782   3.008   6.475   5.832 -0.8883 -1.8559 -1.9458
 5789TIP3    H238783   3.122   6.457   5.931 -3.6633 -1.4991  1.5135
 5790TIP3   OH238784   2.852   4.044   4.793  0.7538 -0.4980 -0.8051
 5790TIP3    H138785   2.797   4.084   4.725  1.0450  1.2472 -0.0674
 5790TIP3    H238786   2.802   3.967   4.822 -0.4861  0.0757 -1.3393
 5791TIP3   OH238787   2.978   3.674   2.590  0.0475  0.3018 -0.0047
 5791TIP3    H138788   3.024   3.593   2.612  0.1343  0.3714  0.0686
 5791TIP3    H238789   2.937   3.702   2.672  0.6225  0.7235  0.1435
 5792TIP3   OH238790   2.439   6.456   0.489  0.0623 -0.3675  0.1169
 5792TIP3    H138791   2.359   6.404   0.499 -0.1938 -0.2341 -1.0104
 5792TIP3    H238792   2.509   6.399   0.517 -0.3654 -0.7598  0.3977
 5793TIP3   OH238793   0.392   2.659   4.139  0.2346  0.0502 -0.1857
 5793TIP3    H138794   0.326   2.610   4.188  1.1258 -1.0391 -0.0409
 5793TIP3    H238795   0.343   2.701   4.068 -0.5145 -1.3633 -0.5401
 5794TIP3   OH238796   2.759   3.296  13.661  0.2693  0.2854  0.3850
 5794TIP3    H138797   2.695   3.336  13.601  0.9994 -1.0572 -1.3910
 5794TIP3    H238798   2.801   3.228  13.608  2.0088  0.0289  2.0119
 5795TIP3   OH238799   2.908   5.495   2.550 -0.2754 -0.5949  0.4565
 5795TIP3    H138800   2.939   5.579   2.583 -0.7211 -0.6930  1.1445
 5795TIP3    H238801   2.967   5.474   2.478 -1.2151  1.1450 -0.8759
 5796TIP3   OH238802   3.962   1.835  12.587 -0.2015 -0.1282  0.1756
 5796TIP3    H138803   3.876   1.848  12.628 -0.6141  0.4396 -0.8095
 5796TIP3    H238804   3.955   1.749  12.545 -0.2418 -0.1462  0.2189
 5797TIP3   OH238805   4.160   3.021   5.699  0.5299 -0.9048 -0.5207
 5797TIP3    H138806   4.122   2.995   5.615  0.2370 -0.4285 -0.5385
 5797TIP3    H238807   4.128   2.956   5.761 -0.4747 -0.4086 -0.4988
 5798TIP3   OH238808   0.118   2.726  13.574 -0.1768  0.2251 -0.0626
 5798TIP3    H138809   0.074   2.653  13.616  0.5702  0.0939  0.4906
 5798TIP3    H238810   0.205   2.694  13.553 -0.7237  0.0382 -2.3808
 5799TIP3   OH238811   1.116   6.310   5.542 -0.1192 -0.0052  0.1894
 5799TIP3    H138812   1.124   6.383   5.481  2.7805 -0.4748 -0.1332
 5799TIP3    H238813   1.081   6.238   5.490 -1.3159  0.6236  0.0859
 5800TIP3   OH238814   2.694   5.497   0.052 -0.0597 -0.0175  0.2710
 5800TIP3    H138815   2.779   5.529   0.020 -0.5287 -0.0518 -1.0374
 5800TIP3    H238816   2.660   5.569   0.106  0.9384 -0.1336  1.0970
 5801TIP3   OH238817   0.288   2.067  14.285  0.3236 -0.6595 -0.3855
 5801TIP3    H138818   0.355   2.126  14.320  0.7374 -0.4037 -1.5534
 5801TIP3    H238819   0.329   2.028  14.208 -1.2552  0.3411 -1.7891
 5802TIP3   OH238820   3.618   0.653   4.104 -0.4211 -0.0394 -0.5430
 5802TIP3    H138821   3.682   0.606   4.157  0.2594  2.9571  1.5881
 5802TIP3    H238822   3.548   0.677   4.165 -0.3254  2.3118 -1.2307
 5803TIP3   OH238823   1.515   0.188   6.106  0.3990 -0.0110 -0.1934
 5803TIP3    H138824   1.522   0.273   6.148  0.8277 -0.6529  1.0749
 5803TIP3    H238825   1.580   0.190   6.036  1.0180  0.3833  0.3875
 5804TIP3   OH238826   6.167   4.073  13.779 -0.4434  0.3709 -0.3675
 5804TIP3    H138827   6.175   3.978  13.776 -1.3524  0.2674  0.3426
 5804TIP3    H238828   6.182   4.096  13.870 -2.4953  0.6705 -0.0548
 5805TIP3   OH238829   5.645   3.429   5.687  0.3783 -0.5485  0.2903
 5805TIP3    H138830   5.736   3.459   5.695  0.4473  0.0323 -2.0912
 5805TIP3    H238831   5.652   3.339   5.655  0.1118 -0.3191 -0.4147
 5806TIP3   OH238832   3.949   4.859  12.408  0.3090 -0.1065  0.0127
 5806TIP3    H138833   3.931   4.891  12.320 -1.8031  0.9264  0.7629
 5806TIP3    H238834   3.875   4.803  12.429 -0.1591  1.1011  1.7902
 5807TIP3   OH238835   4.067   3.484   6.243 -0.5403 -0.3240  0.1538
 5807TIP3    H138836   4.076   3.573   6.210 -1.2042 -0.4514 -0.4023
 5807TIP3    H238837   4.157   3.452   6.250 -0.2500  0.6273  1.0691
 5808TIP3   OH238838   3.134   2.609  12.877  0.1394  0.5255  0.0210
 5808TIP3    H138839   3.155   2.702  12.884 -2.2612  1.1985 -0.9342
 5808TIP3    H238840   3.061   2.596  12.938 -0.9184 -0.2257 -1.3425
 5809TIP3   OH238841   3.925   3.496  11.557  0.7191  0.3379  0.0875
 5809TIP3    H138842   3.939   3.581  11.599  0.6095  0.3098  0.1827
 5809TIP3    H238843   4.001   3.444  11.583  0.6191  0.2987  0.3104
 5810TIP3   OH238844   1.847   5.821   1.992  0.1568  0.1032 -0.8939
 5810TIP3    H138845   1.865   5.749   2.053  0.8348  0.8569 -0.1907
 5810TIP3    H238846   1.921   5.881   2.002 -0.2197  0.7361 -1.7349
 5811TIP3   OH238847   5.135   2.980  10.937  0.5568 -0.0908  0.4906
 5811TIP3    H138848   5.050   2.942  10.917 -0.1533  0.5872  2.0084
 5811TIP3    H238849   5.152   2.954  11.028  2.4701 -1.0698 -0.0816
 5812TIP3   OH238850   0.624   1.327  15.771 -0.3099  0.0255 -0.0473
 5812TIP3    H138851   0.578   1.251  15.735  0.6587 -0.8284  0.4410
 5812TIP3    H238852   0.715   1.297  15.781 -0.1290  0.8930  1.1569
 5813TIP3   OH238853   3.390   4.472  14.082  0.0009 -0.5059  0.2653
 5813TIP3    H138854   3.457   4.431  14.137 -1.1503 -0.8497  1.4647
 5813TIP3    H238855   3.354   4.543  14.135 -0.2380  0.0187 -0.5659
 5814TIP3   OH238856   1.202   0.780  16.990  0.6073 -0.2075 -0.0302
 5814TIP3    H138857   1.251   0.729  17.055  0.5229 -0.1391  0.0873
 5814TIP3    H238858   1.268   0.807  16.926  0.7757  0.1164  0.2717
 5815TIP3   OH238859   5.729   3.966   1.233  0.0620  0.6013  0.5688
 5815TIP3    H138860   5.765   4.021   1.302  1.0000  0.6460  0.0541
 5815TIP3    H238861   5.634   3.971   1.246  0.1042  2.4097  0.4882
 5816TIP3   OH238862   1.826   0.502   1.447 -0.1914  0.3302 -0.2911
 5816TIP3    H138863   1.852   0.582   1.402 -0.3810 -0.2321 -1.4338
 5816TIP3    H238864   1.855   0.514   1.537  0.1266  1.5179 -0.5447
 5817TIP3   OH238865   6.425   5.591   3.126 -0.1674 -0.5789  0.0993
 5817TIP3    H138866   6.466   5.656   3.183  0.1231 -0.0666 -0.6792
 5817TIP3    H238867   6.355   5.553   3.179  1.2769 -1.4386  1.4484
 5818TIP3   OH238868   6.699   5.597   5.817 -0.1757  0.2200  0.2887
 5818TIP3    H138869   6.780   5.645   5.830 -1.0279  1.3865  1.6444
 5818TIP3    H238870   6.669   5.624   5.730 -0.5117  2.0302  0.9192
 5819TIP3   OH238871   2.188   0.592   0.918 -0.5133 -0.1577  0.2826
 5819TIP3    H138872   2.125   0.643   0.969 -2.2246 -1.4215 -0.4806
 5819TIP3    H238873   2.216   0.651   0.848 -3.0610 -0.4001 -1.0631
 5820TIP3   OH238874   1.705   5.012  15.396 -0.5503 -0.1044 -0.3475
 5820TIP3    H138875   1.700   5.094  15.348  1.4652  1.3916  1.7618
 5820TIP3    H238876   1.772   4.960  15.350  2.2087  1.7695  1.2433
 5821TIP3   OH238877   1.168   5.653   1.026  0.0865 -0.0142 -0.0160
 5821TIP3    H138878   1.183   5.725   0.964  0.1966  0.3634  0.4461
 5821TIP3    H238879   1.244   5.596   1.014  0.0011 -0.0548 -0.3825
 5822TIP3   OH238880   6.111   2.407   2.508 -0.3844 -0.5420 -0.9934
 5822TIP3    H138881   6.071   2.322   2.488 -1.4554 -0.0955 -0.8023
 5822TIP3    H238882   6.133   2.444   2.423 -1.1043 -0.4601 -1.1519
 5823TIP3   OH238883   1.045   0.401  12.575  0.5246  0.8266 -0.1260
 5823TIP3    H138884   1.066   0.320  12.622  4.4374  1.3164 -0.7297
 5823TIP3    H238885   1.120   0.416  12.519 -1.4442  3.3494 -2.3063
 5824TIP3   OH238886   3.180   5.871   4.480 -0.2716  0.0588 -0.5368
 5824TIP3    H138887   3.260   5.923   4.477  0.1760 -0.6365 -1.0044
 5824TIP3    H238888   3.183   5.826   4.564  0.8427 -1.4993 -1.3673
 5825TIP3   OH238889   4.261   3.470   2.656 -0.1849  0.1278  0.1228
 5825TIP3    H138890   4.277   3.376   2.648 -0.1310  0.1876 -0.5190
 5825TIP3    H238891   4.179   3.476   2.706  1.5830 -0.1771  3.3811
 5826TIP3   OH238892   1.417   4.586  16.519  0.5812  0.3715  0.2264
 5826TIP3    H138893   1.436   4.659  16.577  0.9099 -0.4141  1.1421
 5826TIP3    H238894   1.341   4.614  16.468  0.0258  0.9231  1.3304
 5827TIP3   OH238895   0.725   1.584  10.751 -0.0125  0.1427  0.2020
 5827TIP3    H138896   0.739   1.573  10.657  0.8968  0.7192  0.2611
 5827TIP3    H238897   0.633   1.609  10.759 -0.6152 -1.7444 -0.3635
 5828TIP3   OH238898   2.639   0.089  17.181 -0.0662 -0.1883  0.1728
 5828TIP3    H138899   2.555   0.056  17.215  0.7462 -0.7994  1.7077
 5828TIP3    H238900   2.616   0.133  17.100 -1.8058 -0.8259  0.2637
 5829TIP3   OH238901   4.639   4.605  12.403 -0.1155 -0.1474 -0.2312
 5829TIP3    H138902   4.574   4.604  12.333 -1.1509 -1.3383  0.7007
 5829TIP3    H238903   4.628   4.690  12.446 -1.0069 -0.2956 -0.1472
 5830TIP3   OH238904   4.086   4.401  14.826 -0.2684 -0.3123  1.1487
 5830TIP3    H138905   4.065   4.386  14.918  1.0263  0.8968  1.6832
 5830TIP3    H238906   4.171   4.359  14.814 -0.9728 -1.5191  0.1520
 5831TIP3   OH238907   3.980   4.246  11.156  0.0912 -0.1517 -0.0510
 5831TIP3    H138908   3.997   4.193  11.234  0.5771 -2.1714 -1.4557
 5831TIP3    H238909   3.897   4.212  11.122  0.4295 -0.0607 -0.9968
 5832TIP3   OH238910   1.036   4.238  13.887 -0.3537  0.5944  0.1501
 5832TIP3    H138911   1.073   4.322  13.914  0.8700  0.0543  0.2476
 5832TIP3    H238912   1.056   4.179  13.960 -1.0499  0.1794  0.0136
 5833TIP3   OH238913   4.331   5.728  14.876  0.1762  0.2439  0.1335
 5833TIP3    H138914   4.374   5.806  14.912 -0.3206  0.7028 -0.2356
 5833TIP3    H238915   4.304   5.755  14.788  0.6246 -0.5830 -0.2694
 5834TIP3   OH238916   5.343   0.546   1.460 -0.2103  0.0397  0.0876
 5834TIP3    H138917   5.405   0.592   1.517  1.1088 -3.2667  1.5706
 5834TIP3    H238918   5.285   0.500   1.521 -2.0569  0.4123 -1.3158
 5835TIP3   OH238919   5.976   6.121  12.698  0.2685  0.3558  0.2481
 5835TIP3    H138920   5.881   6.117  12.710  0.2818  2.1008  1.2955
 5835TIP3    H238921   6.005   6.031  12.710 -1.3679 -0.4729 -1.4498
 5836TIP3   OH238922   2.040   1.754   0.759  0.3670  0.1537 -0.0090
 5836TIP3    H138923   2.006   1.674   0.800  0.8264 -0.5020 -0.8799
 5836TIP3    H238924   2.134   1.751   0.775  0.4699  0.1956 -0.5944
 5837TIP3   OH238925   3.213   1.073   5.078 -0.2661  0.3345  0.4589
 5837TIP3    H138926   3.232   1.037   5.165  0.9227  0.8475  0.4233
 5837TIP3    H238927   3.296   1.109   5.048 -1.1074  2.0035 -0.0218
 5838TIP3   OH238928   2.533   0.962  13.371  0.1551 -0.2779 -0.1346
 5838TIP3    H138929   2.533   0.876  13.329  1.5797  0.3209 -1.4565
 5838TIP3    H238930   2.578   1.019  13.309 -1.7155  1.6951  0.1930
 5839TIP3   OH238931   0.969   5.361  15.747  0.2939 -0.2455 -0.3805
 5839TIP3    H138932   0.955   5.278  15.791 -0.3864 -0.9147 -1.8015
 5839TIP3    H238933   1.052   5.351  15.701  0.5261  0.0998 -0.0455
 5840TIP3   OH238934   2.201   2.320   3.544 -0.1987  0.0352  0.0894
 5840TIP3    H138935   2.186   2.243   3.489  1.1248 -0.9362  1.0130
 5840TIP3    H238936   2.295   2.318   3.562 -0.0838  2.0497 -0.0956
 5841TIP3   OH238937   4.428   5.931  15.945  0.2168 -0.6605 -0.0151
 5841TIP3    H138938   4.435   6.026  15.952 -3.0794 -0.2938 -0.3844
 5841TIP3    H238939   4.397   5.902  16.031  1.0231 -1.4102  0.0383
 5842TIP3   OH238940   0.904   2.862  16.592 -0.4057  0.0982 -0.3980
 5842TIP3    H138941   0.957   2.941  16.588  1.2633 -0.9737 -0.1361
 5842TIP3    H238942   0.948   2.806  16.655 -2.7416 -0.2402  1.0704
 5843TIP3   OH238943   1.016   1.234   3.802 -0.6838 -0.1081 -0.1840
 5843TIP3    H138944   1.047   1.193   3.721 -0.8251 -1.3117  0.3528
 5843TIP3    H238945   1.089   1.224   3.863 -0.0085  2.0850 -0.5489
 5844TIP3   OH238946   1.980   2.590  17.005  0.4353  0.1314 -0.2661
 5844TIP3    H138947   2.048   2.553  17.061  0.8194 -0.8683 -1.3508
 5844TIP3    H238948   1.899   2.545  17.031  0.5546 -0.1053 -0.3070
 5845TIP3   OH238949   0.610   3.744  13.672  0.0189  0.0179  0.0554
 5845TIP3    H138950   0.691   3.694  13.674  0.1704  0.1806 -1.0915
 5845TIP3    H238951   0.582   3.741  13.580 -1.5036 -0.3875  0.5068
 5846TIP3   OH238952   1.755   0.342  16.247 -0.3610 -0.2081 -0.2190
 5846TIP3    H138953   1.789   0.260  16.282 -0.4232  0.3901  1.3485
 5846TIP3    H238954   1.833   0.397  16.236 -0.5224  0.2707  0.8887
 5847TIP3   OH238955   2.077   4.716  17.030  0.0476  0.1216 -0.3485
 5847TIP3    H138956   2.058   4.623  17.040 -0.8714  0.3349 -0.0044
 5847TIP3    H238957   2.149   4.733  17.090 -1.1354  0.0364  1.1572
 5848TIP3   OH238958   5.003   0.022   1.812  0.7649 -0.2301 -0.1603
 5848TIP3    H138959   5.026  -0.033   1.737  0.1353 -0.1228 -0.4316
 5848TIP3    H238960   5.063  -0.007   1.881  0.3132 -1.4176 -0.2326
 5849TIP3   OH238961   0.559   1.936   0.278  0.3730  0.1685 -0.0720
 5849TIP3    H138962   0.641   1.959   0.321  0.3528 -0.1558  0.1460
 5849TIP3    H238963   0.491   1.973   0.333  0.2585 -1.9153  1.2898
 5850TIP3   OH238964   4.511   1.899  16.822 -0.1285 -0.1465 -0.0598
 5850TIP3    H138965   4.557   1.960  16.764 -0.7944 -1.6168 -2.2500
 5850TIP3    H238966   4.428   1.882  16.777  0.0002 -2.5981  0.5157
 5851TIP3   OH238967   4.054   6.467   3.906 -0.1022  0.4159 -0.1181
 5851TIP3    H138968   4.047   6.561   3.891  0.7450  0.6923  1.0205
 5851TIP3    H238969   4.067   6.459   4.001 -1.8667 -0.9750  0.0593
 5852TIP3   OH238970   5.468   0.250   6.179  0.6296  0.1835 -0.7895
 5852TIP3    H138971   5.469   0.169   6.128  1.3679 -1.9338  2.3049
 5852TIP3    H238972   5.559   0.265   6.203  0.5618  2.2180 -1.6551
 5853TIP3   OH238973   1.882   0.855   0.510 -0.0798 -0.1347  0.3850
 5853TIP3    H138974   1.863   0.817   0.424  1.1219 -0.0470  0.0638
 5853TIP3    H238975   1.959   0.808   0.541 -0.8347 -0.5629  1.6953
 5854TIP3   OH238976   3.578   4.706  14.153  0.1801  0.1865 -0.4691
 5854TIP3    H138977   3.491   4.676  14.126 -0.8154  1.5383  1.0586
 5854TIP3    H238978   3.590   4.671  14.241  0.2064  1.7941  0.2075
 5855TIP3   OH238979   1.971   6.310   5.142  0.7246 -0.0351 -0.0652
 5855TIP3    H138980   2.066   6.309   5.153  0.7445 -1.7309 -0.1140
 5855TIP3    H238981   1.956   6.264   5.059 -0.1098  0.8986 -0.4558
 5856TIP3   OH238982   6.572   2.775   0.428  0.0086 -0.3360 -0.3101
 5856TIP3    H138983   6.603   2.769   0.338  1.6427 -1.3559  0.2852
 5856TIP3    H238984   6.636   2.830   0.472 -2.1760  2.4396 -0.2851
 5857TIP3   OH238985   3.962   2.872   2.542 -0.5195  0.1045  0.3765
 5857TIP3    H138986   3.945   2.966   2.537 -0.6039  0.0717  0.0801
 5857TIP3    H238987   3.967   2.854   2.636  0.4928  0.5858  0.4347
 5858TIP3   OH238988   2.299   3.201  13.518  0.3667  0.1022 -0.5148
 5858TIP3    H138989   2.243   3.124  13.505 -1.0145  0.9859 -0.0782
 5858TIP3    H238990   2.290   3.221  13.612  0.6651  0.8183 -0.6374
 5859TIP3   OH238991   0.464   0.163   1.791  0.2744 -0.7900  0.3051
 5859TIP3    H138992   0.437   0.239   1.740  1.0819 -0.5289  0.2640
 5859TIP3    H238993   0.385   0.138   1.840  0.1348  0.3523  0.6801
 5860TIP3   OH238994   2.599   5.016   0.799  0.0588 -0.2201 -0.8799
 5860TIP3    H138995   2.629   4.999   0.709 -0.9930 -1.9503 -0.9498
 5860TIP3    H238996   2.680   5.030   0.849  0.7169 -0.2751 -1.8985
 5861TIP3   OH238997   0.009   0.528   1.168 -0.5249 -0.0009  1.2071
 5861TIP3    H138998  -0.060   0.526   1.101  0.2877  0.7867  0.3015
 5861TIP3    H238999   0.059   0.448   1.154 -2.2822 -1.5340  3.0718
 5862TIP3   OH239000   1.758   1.991  13.486  0.7367 -0.4533  0.3960
 5862TIP3    H139001   1.754   2.014  13.579 -0.2977 -0.1734  0.2881
 5862TIP3    H239002   1.688   2.041  13.446 -0.1193 -2.0831 -0.2167
 5863TIP3   OH239003   1.729   1.762  12.870 -0.0449  0.2708  0.3912
 5863TIP3    H139004   1.806   1.732  12.821  1.0087  0.6484  1.7518
 5863TIP3    H239005   1.657   1.708  12.837  0.9475 -0.6495 -0.3526
 5864TIP3   OH239006   1.864   6.246  15.674  0.3535 -0.2637 -0.0243
 5864TIP3    H139007   1.791   6.261  15.734 -1.2979  0.5307 -2.0897
 5864TIP3    H239008   1.898   6.160  15.699  0.8784  0.7496  3.0811
 5865TIP3   OH239009   6.370   0.950  10.795 -0.0736 -0.0104  0.2210
 5865TIP3    H139010   6.379   0.889  10.721 -2.4077 -0.1766  0.0175
 5865TIP3    H239011   6.321   1.024  10.760  1.8959  1.6164  0.7232
 5866TIP3   OH239012   1.792   1.294   6.501  0.6510 -0.3434 -0.3525
 5866TIP3    H139013   1.724   1.227   6.499 -2.4453  2.4494  1.6122
 5866TIP3    H239014   1.759   1.363   6.444  3.5072 -0.1190 -1.9368
 5867TIP3   OH239015   2.292   1.671  12.190 -0.3142 -0.2705  0.1667
 5867TIP3    H139016   2.322   1.760  12.208  0.3449 -0.5823  0.6379
 5867TIP3    H239017   2.200   1.681  12.166 -0.5417  0.4188  1.2901
 5868TIP3   OH239018   2.960   3.914  13.191  0.0268  0.9079  0.2310
 5868TIP3    H139019   2.937   3.829  13.229  2.4905  0.2015  0.3260
 5868TIP3    H239020   3.051   3.903  13.161 -0.0537  3.0952 -1.0286
 5869TIP3   OH239021   1.273   1.179   5.906 -0.4767  0.1180  0.1666
 5869TIP3    H139022   1.269   1.083   5.908 -2.1095  0.1595  2.6799
 5869TIP3    H239023   1.365   1.199   5.926 -0.4579 -0.9335  1.2489
 5870TIP3   OH239024   6.550   5.647   2.138  0.5385  0.5006 -0.8487
 5870TIP3    H139025   6.595   5.632   2.055  0.2796  1.6138 -1.2027
 5870TIP3    H239026   6.459   5.665   2.113  0.5138  1.0890 -0.3402
 5871TIP3   OH239027   6.395   3.430   0.011  0.1695  0.6155 -0.1376
 5871TIP3    H139028   6.315   3.481   0.021 -0.7397 -0.3651 -1.9673
 5871TIP3    H239029   6.423   3.412   0.100 -2.2196  0.1165  0.5866
 5872TIP3   OH239030   2.441   6.273  17.150 -0.0716 -0.2443  0.2925
 5872TIP3    H139031   2.408   6.249  17.063 -0.6513  1.2477  0.0833
 5872TIP3    H239032   2.522   6.222  17.159  1.4212  1.4748 -2.2119
 5873TIP3   OH239033   1.047   4.455  12.592  0.2551 -0.1457 -0.2953
 5873TIP3    H139034   1.046   4.361  12.605 -0.1051 -0.1559 -0.3997
 5873TIP3    H239035   0.971   4.488  12.640  0.5811  0.1299  0.0339
 5874TIP3   OH239036   3.720   1.979   0.990 -0.2597 -0.8911 -0.3802
 5874TIP3    H139037   3.670   1.908   0.950 -0.4472 -0.5770 -0.7038
 5874TIP3    H239038   3.811   1.947   0.990 -0.4521 -1.4590  0.2061
 5875TIP3   OH239039   5.122   5.836   5.156  0.2011 -0.0624  0.5029
 5875TIP3    H139040   5.150   5.896   5.087  0.5876 -0.0073  0.7081
 5875TIP3    H239041   5.118   5.750   5.113 -2.2132  0.3686 -0.3047
 5876TIP3   OH239042   2.363   3.469  16.679 -0.5263 -0.2868  0.2305
 5876TIP3    H139043   2.317   3.553  16.673  2.1251  1.5167  2.4477
 5876TIP3    H239044   2.406   3.471  16.765  3.6749 -1.6387 -1.5646
 5877TIP3   OH239045   0.410   3.733  11.920  0.1185  0.3449  0.0193
 5877TIP3    H139046   0.461   3.677  11.977  0.4321  1.3107  0.7084
 5877TIP3    H239047   0.408   3.818  11.964 -2.5583  0.2231  0.3341
 5878TIP3   OH239048   5.781   6.687   3.374  0.1453  0.0131 -0.0597
 5878TIP3    H139049   5.731   6.606   3.384 -1.9935  1.3231  0.4958
 5878TIP3    H239050   5.829   6.675   3.292 -0.8644 -1.4323 -0.4793
 5879TIP3   OH239051   1.667   4.127  16.153 -0.1130 -0.1894  0.7235
 5879TIP3    H139052   1.665   4.146  16.060 -1.5449  2.5184  1.1954
 5879TIP3    H239053   1.592   4.069  16.168 -0.5651  0.2894  0.3341
 5880TIP3   OH239054   1.849   4.088  13.716  0.4289 -0.2146  0.6630
 5880TIP3    H139055   1.922   4.072  13.656  0.1627  0.0093  0.2685
 5880TIP3    H239056   1.787   4.017  13.698  0.1892  0.0534  0.4103
 5881TIP3   OH239057   5.008   3.472   4.592 -0.2507 -0.5097 -0.0253
 5881TIP3    H139058   5.026   3.460   4.499 -0.1126  0.1430 -0.0899
 5881TIP3    H239059   5.004   3.567   4.604 -0.8109 -0.5910  0.5321
 5882TIP3   OH239060   5.165   5.046  12.266  0.3930  0.8466 -0.2964
 5882TIP3    H139061   5.129   5.035  12.177  0.0089 -3.1443  0.1675
 5882TIP3    H239062   5.093   5.086  12.315 -0.2036  1.0588 -1.2944
 5883TIP3   OH239063   4.385   1.214  12.691  0.0989  0.3743  0.0395
 5883TIP3    H139064   4.454   1.260  12.644  0.0282  1.2656  0.7785
 5883TIP3    H239065   4.419   1.203  12.780  0.1448 -1.0894 -0.1424
 5884TIP3   OH239066   4.742   0.619  15.030  0.3395 -0.1519  0.1732
 5884TIP3    H139067   4.826   0.660  15.012  0.4405 -0.3674  0.1416
 5884TIP3    H239068   4.720   0.574  14.948 -0.1351  0.4649 -0.0454
 5885TIP3   OH239069   4.310   0.186   4.142  0.4183 -0.2936  0.1144
 5885TIP3    H139070   4.251   0.172   4.215  0.1362 -0.3751 -0.1277
 5885TIP3    H239071   4.333   0.098   4.113 -0.8166 -0.2875 -0.9756
 5886TIP3   OH239072   2.562   2.127   2.963 -0.2304 -0.1835 -0.0909
 5886TIP3    H139073   2.640   2.183   2.966 -0.9023  0.7475  1.0895
 5886TIP3    H239074   2.522   2.146   2.878  0.3044  0.0806 -0.2885
 5887TIP3   OH239075   0.092   1.534   5.507 -0.2461  0.2063 -0.1380
 5887TIP3    H139076   0.084   1.441   5.527 -0.0735 -0.0348 -1.1036
 5887TIP3    H239077   0.103   1.537   5.412  2.1622  1.0285  0.0950
 5888TIP3   OH239078   4.517   3.887   3.873  0.0319 -0.1159 -0.3570
 5888TIP3    H139079   4.567   3.948   3.819  0.5898  0.0492  0.3220
 5888TIP3    H239080   4.466   3.942   3.932  0.4277 -0.2964  0.1615
 5889TIP3   OH239081   4.915   3.071  11.385  0.1896  0.3597  0.4054
 5889TIP3    H139082   4.949   3.102  11.300  3.3289 -4.4528 -0.4609
 5889TIP3    H239083   4.829   3.035  11.364  0.5275  0.0684 -0.5707
 5890TIP3   OH239084   6.621   5.000   5.582  0.2111  0.8268 -0.0556
 5890TIP3    H139085   6.591   4.945   5.654  0.0546 -0.5759 -1.1456
 5890TIP3    H239086   6.713   4.975   5.570 -0.0047  0.4015 -0.8968
 5891TIP3   OH239087   0.864   4.067   0.029  0.8493  0.0296 -0.6246
 5891TIP3    H139088   0.798   4.002   0.052  0.7693 -0.7163 -2.6964
 5891TIP3    H239089   0.817   4.130  -0.026  0.9571  1.8379  1.2494
 5892TIP3   OH239090   2.276   0.176   1.487 -0.2782  0.2108 -0.4573
 5892TIP3    H139091   2.305   0.239   1.552  0.3165 -0.6308  0.1222
 5892TIP3    H239092   2.194   0.212   1.452 -0.7511  0.5355  0.9563
 5893TIP3   OH239093   5.134   4.436   1.693  0.2009 -0.3885  0.3670
 5893TIP3    H139094   5.066   4.449   1.627  1.0248 -1.0479 -0.6269
 5893TIP3    H239095   5.177   4.354   1.668  1.0419 -0.2419  1.2676
 5894TIP3   OH239096   0.229   3.085  11.444 -0.0606 -0.2527  0.4380
 5894TIP3    H139097   0.272   3.164  11.478  2.1178 -1.6196  1.0628
 5894TIP3    H239098   0.220   3.028  11.520 -1.7877 -0.5739  0.0253
 5895TIP3   OH239099   6.672   6.722  16.587 -0.1846  0.3600 -0.1976
 5895TIP3    H139100   6.765   6.716  16.564  0.0760 -0.3523  0.9597
 5895TIP3    H239101   6.661   6.812  16.617 -0.1103  0.7415 -1.2635
 5896TIP3   OH239102   4.859   4.879  13.979 -0.0006 -0.3526 -0.6354
 5896TIP3    H139103   4.813   4.898  14.060  0.3003  2.2714 -0.9937
 5896TIP3    H239104   4.910   4.800  13.998 -1.4796 -0.9552  1.0398
 5897TIP3   OH239105   3.844   5.647   1.966  0.2535 -0.1143 -0.7004
 5897TIP3    H139106   3.925   5.683   2.003  0.3537 -0.3064 -0.7287
 5897TIP3    H239107   3.874   5.584   1.901  0.0779  0.1380 -1.0283
 5898TIP3   OH239108   4.575   5.118   0.287 -0.5008  0.6376 -0.0123
 5898TIP3    H139109   4.592   5.036   0.334 -0.3174  0.5801 -0.1746
 5898TIP3    H239110   4.630   5.183   0.330  0.4028  0.3802 -0.7528
 5899TIP3   OH239111   0.934   2.438   1.958 -0.1892 -0.4327 -0.2579
 5899TIP3    H139112   0.893   2.354   1.979 -0.7887  0.2233  1.4119
 5899TIP3    H239113   0.962   2.473   2.043  1.0301  0.5685 -1.0390
 5900TIP3   OH239114   2.627   3.076  13.960  0.1554  0.6855 -0.2462
 5900TIP3    H139115   2.699   3.105  14.015 -0.1118 -0.8920  1.0075
 5900TIP3    H239116   2.669   3.031  13.887  0.4610 -0.2401  0.4878
 5901TIP3   OH239117   6.168   6.436  16.769  0.0673 -0.0406 -0.4769
 5901TIP3    H139118   6.097   6.372  16.768  0.9222 -1.0330  0.3958
 5901TIP3    H239119   6.129   6.515  16.805 -1.2180  0.2289 -2.3436
 5902TIP3   OH239120   4.392   5.584  15.701  0.2407  0.4161  0.2659
 5902TIP3    H139121   4.311   5.602  15.748  0.8839 -0.0621  1.5866
 5902TIP3    H239122   4.441   5.666  15.704 -0.5431  1.0002 -1.3451
 5903TIP3   OH239123   6.624   3.755  17.064 -0.0030 -0.0446 -1.2501
 5903TIP3    H139124   6.668   3.718  16.988  0.2402  1.0670 -1.6677
 5903TIP3    H239125   6.569   3.684  17.097 -0.7235 -0.3092 -2.9399
 5904TIP3   OH239126   2.360   5.894  14.179 -0.2794  0.7190  0.3875
 5904TIP3    H139127   2.346   5.872  14.087 -1.4413 -0.6622  0.8523
 5904TIP3    H239128   2.454   5.880  14.192 -0.4845 -1.5081 -0.0372
 5905TIP3   OH239129   0.809   4.064   3.356 -0.0620  0.3531  0.1182
 5905TIP3    H139130   0.754   4.141   3.369 -0.1637 -0.0605  2.6396
 5905TIP3    H239131   0.754   3.990   3.384  0.2803 -0.5858 -1.5783
 5906TIP3   OH239132   3.764   5.550  15.961  0.5965  0.0180  0.2706
 5906TIP3    H139133   3.834   5.616  15.959  0.6849 -0.0770 -1.6662
 5906TIP3    H239134   3.704   5.580  16.029  1.5476  1.1229  0.6513
 5907TIP3   OH239135   6.442   6.499   0.968 -0.1890 -0.5390 -0.2406
 5907TIP3    H139136   6.523   6.460   1.001 -0.8426  0.2551  2.5333
 5907TIP3    H239137   6.471   6.572   0.913  1.0346  0.3161  1.4490
 5908TIP3   OH239138   5.289   2.166  14.737 -0.2590 -0.4394 -0.0821
 5908TIP3    H139139   5.346   2.103  14.781 -1.8120 -1.3970  0.6295
 5908TIP3    H239140   5.228   2.113  14.687 -2.1159  0.4228  1.1616
 5909TIP3   OH239141   6.688   2.432   1.915 -0.3036  0.1203  0.4832
 5909TIP3    H139142   6.633   2.396   1.845  2.6716 -0.7540 -1.6107
 5909TIP3    H239143   6.695   2.525   1.895  0.8629 -0.1999 -0.6742
 5910TIP3   OH239144   3.229   4.638  11.858 -0.3907  0.2539  0.4624
 5910TIP3    H139145   3.177   4.654  11.779 -0.4782  2.8582  0.9390
 5910TIP3    H239146   3.164   4.624  11.927 -0.3148 -1.9594  0.1385
 5911TIP3   OH239147   5.431   2.392  12.651  0.2494 -0.0876 -0.0073
 5911TIP3    H139148   5.382   2.358  12.575 -2.3633  2.4897  0.3445
 5911TIP3    H239149   5.490   2.457  12.614 -0.7658  0.9084  0.0709
 5912TIP3   OH239150   5.412   1.448  15.752  0.4231  0.3077 -0.8256
 5912TIP3    H139151   5.481   1.512  15.738  0.3271  1.2625  2.2189
 5912TIP3    H239152   5.447   1.389  15.820 -1.8222  1.1562  1.2266
 5913TIP3   OH239153   2.932   2.489   4.558 -0.4403  0.5024  0.1903
 5913TIP3    H139154   3.020   2.456   4.576 -0.9250  0.0453  1.9568
 5913TIP3    H239155   2.877   2.448   4.626 -2.3740 -0.7184 -1.9633
 5914TIP3   OH239156   0.566   2.604   0.422 -0.2705  0.2481 -0.0725
 5914TIP3    H139157   0.654   2.619   0.455 -0.3641  1.1408 -0.2003
 5914TIP3    H239158   0.516   2.680   0.450 -0.3854  0.9948 -2.0901
 5915TIP3   OH239159   4.583   6.144  10.972  0.2509  0.3993  0.0605
 5915TIP3    H139160   4.607   6.108  10.886 -0.1246  0.9685 -0.2876
 5915TIP3    H239161   4.631   6.090  11.035  1.1023  0.4373 -0.5463
 5916TIP3   OH239162   2.561   0.856   5.274 -0.1887 -0.2682 -0.8191
 5916TIP3    H139163   2.598   0.934   5.314 -2.2891  0.3719  0.0378
 5916TIP3    H239164   2.593   0.857   5.184  0.2323  1.3097 -0.6736
 5917TIP3   OH239165   3.436   1.588  14.655  0.8430  0.3245  0.3821
 5917TIP3    H139166   3.432   1.678  14.689 -1.7156  0.1605  0.7475
 5917TIP3    H239167   3.388   1.536  14.719  0.9402 -1.0196 -0.5925
 5918TIP3   OH239168   3.324   6.694   2.531  0.2147  0.1185 -0.2377
 5918TIP3    H139169   3.291   6.745   2.605  2.6463  2.2858 -0.5367
 5918TIP3    H239170   3.246   6.675   2.478 -1.1442  1.0478  1.3454
 5919TIP3   OH239171   2.036   6.104  13.640 -0.0435  1.0389 -0.8593
 5919TIP3    H139172   2.120   6.068  13.666 -0.4200 -0.0986 -1.1635
 5919TIP3    H239173   2.032   6.189  13.684  0.0425 -0.1056  1.5373
 5920TIP3   OH239174   6.192   2.764  14.912  0.4750 -0.1194  0.2198
 5920TIP3    H139175   6.098   2.765  14.929  0.5119  1.6729  0.5306
 5920TIP3    H239176   6.231   2.726  14.990  0.0115 -0.8695  0.0871
 5921TIP3   OH239177   1.308   1.149   4.655 -0.4626 -0.4624 -0.0201
 5921TIP3    H139178   1.271   1.193   4.578  1.0583  1.9501  0.5223
 5921TIP3    H239179   1.375   1.091   4.619  0.6145  1.0435 -0.5594
 5922TIP3   OH239180   5.405   2.772  11.803  0.0781  0.6004 -0.0530
 5922TIP3    H139181   5.471   2.749  11.868  0.7125  2.1378 -0.0857
 5922TIP3    H239182   5.324   2.784  11.853  0.3829  1.0209  0.3473
 5923TIP3   OH239183   2.811   0.121   1.884  0.4197  0.3431 -0.2647
 5923TIP3    H139184   2.758   0.125   1.964  1.3678 -2.6798  0.6343
 5923TIP3    H239185   2.868   0.198   1.889 -1.4852  1.8016  0.4381
 5924TIP3   OH239186   6.700   6.346  15.805 -0.0490 -0.3822  0.1588
 5924TIP3    H139187   6.772   6.372  15.863  0.0757  0.6000 -0.4004
 5924TIP3    H239188   6.730   6.264  15.765  1.6488  0.9345 -1.4777
 5925TIP3   OH239189   2.239   6.386  13.085  0.4967  0.0539  0.2380
 5925TIP3    H139190   2.172   6.453  13.080  1.0869  0.6815  0.5605
 5925TIP3    H239191   2.322   6.434  13.083  0.9338 -0.6636  0.4213
 5926TIP3   OH239192   5.270   1.609   4.594 -0.4351 -0.6727 -0.0334
 5926TIP3    H139193   5.339   1.569   4.541 -0.8148  0.3021 -1.3035
 5926TIP3    H239194   5.189   1.573   4.560 -0.7897  1.0841 -1.2061
 5927TIP3   OH239195   1.899   3.690  11.464 -0.2150  0.0471  0.0618
 5927TIP3    H139196   1.837   3.701  11.393 -1.4222 -1.0309  0.9104
 5927TIP3    H239197   1.863   3.620  11.518  1.5155 -0.3110  0.8354
 5928TIP3   OH239198   5.826   5.402   3.357 -0.3042  0.0583  0.0841
 5928TIP3    H139199   5.795   5.439   3.274 -1.2668  0.6302  0.6730
 5928TIP3    H239200   5.921   5.408   3.353 -0.0386 -3.1287 -2.4538
 5929TIP3   OH239201   0.936   5.932  13.690 -0.1187 -0.2440 -0.6136
 5929TIP3    H139202   0.969   5.879  13.763  1.9312 -0.5397 -1.6985
 5929TIP3    H239203   0.934   5.872  13.616  1.6460  0.9833 -1.7153
 5930TIP3   OH239204   5.740   3.532   4.615 -0.3764 -0.1693 -0.6909
 5930TIP3    H139205   5.694   3.518   4.698  0.0508 -0.1769 -0.4524
 5930TIP3    H239206   5.679   3.582   4.562 -0.5152  0.1446 -0.2408
 5931TIP3   OH239207   3.792   3.072   0.012 -0.0180  0.3734  0.0158
 5931TIP3    H139208   3.706   3.031   0.024 -0.3983  0.9394 -0.6941
 5931TIP3    H239209   3.791   3.146   0.073  0.3358 -0.1534  0.6762
 5932TIP3   OH239210   3.014   5.685   3.544  0.2080  0.2947  0.0463
 5932TIP3    H139211   2.998   5.704   3.637 -2.2566  0.5615 -0.3671
 5932TIP3    H239212   2.927   5.692   3.503  0.8668 -1.8383 -1.9174
 5933TIP3   OH239213   4.786   3.808  14.216  0.1609 -0.7881 -0.1206
 5933TIP3    H139214   4.802   3.737  14.153 -0.7863 -0.6735 -0.5092
 5933TIP3    H239215   4.696   3.834  14.200  1.2097  2.3453 -1.8660
 5934TIP3   OH239216   5.354   3.265  12.229 -0.6282 -0.0527 -0.6346
 5934TIP3    H139217   5.448   3.278  12.216 -0.8290  1.0545 -1.0063
 5934TIP3    H239218   5.314   3.349  12.207 -1.7545 -0.6334 -0.8899
 5935TIP3   OH239219   6.446   4.773  16.695  0.2857 -0.3861  0.1632
 5935TIP3    H139220   6.504   4.772  16.619  1.1227 -0.9445  0.7915
 5935TIP3    H239221   6.503   4.793  16.769 -0.4820 -0.0420  0.6781
 5936TIP3   OH239222   3.313   3.553   3.447 -0.2333 -0.1874 -0.1802
 5936TIP3    H139223   3.272   3.522   3.528 -0.4810 -0.4890 -0.4221
 5936TIP3    H239224   3.406   3.562   3.470 -0.2115 -0.7792 -0.0040
 5937TIP3   OH239225   6.537   1.848  15.297  0.6430 -0.2839  0.1442
 5937TIP3    H139226   6.444   1.826  15.292 -0.3849  3.4883 -0.4602
 5937TIP3    H239227   6.551   1.868  15.390  0.2418  1.0520 -0.0513
 5938TIP3   OH239228   6.152   4.812   1.189 -0.0964 -0.0932  0.2399
 5938TIP3    H139229   6.120   4.899   1.208 -1.8479 -0.7352  0.4111
 5938TIP3    H239230   6.087   4.774   1.130  0.2136 -1.5453  0.7663
 5939TIP3   OH239231   1.376   5.592   2.389 -0.0483  0.4709  0.4160
 5939TIP3    H139232   1.418   5.508   2.407  0.7346  0.8904  0.5805
 5939TIP3    H239233   1.316   5.574   2.317  0.7715 -0.0271 -0.1516
 5940TIP3   OH239234   2.514   5.982  16.095 -0.1942  0.4628 -0.5123
 5940TIP3    H139235   2.462   5.928  16.155 -0.4418 -0.2574 -1.3647
 5940TIP3    H239236   2.458   6.058  16.077 -0.5515  0.1644 -0.6641
 5941TIP3   OH239237   4.465   5.454   1.107 -0.1874 -0.0090 -0.2245
 5941TIP3    H139238   4.545   5.437   1.057 -1.5337  1.1247 -2.9458
 5941TIP3    H239239   4.394   5.433   1.047 -1.9431  0.8652  1.4408
 5942TIP3   OH239240   5.174   1.706  13.923 -0.6271  0.1689 -0.0309
 5942TIP3    H139241   5.083   1.685  13.944 -0.6429  0.5883  0.3253
 5942TIP3    H239242   5.186   1.670  13.835 -1.4589  1.0334 -0.5247
 5943TIP3   OH239243   2.999   5.340  15.632  0.4386  0.3625 -0.1860
 5943TIP3    H139244   2.975   5.247  15.626  0.2458  0.3249  0.9134
 5943TIP3    H239245   2.916   5.384  15.648 -0.1693  1.2481 -4.4457
 5944TIP3   OH239246   3.057   1.437   0.790  0.3421  0.0093  0.6625
 5944TIP3    H139247   3.127   1.485   0.835 -0.2965  1.9714 -0.2891
 5944TIP3    H239248   3.098   1.405   0.709  0.4369  0.1254  0.6638
 5945TIP3   OH239249   0.915   4.859   5.607  0.1067  0.3746  0.0193
 5945TIP3    H139250   0.912   4.937   5.550  1.4885  0.4935  0.0776
 5945TIP3    H239251   0.829   4.819   5.597 -0.5524  1.7809 -0.2023
 5946TIP3   OH239252   1.555   5.208  12.421 -0.2876  0.4573  0.0410
 5946TIP3    H139253   1.487   5.198  12.488  0.0795  0.1332  0.3782
 5946TIP3    H239254   1.581   5.118  12.400 -0.9247  0.5211 -1.0975
 5947TIP3   OH239255   5.317   6.161  15.029 -0.2405 -0.2004 -0.2557
 5947TIP3    H139256   5.231   6.164  14.987 -0.3437  1.8305  0.0101
 5947TIP3    H239257   5.311   6.086  15.089 -1.4339 -0.7547 -1.0172
 5948TIP3   OH239258   6.205   5.919   4.275 -0.5746  0.0853  0.6484
 5948TIP3    H139259   6.265   5.885   4.209  0.2240  0.5723  1.1227
 5948TIP3    H239260   6.257   5.926   4.355 -1.5770 -0.7105  1.4114
 5949TIP3   OH239261   3.399   2.638  11.094  0.1266 -0.3840 -0.5621
 5949TIP3    H139262   3.390   2.703  11.024  0.2880 -0.6851 -0.8612
 5949TIP3    H239263   3.394   2.553  11.050  0.4823 -0.5773 -0.2415
 5950TIP3   OH239264   4.800   4.774   0.271 -0.7176  0.3253  0.2568
 5950TIP3    H139265   4.738   4.823   0.324 -0.3545 -0.1962  1.1761
 5950TIP3    H239266   4.873   4.755   0.329 -1.6228 -2.9030  0.5477
 5951TIP3   OH239267   3.783   1.054  13.157  0.1558  0.1661  0.4585
 5951TIP3    H139268   3.792   1.000  13.236  0.5562 -0.1682  0.1891
 5951TIP3    H239269   3.705   1.020  13.114  0.3244 -0.1071  0.3639
 5952TIP3   OH239270   6.200   1.027  12.427  0.2516  0.0486 -0.0219
 5952TIP3    H139271   6.237   1.114  12.441 -0.1105  0.6088 -2.2163
 5952TIP3    H239272   6.238   0.973  12.497  0.7203  1.8663  1.2057
 5953TIP3   OH239273   4.970   0.693  11.493 -0.7447  0.1350  0.0376
 5953TIP3    H139274   4.940   0.752  11.423 -0.1701  1.3642  0.7931
 5953TIP3    H239275   5.006   0.617  11.446 -0.5135  0.8583 -1.0022
 5954TIP3   OH239276   2.944   6.459  12.587  0.3612 -0.0720 -0.2087
 5954TIP3    H139277   2.853   6.435  12.604 -0.1943  2.0432  0.1277
 5954TIP3    H239278   2.994   6.411  12.653 -0.1253 -3.3993 -2.0753
 5955TIP3   OH239279   2.570   4.195   3.040  0.0817 -0.4037 -0.3004
 5955TIP3    H139280   2.507   4.260   3.010 -1.2448 -0.2138  2.5961
 5955TIP3    H239281   2.545   4.115   2.995 -1.5487 -0.0629 -0.0701
 5956TIP3   OH239282   6.694   6.666   1.365 -0.2447 -0.0466 -0.2019
 5956TIP3    H139283   6.740   6.627   1.291  0.1270  1.2238 -0.6751
 5956TIP3    H239284   6.683   6.758   1.340 -1.5635  0.0439  0.6274
 5957TIP3   OH239285   0.453   5.908   1.094  0.6545 -0.2594  0.0129
 5957TIP3    H139286   0.444   5.949   1.181  0.0360  1.2601 -0.7285
 5957TIP3    H239287   0.408   5.968   1.035 -2.0499 -2.9573 -0.9239
 5958TIP3   OH239288   2.223   3.348  11.444 -0.4293  0.0469  0.1791
 5958TIP3    H139289   2.205   3.402  11.521  2.4784  0.3768  0.7465
 5958TIP3    H239290   2.318   3.340  11.442 -0.5340 -1.7834 -2.1755
 5959TIP3   OH239291   6.490   2.838  16.471  0.0022  0.0977 -0.1126
 5959TIP3    H139292   6.566   2.845  16.528 -1.2230  0.1730  1.5992
 5959TIP3    H239293   6.461   2.929  16.458 -1.3306 -0.0531  1.4881
 5960TIP3   OH239294   5.062   0.987   0.534  0.1366  0.5300  0.2589
 5960TIP3    H139295   5.083   0.989   0.441 -1.7066  0.3694 -0.1918
 5960TIP3    H239296   5.003   1.061   0.547 -0.4046 -0.0262  1.0992
 5961TIP3   OH239297   2.824   2.868  11.920 -0.3652  0.3806  0.2321
 5961TIP3    H139298   2.798   2.897  11.833  0.2598  2.3841  0.6459
 5961TIP3    H239299   2.911   2.905  11.932  0.6079 -1.9069  0.8174
 5962TIP3   OH239300   2.028   5.752   0.707  0.1150  0.8143  0.1466
 5962TIP3    H139301   2.091   5.783   0.643 -0.9082  2.4209 -0.1462
 5962TIP3    H239302   1.944   5.791   0.679 -0.5146  0.8690  1.9566
 5963TIP3   OH239303   4.879   0.636   5.305 -0.5918  1.0465 -0.3260
 5963TIP3    H139304   4.887   0.554   5.353  1.4115  1.8253  0.8412
 5963TIP3    H239305   4.952   0.635   5.242 -1.3818  1.3473 -1.2779
 5964TIP3   OH239306   6.636   4.345   3.076  0.3241  0.4414  0.1317
 5964TIP3    H139307   6.647   4.353   2.982  1.1727  1.4680  0.3012
 5964TIP3    H239308   6.711   4.294   3.106  0.1860  0.3274  0.2925
 5965TIP3   OH239309   5.070   0.909  11.604 -0.0682  0.2735  0.2938
 5965TIP3    H139310   4.993   0.925  11.658 -0.2320 -0.8789  0.4341
 5965TIP3    H239311   5.053   0.825  11.562  0.2438  0.9456 -1.2436
 5966TIP3   OH239312   5.439   5.239  15.021 -0.1215  0.6262  0.4534
 5966TIP3    H139313   5.431   5.179  14.946 -1.0374  0.4580  0.6744
 5966TIP3    H239314   5.533   5.245  15.037  0.0304 -0.0697 -0.1270
 5967TIP3   OH239315   2.677   5.846   4.464  0.0269  0.4733 -0.4432
 5967TIP3    H139316   2.726   5.854   4.546 -0.8208  0.3598  0.0830
 5967TIP3    H239317   2.685   5.753   4.441 -1.6864 -0.0093  0.7667
 5968TIP3   OH239318   6.241   1.330   3.426  0.0690  0.1767 -0.1945
 5968TIP3    H139319   6.285   1.269   3.367  1.0262  0.7716 -0.1255
 5968TIP3    H239320   6.200   1.394   3.367 -1.8468 -1.0817 -0.3090
 5969TIP3   OH239321   4.971   4.023  11.272  0.0465 -0.1739 -0.4474
 5969TIP3    H139322   4.998   4.012  11.180  0.3021  1.6066 -0.6133
 5969TIP3    H239323   4.885   3.981  11.276  0.3202 -0.8657 -1.3313
 5970TIP3   OH239324   4.145   2.685   0.482 -0.0435 -0.3802 -0.2355
 5970TIP3    H139325   4.133   2.721   0.394 -1.5219  0.7588  0.3873
 5970TIP3    H239326   4.174   2.760   0.535  1.9244 -1.2867  0.0721
 5971TIP3   OH239327   5.989   4.922   2.944  0.1897 -0.0712 -0.1438
 5971TIP3    H139328   6.080   4.897   2.957 -0.4452 -3.2481 -1.0895
 5971TIP3    H239329   5.990   4.977   2.865  1.3652  0.9558  0.5464
 5972TIP3   OH239330   5.450   6.601   2.500 -0.1898 -0.4849 -0.5920
 5972TIP3    H139331   5.514   6.533   2.522 -1.3078 -1.0669  1.0543
 5972TIP3    H239332   5.365   6.559   2.514 -0.9605  0.4103 -2.2902
 5973TIP3   OH239333   0.866   3.038  14.374 -0.2189 -0.8106  0.6437
 5973TIP3    H139334   0.798   3.093  14.415 -0.5116 -1.4894  1.0831
 5973TIP3    H239335   0.827   3.008  14.293  0.5314  0.9149 -0.4073
 5974TIP3   OH239336   2.374   2.062  13.578  0.3878  0.1814  0.3898
 5974TIP3    H139337   2.376   1.968  13.595  1.2449  0.2883  0.9358
 5974TIP3    H239338   2.463   2.085  13.553 -0.0374  0.6829 -0.7665
 5975TIP3   OH239339   2.120   0.475  10.638  0.1266 -0.2238 -0.5274
 5975TIP3    H139340   2.104   0.413  10.709 -0.4746  1.6209  1.0474
 5975TIP3    H239341   2.063   0.549  10.658  0.9760  0.9487 -2.2001
 5976TIP3   OH239342   2.543   2.330  17.265 -0.3803 -0.4164 -0.2839
 5976TIP3    H139343   2.578   2.318  17.354  0.4375  3.2136  0.0727
 5976TIP3    H239344   2.466   2.386  17.278 -0.8046 -0.6118 -1.8265
 5977TIP3   OH239345   1.959   4.048   4.241 -0.1628 -0.1424  0.2486
 5977TIP3    H139346   1.871   4.068   4.274 -0.6900  1.8332 -2.0346
 5977TIP3    H239347   2.018   4.080   4.309 -1.2075  0.5604  0.8573
 5978TIP3   OH239348   4.830   2.356  16.578 -0.4630 -0.3121 -0.2101
 5978TIP3    H139349   4.806   2.387  16.665  0.4314 -0.3330  0.0530
 5978TIP3    H239350   4.880   2.276  16.594  1.6357  0.8669 -0.6004
 5979TIP3   OH239351   1.923   5.375  16.759 -0.3298  0.7710  0.2868
 5979TIP3    H139352   1.983   5.394  16.687 -2.8369  1.0681 -1.8432
 5979TIP3    H239353   1.917   5.279  16.760 -2.6411  0.7924 -2.0952
 5980TIP3   OH239354   5.989   3.187  11.734  0.0426 -0.0031  0.0568
 5980TIP3    H139355   5.932   3.264  11.729 -0.3820 -0.2706  0.5759
 5980TIP3    H239356   6.057   3.211  11.796  1.1643  0.7190 -1.3878
 5981TIP3   OH239357   1.735   3.206   0.453 -0.5176  0.0300  0.4533
 5981TIP3    H139358   1.666   3.143   0.433 -1.2550  0.8319  0.3763
 5981TIP3    H239359   1.817   3.159   0.438 -1.0127 -0.1665 -2.1469
 5982TIP3   OH239360   6.516   6.708   3.241  0.0630  0.5946 -0.4262
 5982TIP3    H139361   6.497   6.647   3.170 -0.1323  1.0388 -0.7661
 5982TIP3    H239362   6.601   6.747   3.218  0.6140 -0.1863  0.2438
 5983TIP3   OH239363   1.891   6.683  14.340 -0.2442  0.0871 -0.3106
 5983TIP3    H139364   1.811   6.731  14.319 -0.3809 -0.2317 -0.5431
 5983TIP3    H239365   1.962   6.740  14.310 -0.3023  1.0880  1.3482
 5984TIP3   OH239366   6.214   3.230   2.007  0.3358 -0.1158 -0.1056
 5984TIP3    H139367   6.275   3.158   1.990  0.9462  0.5042 -0.6336
 5984TIP3    H239368   6.128   3.189   2.013  0.8814 -1.1142  1.4594
 5985TIP3   OH239369   6.520   1.138   5.007  0.4416  0.0352 -0.6292
 5985TIP3    H139370   6.487   1.164   5.093  1.0991  1.9927 -0.9052
 5985TIP3    H239371   6.445   1.098   4.962 -0.4441  0.7915  0.1541
 5986TIP3   OH239372   0.785   1.022   5.516 -0.6763 -0.0308  0.5548
 5986TIP3    H139373   0.732   1.097   5.489 -1.9829 -0.2718  2.2467
 5986TIP3    H239374   0.797   0.971   5.436  0.6085  2.1313 -0.7444
 5987TIP3   OH239375   6.744   2.688  15.173 -0.4723 -0.3067 -0.2325
 5987TIP3    H139376   6.649   2.700  15.177 -0.5643 -0.7163 -1.0568
 5987TIP3    H239377   6.763   2.676  15.080  0.2173 -1.5184  0.0499
 5988TIP3   OH239378   6.304   0.966   2.185  0.1271  0.4314  0.5221
 5988TIP3    H139379   6.253   1.022   2.244  0.1489  0.7882  0.2035
 5988TIP3    H239380   6.280   0.996   2.097  1.0447  0.7405  0.3709
 5989TIP3   OH239381   5.103   5.632  13.908 -0.3259  0.5268  0.6608
 5989TIP3    H139382   5.119   5.555  13.962 -1.7437 -0.7652 -0.6729
 5989TIP3    H239383   5.038   5.682  13.957 -1.1534 -0.3280  0.4578
 5990TIP3   OH239384   5.784   1.667   5.152 -0.2747  0.7472  0.2235
 5990TIP3    H139385   5.702   1.692   5.194 -1.5747  0.3379 -1.9235
 5990TIP3    H239386   5.776   1.700   5.062  1.0434 -1.0156 -0.5999
 5991TIP3   OH239387   3.746   5.500  15.658 -0.2821 -0.6105 -0.4173
 5991TIP3    H139388   3.652   5.495  15.642 -0.5182  0.1333  0.6241
 5991TIP3    H239389   3.754   5.536  15.747  0.9842 -0.5161 -0.5424
 5992TIP3   OH239390   6.040   4.601  16.659 -0.1719  0.0138 -0.1409
 5992TIP3    H139391   6.085   4.664  16.603 -1.2767  0.9480 -0.0255
 5992TIP3    H239392   5.961   4.578  16.611  0.4457 -1.7021 -0.4051
 5993TIP3   OH239393   1.539   2.232   0.037 -0.0126  0.1571 -0.7241
 5993TIP3    H139394   1.600   2.241   0.110 -1.4834 -0.8294  0.7045
 5993TIP3    H239395   1.456   2.264   0.071 -0.8981 -0.9736 -1.7281
 5994TIP3   OH239396   6.072   6.034  13.727  0.2916  0.3103  0.6135
 5994TIP3    H139397   6.117   5.952  13.709  1.2022  0.2709  2.6986
 5994TIP3    H239398   6.140   6.101  13.719 -0.5896  0.9937 -1.7244
 5995TIP3   OH239399   1.456   6.272  12.494 -0.1577 -0.0117 -0.5495
 5995TIP3    H139400   1.544   6.300  12.467  0.2443  0.1321  0.8063
 5995TIP3    H239401   1.473   6.203  12.559 -1.0305  0.3337  0.0617
 5996TIP3   OH239402   2.448   4.473  13.217  0.6465 -0.2925 -0.5073
 5996TIP3    H139403   2.421   4.478  13.308 -0.5636  1.6503 -0.9204
 5996TIP3    H239404   2.431   4.560  13.181  0.8925 -1.0487 -2.6488
 5997TIP3   OH239405   2.508   5.288   6.153  0.2054  0.1802 -0.1214
 5997TIP3    H139406   2.493   5.265   6.061  0.7361  0.1443 -0.2042
 5997TIP3    H239407   2.421   5.285   6.193  0.1179 -0.9148 -0.3636
 5998TIP3   OH239408   0.861   0.107   1.910  0.0868 -0.1403 -0.6697
 5998TIP3    H139409   0.870   0.056   1.990 -1.9467 -0.3439 -0.5296
 5998TIP3    H239410   0.801   0.056   1.856  0.9369  0.3061 -2.0979
 5999TIP3   OH239411   0.076   6.538   0.955 -0.2023  0.2101 -0.2141
 5999TIP3    H139412  -0.008   6.496   0.976  0.7051 -1.9020 -0.5357
 5999TIP3    H239413   0.132   6.518   1.030  0.0085  1.6977  0.0501
 6000TIP3   OH239414   6.005   2.722   4.849  0.0991 -0.3341  0.1537
 6000TIP3    H139415   5.992   2.713   4.944  0.2889  1.6141  0.3972
 6000TIP3    H239416   6.085   2.774   4.840 -0.0533 -0.2753 -1.0687
 6001TIP3   OH239417   4.377   1.098   3.896 -0.3442  0.1022  0.1754
 6001TIP3    H139418   4.356   1.142   3.813  0.9913 -0.9822 -0.7855
 6001TIP3    H239419   4.439   1.030   3.871  0.6224  0.1885  2.1778
 6002TIP3   OH239420   6.511   0.897  15.732 -0.3251 -0.2340  0.2425
 6002TIP3    H139421   6.555   0.979  15.711 -1.3162  0.1779 -0.3228
 6002TIP3    H239422   6.445   0.920  15.798 -0.4412 -0.6223  0.2700
 6003TIP3   OH239423   5.406   1.184  16.100  0.0046 -0.8834 -0.4849
 6003TIP3    H139424   5.339   1.116  16.093 -1.1886  0.4362 -3.2715
 6003TIP3    H239425   5.393   1.221  16.188 -1.5603 -2.0101 -0.1868
 6004TIP3   OH239426   3.851   6.281  10.530  0.7896  0.1989  0.2847
 6004TIP3    H139427   3.831   6.370  10.503  0.0318 -0.7182 -2.5475
 6004TIP3    H239428   3.784   6.227  10.487  0.7541 -1.6957  2.5146
 6005TIP3   OH239429   5.835   1.828  14.563 -0.0591 -0.9199 -0.6247
 6005TIP3    H139430   5.866   1.903  14.512  1.3653 -0.1829  1.1970
 6005TIP3    H239431   5.819   1.760  14.498 -0.8117  0.7473 -2.2799
 6006TIP3   OH239432   2.323   0.388   3.044  0.3117 -0.3272  0.3999
 6006TIP3    H139433   2.418   0.378   3.047  0.6606  2.1584  0.2023
 6006TIP3    H239434   2.310   0.481   3.022 -2.1536 -0.3196  1.5799
 6007TIP3   OH239435   5.116   1.148  16.580 -0.4943  0.2530  0.3747
 6007TIP3    H139436   5.099   1.061  16.616  2.9479 -0.7796 -0.0829
 6007TIP3    H239437   5.140   1.201  16.656 -0.2108  0.1041  0.3901
 6008TIP3   OH239438   3.618   3.308  11.921  0.1789  0.2483 -0.2296
 6008TIP3    H139439   3.627   3.254  11.842 -0.4897  0.8780 -0.7451
 6008TIP3    H239440   3.584   3.392  11.889  1.7360  1.1998  0.4744
 6009TIP3   OH239441   0.835   5.799  17.315  0.4141  0.0247 -0.3190
 6009TIP3    H139442   0.832   5.775  17.408  0.7834 -1.8833 -0.7671
 6009TIP3    H239443   0.925   5.783  17.289  0.2168  0.1721 -1.1049
 6010TIP3   OH239444   4.637   5.228  17.116  0.6523  0.1806  0.1741
 6010TIP3    H139445   4.669   5.143  17.086  0.4089  0.6544 -1.5848
 6010TIP3    H239446   4.542   5.224  17.101  0.4101  0.1819  1.6372
 6011TIP3   OH239447   2.678   1.064  15.159  0.2148  0.7361  0.1641
 6011TIP3    H139448   2.594   1.057  15.113  0.4511 -1.2816 -0.0514
 6011TIP3    H239449   2.707   1.154  15.143 -0.7175  0.7287 -1.8681
 6012TIP3   OH239450   5.251   4.185  13.948 -0.5353  0.3556 -0.1313
 6012TIP3    H139451   5.329   4.163  13.896 -0.3403  0.6573  0.0334
 6012TIP3    H239452   5.272   4.268  13.990 -0.2304 -0.4081  1.3251
 6013TIP3   OH239453   6.094   2.554  11.265  0.2773 -0.5053  0.1519
 6013TIP3    H139454   6.001   2.557  11.285  0.2683  2.2863  0.1793
 6013TIP3    H239455   6.099   2.519  11.176 -0.8652 -0.1990 -0.0487
 6014TIP3   OH239456   5.220   2.709   5.976 -0.0199 -0.1809 -0.2281
 6014TIP3    H139457   5.220   2.663   6.060 -0.2453 -0.9526 -0.6380
 6014TIP3    H239458   5.228   2.801   5.999 -0.4286 -0.3542  0.6582
 6015TIP3   OH239459   3.097   3.368  13.194  0.2459 -0.4550  0.6200
 6015TIP3    H139460   3.171   3.413  13.234  0.2655  0.6457 -0.5839
 6015TIP3    H239461   3.034   3.437  13.174  0.4549 -0.8361 -1.6622
 6016TIP3   OH239462   3.262   4.300  15.384 -0.1768  0.0225 -0.1266
 6016TIP3    H139463   3.241   4.209  15.366  1.1585 -0.0963 -1.3068
 6016TIP3    H239464   3.318   4.326  15.311  2.1395  0.8318  1.7970
 6017TIP3   OH239465   6.440   3.593  15.721 -0.8901 -0.0649 -0.5208
 6017TIP3    H139466   6.374   3.589  15.790  0.3967 -1.7518  0.6949
 6017TIP3    H239467   6.438   3.684  15.692 -3.1157  0.1305  0.0667
 6018TIP3   OH239468   3.362   3.126   0.663 -0.1185  0.9896  0.1918
 6018TIP3    H139469   3.301   3.084   0.601  0.0820  1.3820 -0.2700
 6018TIP3    H239470   3.416   3.183   0.609 -0.0827  1.4973  0.7617
 6019TIP3   OH239471   5.404   4.942  15.429 -0.0375 -0.6268  0.5838
 6019TIP3    H139472   5.361   5.019  15.468  1.0508  0.2827  0.0578
 6019TIP3    H239473   5.417   4.882  15.502  0.2272  0.2241  1.2544
 6020TIP3   OH239474   5.750   3.025  11.755 -0.4867 -0.1563 -0.6385
 6020TIP3    H139475   5.707   3.053  11.836  0.5995  0.2132 -0.1619
 6020TIP3    H239476   5.835   3.070  11.757  0.1241 -1.2518 -1.2924
 6021TIP3   OH239477   4.304   4.324  14.081  0.4170  0.0677  0.1771
 6021TIP3    H139478   4.341   4.279  14.157  1.6063  0.4742 -0.1422
 6021TIP3    H239479   4.212   4.335  14.103  0.4858 -0.8746  1.0499
 6022TIP3   OH239480   6.665   2.628  17.167  0.1685  0.3315 -0.3909
 6022TIP3    H139481   6.665   2.587  17.081  2.1894  0.5432 -0.5314
 6022TIP3    H239482   6.669   2.722  17.148  1.1926  0.3576 -0.0770
 6023TIP3   OH239483   1.268   4.035   3.598 -0.6487 -0.4599  0.0647
 6023TIP3    H139484   1.309   4.002   3.518 -1.2044  0.2376 -0.5297
 6023TIP3    H239485   1.311   4.119   3.614 -0.5880 -0.5654  0.4633
 6024TIP3   OH239486   1.794   6.107  13.126 -0.1097 -1.1134 -0.1760
 6024TIP3    H139487   1.885   6.133  13.117  0.1946 -1.3632  1.6656
 6024TIP3    H239488   1.784   6.030  13.071  0.9194 -1.3699 -0.0093
 6025TIP3   OH239489   5.239   4.318  14.862  0.1888  0.0188  0.0540
 6025TIP3    H139490   5.299   4.307  14.788  0.8928 -1.1849  0.7783
 6025TIP3    H239491   5.155   4.338  14.820  0.7996  0.4433 -1.0237
 6026TIP3   OH239492   1.466   1.355   0.265  0.3188 -0.2239  0.2254
 6026TIP3    H139493   1.467   1.360   0.360 -2.4077 -1.5832  0.4296
 6026TIP3    H239494   1.552   1.322   0.241  1.3458  0.9328  2.1242
 6027TIP3   OH239495   4.771   3.746  16.289 -0.3700  0.0856 -0.3576
 6027TIP3    H139496   4.836   3.681  16.315  0.8874  0.9530 -1.1733
 6027TIP3    H239497   4.823   3.823  16.264 -1.7896  1.4250  0.6000
 6028TIP3   OH239498   6.489   5.088  13.029  0.1139 -0.0411 -0.5787
 6028TIP3    H139499   6.457   5.151  13.093 -1.6046  0.1690 -1.5892
 6028TIP3    H239500   6.549   5.032  13.078  1.6461  2.2782  0.3718
 6029TIP3   OH239501   1.035   3.470  13.413  0.1213 -0.7220 -0.4817
 6029TIP3    H139502   1.099   3.537  13.389  0.7412 -0.9722  0.4389
 6029TIP3    H239503   1.077   3.387  13.390  0.5551 -0.9451  1.0017
 6030TIP3   OH239504   1.034   1.306   2.387 -0.2238 -0.7759 -0.3630
 6030TIP3    H139505   1.085   1.370   2.436 -0.9795 -0.5324  0.1189
 6030TIP3    H239506   1.063   1.317   2.296  1.2182 -1.2631  0.0096
 6031TIP3   OH239507   1.206   3.897  13.664  0.4178  0.5815  0.0294
 6031TIP3    H139508   1.227   3.894  13.758 -1.3286  1.9991  0.5224
 6031TIP3    H239509   1.281   3.856  13.622  1.1744 -0.2697  2.0547
 6032TIP3   OH239510   0.609   0.644   1.316 -0.6934 -0.3263  0.1471
 6032TIP3    H139511   0.631   0.701   1.242  1.0661  1.2526  1.8131
 6032TIP3    H239512   0.527   0.680   1.350 -0.5632  0.0513  0.0661
 6033TIP3   OH239513   5.723   6.259   1.365 -0.4216 -0.2428  0.3897
 6033TIP3    H139514   5.774   6.238   1.287 -0.9194  0.3013 -0.0829
 6033TIP3    H239515   5.787   6.296   1.426 -0.0983 -0.3295  0.1074
 6034TIP3   OH239516   1.687   2.246  15.307 -0.4659 -0.6070 -0.2607
 6034TIP3    H139517   1.761   2.259  15.366 -1.8401  0.5312  1.3111
 6034TIP3    H239518   1.699   2.311  15.238 -0.2882 -0.0409  0.2968
 6035TIP3   OH239519   1.311   3.575   5.271 -0.3765  0.5812  0.0259
 6035TIP3    H139520   1.364   3.542   5.198  0.7585  1.2739  0.4992
 6035TIP3    H239521   1.302   3.501   5.330  1.9663  0.9651  0.9759
 6036TIP3   OH239522   2.078   3.952  15.628 -0.6941  0.8189  0.4282
 6036TIP3    H139523   2.087   4.041  15.593  0.4394 -0.0182 -1.6327
 6036TIP3    H239524   2.106   3.895  15.556 -1.7117 -1.2468  1.5544
 6037TIP3   OH239525   2.712   0.021   4.437  0.0963 -0.2741  0.0095
 6037TIP3    H139526   2.640   0.030   4.375  1.9007 -2.4867 -2.6734
 6037TIP3    H239527   2.781   0.078   4.403  0.4146  0.0982  1.2271
 6038TIP3   OH239528   0.377   4.381  16.202  0.0308 -0.0390  0.6855
 6038TIP3    H139529   0.406   4.420  16.119 -0.7901  0.9182  0.8246
 6038TIP3    H239530   0.287   4.353  16.185  0.3043 -1.0411  0.8724
 6039TIP3   OH239531   1.468   6.463  15.035 -0.0854  0.7396  0.1632
 6039TIP3    H139532   1.511   6.491  14.955  0.2404  3.4112  1.1594
 6039TIP3    H239533   1.397   6.526  15.048 -0.5092  0.0163  1.6483
 6040TIP3   OH239534   4.563   4.446   1.488 -0.5013 -0.0372  0.5338
 6040TIP3    H139535   4.597   4.477   1.572  2.2040 -1.7028  0.1597
 6040TIP3    H239536   4.596   4.510   1.424  1.5685 -1.2550  0.2657
 6041TIP3   OH239537   2.987   1.755  16.724  0.3669 -0.5657 -0.0059
 6041TIP3    H139538   2.918   1.789  16.781  0.9657 -0.5276  0.7121
 6041TIP3    H239539   3.063   1.810  16.744  0.7450 -0.9366 -0.4193
 6042TIP3   OH239540   2.045   4.074   0.633 -0.4327 -0.3406  0.1201
 6042TIP3    H139541   1.975   4.081   0.697  0.1771  1.1051  0.6560
 6042TIP3    H239542   2.033   4.149   0.575 -0.3043 -1.0094 -0.8143
 6043TIP3   OH239543   2.326   3.028  14.812 -0.1519 -0.2924 -0.7408
 6043TIP3    H139544   2.338   3.095  14.879  0.6238 -0.5467 -0.6231
 6043TIP3    H239545   2.245   3.053  14.768  0.2673  0.8776 -0.8721
 6044TIP3   OH239546   2.283   5.059  16.629  0.3131  0.2774 -0.2900
 6044TIP3    H139547   2.201   5.089  16.590 -0.6988 -2.4298 -0.4713
 6044TIP3    H239548   2.322   5.003  16.562  1.3454 -0.0113  0.5238
 6045TIP3   OH239549   0.669   4.253  14.842 -0.8330 -0.0758 -0.0192
 6045TIP3    H139550   0.632   4.253  14.754 -1.9687 -0.7239  0.4304
 6045TIP3    H239551   0.594   4.235  14.899  0.2184 -1.7257  0.9239
 6046TIP3   OH239552   6.659   1.660   2.315 -0.1830  0.1584  0.3146
 6046TIP3    H139553   6.631   1.638   2.226 -1.0874 -0.2617  0.6804
 6046TIP3    H239554   6.590   1.623   2.370  0.8363 -0.4173  1.2470
 6047TIP3   OH239555   1.125   5.851   0.295 -0.0770  0.1468 -0.2171
 6047TIP3    H139556   1.036   5.884   0.307 -0.0357  0.0077  0.4944
 6047TIP3    H239557   1.131   5.776   0.355  1.7039  2.3232  2.5753
 6048TIP3   OH239558   4.785   5.990   1.778 -0.2440  0.2376  0.2290
 6048TIP3    H139559   4.758   6.049   1.708 -1.2107  0.2316  0.5840
 6048TIP3    H239560   4.807   6.048   1.851  0.6903  0.2400 -0.0378
 6049TIP3   OH239561   5.610   4.552  14.800  0.0816  0.3392  0.0422
 6049TIP3    H139562   5.616   4.548  14.895 -0.3986 -0.4796  0.0469
 6049TIP3    H239563   5.700   4.568  14.771  0.5231 -1.0361  0.5661
 6050TIP3   OH239564   5.284   6.398  12.460 -0.3668  0.1395 -0.0397
 6050TIP3    H139565   5.243   6.394  12.546 -1.3817  1.0463 -0.4604
 6050TIP3    H239566   5.355   6.462  12.471 -0.5682  0.3410  0.0974
 6051TIP3   OH239567   2.361   4.594   2.430  0.1269 -0.0461  0.1545
 6051TIP3    H139568   2.387   4.679   2.466  0.5760  0.2278 -0.7821
 6051TIP3    H239569   2.421   4.531   2.471  1.5487  0.4339 -1.0980
 6052TIP3   OH239570   4.308   1.150  11.135 -0.5735  0.0125  0.7018
 6052TIP3    H139571   4.352   1.115  11.212 -0.9365 -0.8932  0.5168
 6052TIP3    H239572   4.276   1.072  11.089 -1.0330  0.5796  0.0455
 6053TIP3   OH239573   2.188   6.722   2.943 -0.1206  0.8642 -0.1349
 6053TIP3    H139574   2.250   6.783   2.902 -1.6047  1.5174 -1.5087
 6053TIP3    H239575   2.126   6.779   2.990  0.6005  0.1974  1.7207
 6054TIP3   OH239576   3.940   2.517  14.488 -0.6639  0.0240  0.2582
 6054TIP3    H139577   3.877   2.445  14.493 -1.1857  0.3791 -0.8570
 6054TIP3    H239578   3.998   2.493  14.415 -1.0267  0.8652 -0.3183
 6055TIP3   OH239579   0.069   3.600  13.546 -0.2429 -0.2722 -0.2079
 6055TIP3    H139580   0.075   3.696  13.552  1.1187 -0.3053 -0.6092
 6055TIP3    H239581   0.111   3.569  13.626 -1.7855 -0.5550  0.5302
 6056TIP3   OH239582   0.131   6.185   5.418  0.5404 -0.8357 -0.0678
 6056TIP3    H139583   0.059   6.242   5.391  1.0689 -1.1330 -2.2355
 6056TIP3    H239584   0.183   6.239   5.478 -0.2091  0.1614 -0.2873
 6057TIP3   OH239585   1.186   4.877   5.491  0.4767 -0.2033 -0.1761
 6057TIP3    H139586   1.198   4.937   5.564 -2.3841  3.4460 -2.3563
 6057TIP3    H239587   1.110   4.824   5.514  0.3511  0.0544  0.0017
 6058TIP3   OH239588   3.347   6.275  13.726  0.1305  0.5843  0.0319
 6058TIP3    H139589   3.435   6.291  13.693 -0.1993  0.1902 -1.0888
 6058TIP3    H239590   3.344   6.181  13.744  0.8388  1.0158  2.9041
 6059TIP3   OH239591   5.220   0.809  17.119  0.3192 -0.2757 -0.1350
 6059TIP3    H139592   5.314   0.793  17.111  0.5282  1.0767 -0.7391
 6059TIP3    H239593   5.205   0.888  17.067 -0.9114  0.3366  1.0979
 6060TIP3   OH239594   4.282   2.625  14.727 -0.3760 -0.4643 -0.3057
 6060TIP3    H139595   4.348   2.678  14.772 -0.2057 -1.1505  0.2773
 6060TIP3    H239596   4.331   2.580  14.658 -0.7748  1.1543 -1.6980
 6061TIP3   OH239597   4.555   1.981   0.292 -0.4237  0.2200  0.5053
 6061TIP3    H139598   4.617   1.929   0.344  3.0578  2.9242 -0.4859
 6061TIP3    H239599   4.534   1.925   0.217 -1.0390 -1.6104  1.9618
 6062TIP3   OH239600   3.296   2.693   4.254  0.0640  0.5238 -0.0499
 6062TIP3    H139601   3.381   2.737   4.260  0.5924 -0.2993 -1.3408
 6062TIP3    H239602   3.244   2.734   4.324  0.6818  2.8437 -0.8491
 6063TIP3   OH239603   2.106   3.165   3.472 -0.3118  0.5367  0.3610
 6063TIP3    H139604   2.100   3.229   3.542  0.5076 -2.3574  3.3273
 6063TIP3    H239605   2.030   3.108   3.485 -0.8213  0.5741 -1.9400
 6064TIP3   OH239606   4.552   5.678   1.237 -0.5519 -0.5816 -0.3436
 6064TIP3    H139607   4.503   5.621   1.178 -2.1326 -1.0921  1.3690
 6064TIP3    H239608   4.562   5.627   1.317  2.5039 -0.3326 -0.4332
 6065TIP3   OH239609   3.255   5.628   0.477 -0.1989 -0.1219 -0.5181
 6065TIP3    H139610   3.327   5.683   0.506 -2.2798  1.3097  2.3973
 6065TIP3    H239611   3.208   5.681   0.412  0.5947 -0.5658 -1.4878
 6066TIP3   OH239612   6.010   1.394   2.357 -0.1225  0.2883  0.2745
 6066TIP3    H139613   5.920   1.418   2.380 -0.1122  0.1943  0.4152
 6066TIP3    H239614   6.065   1.452   2.409 -0.1006  0.8193 -0.3213
 6067TIP3   OH239615   4.308   3.959  16.165  0.0815  0.0802  0.3325
 6067TIP3    H139616   4.401   3.967  16.186  0.0256  1.3910  0.1992
 6067TIP3    H239617   4.287   4.041  16.120 -1.2693  0.0406  0.8485
 6068TIP3   OH239618   5.969   0.071  13.260 -0.1616 -0.2500  0.3047
 6068TIP3    H139619   5.923   0.031  13.186  0.1046 -0.0584  0.0337
 6068TIP3    H239620   5.962   0.007  13.331 -2.0972  0.3597  0.7408
 6069TIP3   OH239621   6.489   2.308  12.692 -0.4818  0.1537  0.1503
 6069TIP3    H139622   6.512   2.393  12.653 -1.5146  0.1871 -0.4411
 6069TIP3    H239623   6.396   2.298  12.672 -0.2288 -1.4116 -0.3288
 6070TIP3   OH239624   2.995   6.482   5.433 -0.4656 -0.1645 -0.4720
 6070TIP3    H139625   3.017   6.410   5.491 -1.7394 -1.5086 -1.5870
 6070TIP3    H239626   2.936   6.537   5.484 -0.8187 -0.8255 -0.1637
 6071TIP3   OH239627   3.016   5.237   0.614 -0.2724  0.3169 -0.4237
 6071TIP3    H139628   2.991   5.235   0.521  0.6222  0.4588 -0.6836
 6071TIP3    H239629   3.011   5.330   0.638 -1.2932  0.1837 -0.0952
 6072TIP3   OH239630   1.310   6.224   1.855  0.4713  0.1035 -0.4754
 6072TIP3    H139631   1.216   6.220   1.837  0.0121 -1.9729  1.9027
 6072TIP3    H239632   1.317   6.266   1.940  1.8614  1.4827 -1.2071
 6073TIP3   OH239633   5.921   0.045  10.916  0.5739  0.0327  0.1136
 6073TIP3    H139634   5.859  -0.028  10.917  0.2119  0.3250  1.6926
 6073TIP3    H239635   6.002   0.006  10.880 -0.2728 -0.5283 -1.2705
 6074TIP3   OH239636   1.319   3.634  11.751  0.1548  0.5623 -0.5016
 6074TIP3    H139637   1.283   3.665  11.834  1.4086 -0.4036  0.4593
 6074TIP3    H239638   1.251   3.651  11.686 -0.8119  1.4297  0.7157
 6075TIP3   OH239639   0.267   4.172   4.513 -0.6430 -0.4199 -0.3569
 6075TIP3    H139640   0.334   4.237   4.494  0.0737 -0.5197  1.6130
 6075TIP3    H239641   0.284   4.100   4.453  0.9814 -0.4001  0.0527
 6076TIP3   OH239642   0.569   5.128  16.630  0.4844  0.0853 -0.1737
 6076TIP3    H139643   0.560   5.223  16.635 -0.6895 -0.0004 -0.3409
 6076TIP3    H239644   0.606   5.112  16.543 -1.1473  0.3155 -0.9598
 6077TIP3   OH239645   1.301   0.236   4.747  0.4284  0.4367  0.4558
 6077TIP3    H139646   1.338   0.215   4.833  1.0104  1.4277  0.4688
 6077TIP3    H239647   1.235   0.303   4.766  0.3405  0.4348  0.1622
 6078TIP3   OH239648   1.976   2.089  11.418 -0.0363 -0.0256  0.1895
 6078TIP3    H139649   2.054   2.044  11.386  1.0599  1.5169  0.5535
 6078TIP3    H239650   1.939   2.131  11.340  2.0088  2.8128  0.5895
 6079TIP3   OH239651   1.175   1.895   0.094  0.8290 -0.1693  0.1490
 6079TIP3    H139652   1.094   1.881   0.142 -1.0084 -2.4043 -3.2168
 6079TIP3    H239653   1.243   1.857   0.149 -0.6413 -0.0049  2.1878
 6080TIP3   OH239654   5.095   5.062  13.168  0.6446  0.3846  0.4411
 6080TIP3    H139655   5.112   4.968  13.171 -0.6728  0.0858 -0.5529
 6080TIP3    H239656   5.030   5.077  13.237 -0.2306  0.2931 -0.3425
 6081TIP3   OH239657   5.213   3.204  13.755 -0.6674  0.0578  0.1504
 6081TIP3    H139658   5.223   3.223  13.662  1.7134 -1.4143  0.0124
 6081TIP3    H239659   5.164   3.278  13.790  0.7086  2.0078 -1.7918
 6082TIP3   OH239660   2.453   2.509   3.333 -0.0770 -0.4799  0.6983
 6082TIP3    H139661   2.483   2.449   3.401 -2.5041 -1.0695  1.3432
 6082TIP3    H239662   2.380   2.556   3.373  0.8378  1.9259 -0.2703
 6083TIP3   OH239663   0.105   3.364   2.497  0.7998 -0.2010  0.1276
 6083TIP3    H139664   0.178   3.422   2.478  0.6464 -0.5032 -1.4943
 6083TIP3    H239665   0.095   3.310   2.418 -2.3760  1.1203 -0.5169
 6084TIP3   OH239666   1.075   3.045   0.784  0.0272 -0.2586  0.3709
 6084TIP3    H139667   1.149   3.083   0.831  1.8687 -0.1335 -2.4286
 6084TIP3    H239668   1.077   3.085   0.698 -2.8019 -0.9425 -0.1161
 6085TIP3   OH239669   2.063   1.764  11.346  0.2666  0.5732  0.0022
 6085TIP3    H139670   2.009   1.834  11.309 -0.4716 -0.1539 -0.3276
 6085TIP3    H239671   2.020   1.743  11.430 -1.7714 -1.9561 -1.5045
 6086TIP3   OH239672   0.727   6.241  11.178  0.2244 -0.0173  0.4301
 6086TIP3    H139673   0.793   6.201  11.234  0.7666 -0.2577 -0.3579
 6086TIP3    H239674   0.752   6.333  11.173  0.3885 -0.0689  0.2922
 6087TIP3   OH239675   1.785   1.976  12.130 -0.1855 -0.2355  0.2540
 6087TIP3    H139676   1.780   1.890  12.088  2.5116 -0.7515  0.7566
 6087TIP3    H239677   1.739   1.966  12.213  2.2991 -2.1579  1.5724
 6088TIP3   OH239678   0.218   4.476  11.405 -0.3238 -0.5214  0.6372
 6088TIP3    H139679   0.182   4.565  11.396  0.7570  0.0976  2.0013
 6088TIP3    H239680   0.301   4.489  11.452 -0.0771 -2.2509  0.7236
 6089TIP3   OH239681   2.184   3.073  10.796  0.2672  0.0741  0.7815
 6089TIP3    H139682   2.120   3.141  10.819  0.3055 -0.3762  2.3156
 6089TIP3    H239683   2.208   3.093  10.705 -1.7826  0.4574  0.2676
 6090TIP3   OH239684   4.414   0.619  12.407 -0.0532  0.5928  0.1192
 6090TIP3    H139685   4.348   0.620  12.476 -1.7568 -0.9160 -1.3679
 6090TIP3    H239686   4.364   0.631  12.326  1.5233 -0.2655 -1.0343
 6091TIP3   OH239687   2.406   5.201  10.943  0.0747  0.0087  0.5889
 6091TIP3    H139688   2.400   5.294  10.963 -1.4316 -0.0459  0.5200
 6091TIP3    H239689   2.332   5.185  10.884  0.1945 -1.2770  0.7669
 6092TIP3   OH239690   3.672   2.980   3.890  0.3235 -0.3317 -0.1046
 6092TIP3    H139691   3.723   3.053   3.925 -0.0910 -0.8733  1.7221
 6092TIP3    H239692   3.680   2.989   3.795  0.5219  1.9116  0.0706
 6093TIP3   OH239693   4.360   2.177   0.339 -0.4015  0.2504 -0.0629
 6093TIP3    H139694   4.377   2.083   0.333 -0.9675  0.1835 -0.6919
 6093TIP3    H239695   4.370   2.209   0.250  0.1706  0.8635  0.2086
 6094TIP3   OH239696   4.634   1.932   5.475  0.1505 -0.0403  0.2969
 6094TIP3    H139697   4.675   1.883   5.547 -0.5369 -1.2586 -0.1066
 6094TIP3    H239698   4.544   1.948   5.506  0.3232  0.8496  0.3567
 6095TIP3   OH239699   2.499   5.645  11.704  0.1359 -0.2488 -0.8651
 6095TIP3    H139700   2.493   5.740  11.693 -1.5597 -0.3908 -1.3762
 6095TIP3    H239701   2.488   5.631  11.798  1.2884  0.1031 -0.6655
 6096TIP3   OH239702   5.806   5.482  15.149  0.0129 -0.1862 -0.0760
 6096TIP3    H139703   5.893   5.488  15.109  0.1472  0.2254  0.2716
 6096TIP3    H239704   5.746   5.477  15.074  0.3378 -0.5228 -0.3156
 6097TIP3   OH239705   1.799   6.450  15.153 -0.0629  0.0623  0.1658
 6097TIP3    H139706   1.765   6.369  15.114 -0.2069 -0.3879  1.2087
 6097TIP3    H239707   1.837   6.423  15.236 -1.1158  1.2118  1.0693
 6098TIP3   OH239708   0.747   3.100   0.442 -0.5162 -0.0967  0.8572
 6098TIP3    H139709   0.790   3.126   0.360 -1.2690  1.2917  0.8774
 6098TIP3    H239710   0.766   3.006   0.450 -1.5990 -0.6211 -1.6542
 6099TIP3   OH239711   0.538   1.155   4.092  0.1281  0.1901 -0.2157
 6099TIP3    H139712   0.587   1.166   4.011 -0.6421  2.2845 -0.4466
 6099TIP3    H239713   0.593   1.196   4.159  1.2692 -2.4536  0.6113
 6100TIP3   OH239714   2.604   6.127  10.553 -0.3432 -0.4999  0.1865
 6100TIP3    H139715   2.574   6.037  10.565  2.2761 -1.4238  0.3737
 6100TIP3    H239716   2.687   6.119  10.507 -0.9791  1.9830 -1.6378
 6101TIP3   OH239717   3.407   3.643   0.956  0.2825 -0.1359 -0.1008
 6101TIP3    H139718   3.502   3.636   0.953  0.4005  1.3874 -0.7175
 6101TIP3    H239719   3.375   3.558   0.925  1.4446 -0.2545 -1.0119
 6102TIP3   OH239720   5.313   0.590  11.592 -0.5399  0.5557 -0.1930
 6102TIP3    H139721   5.279   0.664  11.643 -0.4135  1.0437 -0.8030
 6102TIP3    H239722   5.361   0.537  11.655  1.5212  2.2998 -0.1735
 6103TIP3   OH239723   1.130   4.366  16.181  0.2660 -0.4108 -0.3714
 6103TIP3    H139724   1.049   4.362  16.131  0.8582 -0.6589 -1.3308
 6103TIP3    H239725   1.125   4.291  16.240 -0.2449 -0.3632 -0.3464
 6104TIP3   OH239726   5.923   0.585  12.087  0.6385  0.6871  0.4036
 6104TIP3    H139727   5.965   0.648  12.030 -0.8597  0.6461 -0.8053
 6104TIP3    H239728   5.855   0.634  12.133 -0.5029  0.0167 -0.5041
 6105TIP3   OH239729   6.441   2.982   2.887 -0.0180  0.3290  0.0825
 6105TIP3    H139730   6.401   3.017   2.966 -0.1737 -0.7454  0.4916
 6105TIP3    H239731   6.373   2.929   2.846 -0.6056  2.4010 -1.8384
 6106TIP3   OH239732   1.056   5.166  12.379 -0.2238 -0.0092 -0.4948
 6106TIP3    H139733   1.110   5.118  12.441  0.0199  1.6224  0.6156
 6106TIP3    H239734   0.969   5.125  12.385  0.0933 -0.6177  0.0362
 6107TIP3   OH239735   4.827   2.259   1.551 -0.1161  0.4054 -0.1054
 6107TIP3    H139736   4.792   2.302   1.473 -0.4088 -0.8493 -0.6916
 6107TIP3    H239737   4.805   2.319   1.623  0.0877  1.5430 -0.9614
 6108TIP3   OH239738   3.617   6.609  16.490 -0.1297 -0.3970  0.0603
 6108TIP3    H139739   3.630   6.560  16.409  1.7659 -0.5078  0.3814
 6108TIP3    H239740   3.611   6.700  16.463 -0.9201 -0.5461 -0.3008
 6109TIP3   OH239741   4.441   3.517  11.916  0.2563  0.3956  0.6419
 6109TIP3    H139742   4.510   3.539  11.854  0.5522 -3.0141 -0.4364
 6109TIP3    H239743   4.388   3.596  11.923  1.5275  1.6146 -2.1919
 6110TIP3   OH239744   0.017   1.175  13.394 -0.5463 -0.2384  0.4395
 6110TIP3    H139745  -0.002   1.269  13.389  0.1413 -0.0751  0.7826
 6110TIP3    H239746  -0.057   1.138  13.442 -0.2259  0.3270  1.4093
 6111TIP3   OH239747   1.916   4.440  13.237 -0.4111 -0.0591 -0.4126
 6111TIP3    H139748   1.983   4.472  13.177  0.1379 -0.1019  0.1680
 6111TIP3    H239749   1.892   4.516  13.289  0.5475 -0.4483  0.6433
 6112TIP3   OH239750   4.994   3.143  13.491 -0.0761 -0.0722 -0.1747
 6112TIP3    H139751   4.902   3.135  13.465 -0.2397 -0.3912  0.4810
 6112TIP3    H239752   5.040   3.080  13.436 -0.8050 -2.8338  2.1641
 6113TIP3   OH239753   0.736   1.618  14.194 -0.3080 -0.0882  0.2817
 6113TIP3    H139754   0.693   1.635  14.110  1.0553 -1.2155 -0.7028
 6113TIP3    H239755   0.792   1.694  14.207 -1.5112  0.7261  0.8763
 6114TIP3   OH239756   4.062   3.770  12.958  0.3072  0.6760  0.3118
 6114TIP3    H139757   4.119   3.760  12.881 -0.7316  1.0995 -0.5295
 6114TIP3    H239758   4.074   3.861  12.984  1.0408  0.3999  0.9757
 6115TIP3   OH239759   4.163   0.534   1.833  0.0288 -0.3443 -0.3601
 6115TIP3    H139760   4.252   0.549   1.800 -0.5832 -0.0076 -1.8962
 6115TIP3    H239761   4.105   0.567   1.764 -1.3132 -2.2206 -0.1894
 6116TIP3   OH239762   5.672   5.299   2.159 -0.0636 -0.0769 -0.1336
 6116TIP3    H139763   5.690   5.360   2.088  2.1943 -1.8923 -1.2418
 6116TIP3    H239764   5.640   5.220   2.116  0.6339 -0.9588  0.8957
 6117TIP3   OH239765   2.118   6.365  15.694  0.2902 -0.3030  0.1946
 6117TIP3    H139766   2.024   6.350  15.679  0.4446 -1.9139  0.6674
 6117TIP3    H239767   2.121   6.446  15.746 -0.8244 -0.1305  0.0184
 6118TIP3   OH239768   6.471   6.142  14.583 -0.5643  0.0669 -0.6652
 6118TIP3    H139769   6.427   6.155  14.667  0.2724  1.9425 -0.4573
 6118TIP3    H239770   6.425   6.068  14.543 -1.5466 -0.3167  1.0530
 6119TIP3   OH239771   0.558   1.299   1.725 -0.3779  0.5512  0.0548
 6119TIP3    H139772   0.535   1.216   1.685 -0.3560  0.8102 -0.5036
 6119TIP3    H239773   0.494   1.362   1.690 -0.6822  0.6822  0.8281
 6120TIP3   OH239774   0.794   2.655  12.885  0.6565  0.4328  0.9070
 6120TIP3    H139775   0.755   2.568  12.876 -0.2922  0.6772  2.2241
 6120TIP3    H239776   0.819   2.680  12.796 -1.5732 -0.0675  0.0671
 6121TIP3   OH239777   4.269   3.744  11.883  0.1559 -0.3979 -0.2636
 6121TIP3    H139778   4.299   3.832  11.904 -1.8010 -0.1803  2.1138
 6121TIP3    H239779   4.205   3.756  11.813 -1.2290  0.3561  1.0588
 6122TIP3   OH239780   1.754   3.011  16.710  0.0609  0.1545 -0.0273
 6122TIP3    H139781   1.736   3.001  16.617  0.3367  0.4734 -0.1130
 6122TIP3    H239782   1.840   3.051  16.715  0.7404 -1.2769  0.3853
 6123TIP3   OH239783   3.146   5.832   0.333  0.7960 -0.1748 -0.6806
 6123TIP3    H139784   3.085   5.906   0.325  0.3859 -0.4794 -0.4381
 6123TIP3    H239785   3.190   5.828   0.249  1.1305  0.6129 -0.5525
 6124TIP3   OH239786   2.739   3.348   2.231 -0.1961  0.3083 -0.0263
 6124TIP3    H139787   2.784   3.384   2.155 -1.7904  1.3639 -0.5301
 6124TIP3    H239788   2.747   3.416   2.298 -0.3597  0.1705  0.1335
 6125TIP3   OH239789   3.323   0.491   5.475 -0.0086  0.7919 -0.0186
 6125TIP3    H139790   3.395   0.494   5.412  0.5790  1.0166  0.6537
 6125TIP3    H239791   3.265   0.424   5.441  1.2971 -0.5299  0.2696
 6126TIP3   OH239792   6.076   1.894   2.388 -0.4257 -0.2582 -0.1499
 6126TIP3    H139793   6.159   1.941   2.385 -1.0439  0.8958  0.2266
 6126TIP3    H239794   6.011   1.957   2.356 -1.1446 -1.1932 -0.6065
 6127TIP3   OH239795   5.937   4.118   0.320 -0.1488  0.0275  0.1947
 6127TIP3    H139796   6.025   4.083   0.331 -0.2778 -0.3580  0.0295
 6127TIP3    H239797   5.900   4.068   0.247 -0.2695  0.6410 -0.1740
 6128TIP3   OH239798   2.071   5.534   3.526 -0.0607 -0.4481  0.1433
 6128TIP3    H139799   2.004   5.582   3.575 -1.0448 -1.6136 -0.0180
 6128TIP3    H239800   2.081   5.584   3.445  3.0156  2.6459  2.1602
 6129TIP3   OH239801   1.852   3.920   2.994 -0.4092 -0.8096 -0.1905
 6129TIP3    H139802   1.887   3.903   3.082 -0.6670  0.5642  0.1942
 6129TIP3    H239803   1.787   3.852   2.981  1.8064 -2.9971 -0.6187
 6130TIP3   OH239804   6.125   5.249  12.452  0.0645  0.3400  0.6631
 6130TIP3    H139805   6.068   5.314  12.411  1.1321 -0.1689 -1.7838
 6130TIP3    H239806   6.086   5.165  12.428  0.6293  0.0306  0.8190
 6131TIP3   OH239807   1.670   2.871  10.331  0.2930 -0.4041  0.6118
 6131TIP3    H139808   1.612   2.862  10.256 -0.2911  1.4795  0.7835
 6131TIP3    H239809   1.692   2.781  10.356 -2.9793 -1.2504  0.8549
 6132TIP3   OH239810   6.234   5.390   3.210  0.1405 -0.1485  0.0912
 6132TIP3    H139811   6.168   5.357   3.270 -2.4190 -0.2745 -2.5884
 6132TIP3    H239812   6.253   5.316   3.152  2.2473  0.0798  0.4161
 6133TIP3   OH239813   5.213   6.703  17.353 -0.2787 -0.4674 -0.5699
 6133TIP3    H139814   5.221   6.790  17.390 -2.0101 -0.4250 -0.2114
 6133TIP3    H239815   5.175   6.717  17.266 -1.1985 -0.8861 -0.2462
 6134TIP3   OH239816   2.948   5.745  14.628 -0.2378 -0.3437 -0.0672
 6134TIP3    H139817   2.956   5.650  14.621 -0.4513 -0.3006 -0.8987
 6134TIP3    H239818   2.971   5.764  14.719  3.3225 -0.8329 -0.7163
 6135TIP3   OH239819   6.434   6.178   4.376  0.1031 -0.4279  0.0477
 6135TIP3    H139820   6.426   6.084   4.359 -0.0492 -0.3868 -0.1146
 6135TIP3    H239821   6.503   6.208   4.318  1.3269 -0.7427  1.2896
 6136TIP3   OH239822   2.395   6.164   0.355  0.1441 -0.5054  0.1818
 6136TIP3    H139823   2.346   6.238   0.391 -0.4180 -0.6058 -0.3649
 6136TIP3    H239824   2.344   6.087   0.379 -1.4361 -0.4588 -2.5923
 6137TIP3   OH239825   0.971   0.090  15.283 -0.1089  0.2552  0.5566
 6137TIP3    H139826   0.966  -0.003  15.302 -2.2873  0.0204 -0.8441
 6137TIP3    H239827   0.987   0.095  15.189 -1.2194  1.2732  0.4002
 6138TIP3   OH239828   2.020   0.083   4.665 -0.6891 -0.1792 -0.2923
 6138TIP3    H139829   2.041   0.002   4.712  0.8623 -0.3435 -1.1825
 6138TIP3    H239830   1.974   0.053   4.587  0.9514 -0.3728 -1.2424
 6139TIP3   OH239831   4.003   4.468   1.375 -0.8792 -0.0440 -0.1996
 6139TIP3    H139832   4.005   4.515   1.292  0.5127  1.5405  0.6683
 6139TIP3    H239833   4.061   4.517   1.432 -0.4975 -2.0215  1.2398
 6140TIP3   OH239834   6.266   0.042   5.180 -0.1761  0.3612 -0.0175
 6140TIP3    H139835   6.203  -0.020   5.217  1.7768 -0.9681  1.2629
 6140TIP3    H239836   6.228   0.066   5.095 -0.9071 -2.8488 -0.7386
 6141TIP3   OH239837   4.565   4.963   6.126  0.2053  0.1068  0.0607
 6141TIP3    H139838   4.613   5.008   6.055 -1.0761  0.2182 -0.7719
 6141TIP3    H239839   4.569   5.024   6.199 -0.0937  0.8679 -0.5358
 6142TIP3   OH239840   5.713   0.182   0.524  0.0721  0.3920 -0.5713
 6142TIP3    H139841   5.666   0.220   0.450 -0.5976  1.0248  0.1508
 6142TIP3    H239842   5.782   0.128   0.485  0.2987  1.4213 -1.6474
 6143TIP3   OH239843   6.514   5.976  12.810 -0.2178  0.3847  0.2458
 6143TIP3    H139844   6.458   6.009  12.740 -1.1722 -0.8856  0.3834
 6143TIP3    H239845   6.461   5.983  12.889 -0.2003 -0.8103  0.3808
 6144TIP3   OH239846   2.957   3.132   2.794  0.1310 -0.1187  0.1509
 6144TIP3    H139847   3.018   3.189   2.839 -0.1736  0.6894 -0.4385
 6144TIP3    H239848   2.892   3.109   2.860  0.0344  0.5509  0.2971
 6145TIP3   OH239849   4.383   3.544  10.266  0.4106 -0.3536  0.5659
 6145TIP3    H139850   4.344   3.583  10.187  1.2580 -1.1902 -0.2926
 6145TIP3    H239851   4.476   3.561  10.257  1.0225 -3.5578 -0.4994
 6146TIP3   OH239852   5.269   6.604  16.559  0.6600  0.1203 -0.1517
 6146TIP3    H139853   5.359   6.574  16.559  0.1814 -1.8812  3.8130
 6146TIP3    H239854   5.271   6.688  16.606  0.3115 -0.7399  1.4403
 6147TIP3   OH239855   6.057   3.709  12.015  0.4326 -0.6292  0.6034
 6147TIP3    H139856   6.101   3.731  11.933 -1.0585 -0.2725 -0.1399
 6147TIP3    H239857   6.052   3.791  12.063  0.8539 -0.7341  0.8275
 6148TIP3   OH239858   3.372   2.507  11.684 -0.2742 -0.1231  0.2628
 6148TIP3    H139859   3.369   2.446  11.610  0.5294 -2.5283  2.1161
 6148TIP3    H239860   3.292   2.491  11.732 -0.0010  0.2209  0.8389
 6149TIP3   OH239861   3.763   5.767  14.017  0.5017 -0.1291 -0.4429
 6149TIP3    H139862   3.758   5.672  14.002 -0.7807 -0.7601  2.9695
 6149TIP3    H239863   3.850   5.792  13.986  0.8427 -2.3887 -1.5098
 6150TIP3   OH239864   5.250   5.568  13.456 -0.9898 -0.4310  0.1099
 6150TIP3    H139865   5.263   5.662  13.468 -1.0120 -0.6248  2.0392
 6150TIP3    H239866   5.182   5.561  13.389 -1.0288  0.9211 -0.0185
 6151TIP3   OH239867   2.695   1.761  10.475  0.3612 -0.4221 -0.0291
 6151TIP3    H139868   2.771   1.810  10.445  0.2535 -1.0421 -1.4062
 6151TIP3    H239869   2.631   1.770  10.404 -1.2330  0.8758  1.5115
 6152TIP3   OH239870   1.454   4.599   6.253 -0.3856 -0.0388 -0.0361
 6152TIP3    H139871   1.536   4.637   6.222  0.8179 -1.3934  1.2851
 6152TIP3    H239872   1.477   4.508   6.273 -1.9320 -0.1592  1.3745
 6153TIP3   OH239873   4.264   2.062   4.314  0.0126 -0.1909 -0.5498
 6153TIP3    H139874   4.271   2.126   4.243 -1.0430 -1.5179 -1.9238
 6153TIP3    H239875   4.277   2.113   4.394 -0.8419  1.7384 -1.5814
 6154TIP3   OH239876   6.659   5.284   2.066  0.0839 -0.0193  0.4150
 6154TIP3    H139877   6.713   5.330   2.131  0.3782 -2.1745  1.8113
 6154TIP3    H239878   6.696   5.195   2.063 -2.5978 -1.2280  0.4964
 6155TIP3   OH239879   2.962   0.858  10.361  0.0533  0.5089 -0.4679
 6155TIP3    H139880   2.909   0.936  10.373 -0.6838  0.0583 -0.6844
 6155TIP3    H239881   3.028   0.883  10.296 -0.4305  0.8335 -0.8405
 6156TIP3   OH239882   1.044   3.960  11.376 -0.1287 -0.1484 -0.3829
 6156TIP3    H139883   1.057   4.024  11.306 -0.1359  2.4343  1.8529
 6156TIP3    H239884   1.113   3.978  11.439 -1.1271 -1.2570  1.1015
 6157TIP3   OH239885   2.254   6.463  14.420 -0.4733  0.1550 -0.3010
 6157TIP3    H139886   2.280   6.396  14.483  1.3629  0.1437 -1.0265
 6157TIP3    H239887   2.158   6.461  14.422 -0.5879 -3.4703 -1.2724
 6158TIP3   OH239888   2.418   1.631  17.062 -0.2939 -0.0655 -0.5560
 6158TIP3    H139889   2.420   1.598  17.152 -2.9525  1.0775  0.0192
 6158TIP3    H239890   2.485   1.581  17.016 -1.1642 -3.1080  1.2454
 6159TIP3   OH239891   6.142   4.768  15.657  0.0597 -0.2920  0.3831
 6159TIP3    H139892   6.223   4.737  15.617  0.7452  1.4960  0.2750
 6159TIP3    H239893   6.148   4.742  15.748  0.2797 -1.0392  0.1632
 6160TIP3   OH239894   2.166   4.011   3.558  0.3491 -0.3817 -0.5215
 6160TIP3    H139895   2.259   4.011   3.534  0.4250 -0.8840 -0.2314
 6160TIP3    H239896   2.121   3.982   3.478  0.6091 -2.1050 -0.0959
 6161TIP3   OH239897   6.680   4.413  12.748  0.0496 -0.4083 -0.3692
 6161TIP3    H139898   6.623   4.490  12.756 -0.4798 -0.9558  1.7641
 6161TIP3    H239899   6.626   4.340  12.780  0.9670 -1.4681 -1.1517
 6162TIP3   OH239900   6.647   0.247  16.671 -0.1984 -0.3771 -0.3639
 6162TIP3    H139901   6.716   0.309  16.693 -1.2768  0.6722  0.1806
 6162TIP3    H239902   6.568   0.301  16.666 -0.4124 -0.6683 -5.3165
 6163TIP3   OH239903   4.320   4.554  13.674  0.1800 -0.3914 -0.3102
 6163TIP3    H139904   4.406   4.517  13.656  1.2505  2.2443 -0.9697
 6163TIP3    H239905   4.273   4.548  13.591  0.8476  0.9009 -0.8067
 6164TIP3   OH239906   3.918   6.357  13.963 -0.9425  0.5374  0.2713
 6164TIP3    H139907   3.941   6.269  13.934 -2.1091  0.0510  0.7908
 6164TIP3    H239908   3.989   6.412  13.930  0.2076 -0.7001  0.6107
 6165TIP3   OH239909   2.960   5.040   5.471 -0.1557  0.2123  0.8026
 6165TIP3    H139910   2.981   5.131   5.493  0.8312  0.1477  0.1358
 6165TIP3    H239911   3.026   4.988   5.516  1.8499  0.0589 -2.0630
 6166TIP3   OH239912   1.900   2.888   4.073  0.6242 -0.0347 -0.1790
 6166TIP3    H139913   1.915   2.942   4.151 -0.6780  0.2477 -0.1114
 6166TIP3    H239914   1.955   2.929   4.006 -0.8285  1.8553 -0.3224
 6167TIP3   OH239915   6.037   3.430  15.743  0.4122 -0.5912 -0.0299
 6167TIP3    H139916   5.974   3.361  15.719  1.2967 -1.5653  0.3405
 6167TIP3    H239917   6.121   3.385  15.746  0.8077  0.1588  1.7542
 6168TIP3   OH239918   4.580   4.197  16.263  0.2404  0.1203  0.6075
 6168TIP3    H139919   4.527   4.263  16.218  0.4351  0.0860  0.3278
 6168TIP3    H239920   4.628   4.246  16.329  0.0137  0.1836  0.7252
 6169TIP3   OH239921   4.626   3.535  16.667 -0.4374  0.3763  0.6609
 6169TIP3    H139922   4.545   3.573  16.700 -1.0033  0.0689 -0.3152
 6169TIP3    H239923   4.609   3.441  16.663 -0.2190  0.3539  0.0043
 6170TIP3   OH239924   6.653   3.065   4.605 -0.1355 -0.3856  0.5198
 6170TIP3    H139925   6.734   3.013   4.607 -0.2692 -0.6122  0.1212
 6170TIP3    H239926   6.584   3.001   4.584 -0.6070 -0.4391  2.0838
 6171TIP3   OH239927   6.576   3.396  14.621 -0.0873  0.3786  0.0967
 6171TIP3    H139928   6.638   3.461  14.588  0.7738 -0.1957  0.5356
 6171TIP3    H239929   6.597   3.316  14.573  1.2282 -0.4858  1.9984
 6172TIP3   OH239930   2.224   0.860   0.797  0.1701  0.1427  0.2041
 6172TIP3    H139931   2.310   0.900   0.805  0.0316  0.7655 -1.2416
 6172TIP3    H239932   2.166   0.918   0.846  0.4661  0.0133  0.7212
 6173TIP3   OH239933   6.158   4.922  14.151  0.0057 -0.5945 -0.1140
 6173TIP3    H139934   6.224   4.876  14.202  1.0580 -0.3303 -1.1974
 6173TIP3    H239935   6.207   4.985  14.099 -1.0996 -0.3532 -0.9124
 6174TIP3   OH239936   1.287   0.201  10.736  0.4923 -0.4897 -0.4471
 6174TIP3    H139937   1.374   0.165  10.718  0.7820 -0.2589  0.4663
 6174TIP3    H239938   1.234   0.174  10.660  1.1767 -1.2120 -0.6826
 6175TIP3   OH239939   5.899   4.533   5.197  0.3634  0.3397 -0.1229
 6175TIP3    H139940   5.863   4.547   5.110  0.6542  2.4136  0.0344
 6175TIP3    H239941   5.849   4.459   5.232 -1.5797  1.1196 -1.0827
 6176TIP3   OH239942   0.296   5.301  12.194 -0.0889  0.6270  0.1607
 6176TIP3    H139943   0.347   5.344  12.262 -1.0078  1.2822  0.4589
 6176TIP3    H239944   0.217   5.355  12.186 -0.2753  0.2180 -0.9931
 6177TIP3   OH239945   3.388   0.568  12.504 -0.0786 -0.0349  0.4961
 6177TIP3    H139946   3.352   0.567  12.416 -1.3610 -0.7656  1.0030
 6177TIP3    H239947   3.312   0.578  12.561  0.6441 -0.3814  1.5535
 6178TIP3   OH239948   2.406   3.506   1.185 -0.3339  0.2197 -0.4542
 6178TIP3    H139949   2.423   3.414   1.164 -1.4279 -0.0411 -0.2518
 6178TIP3    H239950   2.423   3.552   1.103  0.7974 -0.0767 -0.4004
 6179TIP3   OH239951   1.951   3.934  15.293  0.2206 -0.2938  0.2289
 6179TIP3    H139952   1.906   3.850  15.306 -1.4688  0.7330  1.5634
 6179TIP3    H239953   2.043   3.911  15.279  0.2121 -2.2983  2.7650
 6180TIP3   OH239954   1.720   2.627   4.746  0.0394  0.1825  0.0266
 6180TIP3    H139955   1.773   2.608   4.669  0.9085 -0.5481  0.7723
 6180TIP3    H239956   1.712   2.543   4.791 -1.0112  0.4647  0.3994
 6181TIP3   OH239957   4.896   0.535   4.507 -0.3754 -0.0879 -0.4972
 6181TIP3    H139958   4.966   0.508   4.566 -2.1345 -2.4146  0.7064
 6181TIP3    H239959   4.935   0.534   4.420  1.2133 -0.7991  0.1958
 6182TIP3   OH239960   4.129   4.751  13.380  0.1581  0.2928  0.4862
 6182TIP3    H139961   4.191   4.679  13.388 -0.2244  0.1360  2.8680
 6182TIP3    H239962   4.183   4.830  13.383  0.3382  0.1422  1.8235
 6183TIP3   OH239963   3.993   2.344   6.088  1.0991 -0.1217 -0.4633
 6183TIP3    H139964   3.958   2.270   6.137  2.1517 -0.4465 -0.1755
 6183TIP3    H239965   4.064   2.378   6.143  0.8761  0.8720 -0.7583
 6184TIP3   OH239966   0.144   2.367  13.191 -0.5232 -0.7962 -0.3156
 6184TIP3    H139967   0.233   2.353  13.158 -0.4251 -1.0240  0.0442
 6184TIP3    H239968   0.136   2.462  13.198 -0.2034 -0.7842 -0.0724
 6185TIP3   OH239969   5.230   5.280   1.241  0.1436  0.3021 -0.5278
 6185TIP3    H139970   5.239   5.351   1.178  1.1091  0.2654 -0.4406
 6185TIP3    H239971   5.205   5.323   1.323 -0.3182  0.4322 -0.7374
 6186TIP3   OH239972   2.471   3.882   5.387 -0.2219  0.2598 -0.0135
 6186TIP3    H139973   2.531   3.822   5.343 -0.4562 -0.5700  0.7667
 6186TIP3    H239974   2.427   3.828   5.453 -1.1521  1.0707  0.0512
 6187TIP3   OH239975   1.346   0.241   1.823 -0.1906  1.3327 -0.2649
 6187TIP3    H139976   1.330   0.304   1.893 -1.1041 -0.0718  0.8526
 6187TIP3    H239977   1.267   0.187   1.821  0.5607  0.2189 -1.1599
 6188TIP3   OH239978   3.371   6.554  11.326 -0.7609 -0.0753 -0.0771
 6188TIP3    H139979   3.465   6.540  11.313 -0.9059 -0.6272 -0.5470
 6188TIP3    H239980   3.352   6.636  11.280 -0.2843  0.6932  1.0442
 6189TIP3   OH239981   3.664   1.898   3.135  0.1474 -0.8347  0.0578
 6189TIP3    H139982   3.662   1.992   3.118 -0.0036 -1.0188 -1.0392
 6189TIP3    H239983   3.753   1.872   3.113 -0.1913 -1.1646 -0.9787
 6190TIP3   OH239984   2.631   5.914  10.934 -0.1757 -0.6531  0.4633
 6190TIP3    H139985   2.558   5.860  10.904 -1.4058  0.4451  1.3538
 6190TIP3    H239986   2.692   5.914  10.861 -0.9508 -1.7876 -0.2209
 6191TIP3   OH239987   5.393   1.316  13.044 -0.2417 -0.0431 -0.7158
 6191TIP3    H139988   5.376   1.409  13.025 -0.4544  0.2155  0.6076
 6191TIP3    H239989   5.381   1.309  13.139  0.6341 -1.2489 -0.6722
 6192TIP3   OH239990   1.203   2.932   3.463 -0.2542 -0.1255  0.0574
 6192TIP3    H139991   1.121   2.884   3.475 -0.7779  0.8155  0.3477
 6192TIP3    H239992   1.178   3.010   3.415  0.1862  0.9401  1.4930
 6193TIP3   OH239993   5.944   3.357   0.936  0.1471  0.5235  0.0492
 6193TIP3    H139994   5.853   3.374   0.958 -0.1019  1.8820 -1.7371
 6193TIP3    H239995   5.955   3.263   0.951 -1.0048  0.6396  1.9822
 6194TIP3   OH239996   1.146   5.594   5.998  0.4904 -0.0309  0.3866
 6194TIP3    H139997   1.238   5.573   6.009  0.8721  0.7607 -1.0318
 6194TIP3    H239998   1.142   5.689   6.003 -0.2336 -0.0517  0.3268
 6195TIP3   OH239999   4.303   4.698  11.546 -0.0704 -0.0503  0.2209
 6195TIP3    H140000   4.221   4.707  11.497 -0.2034  1.7795  0.6881
 6195TIP3    H240001   4.372   4.701  11.479 -0.3328 -0.0657 -0.0497
 6196TIP3   OH240002   2.464   4.529  11.400 -0.2890  0.5045  0.1199
 6196TIP3    H140003   2.500   4.452  11.445  0.3111  0.4360 -0.4579
 6196TIP3    H240004   2.464   4.504  11.307  0.6656  1.4821 -0.1658
 6197TIP3   OH240005   4.659   4.918  13.026  0.9463 -0.0196  0.1701
 6197TIP3    H140006   4.713   4.929  12.948  0.0370  1.9838 -0.2461
 6197TIP3    H240007   4.570   4.931  12.995  0.6228  1.5904  1.6326
 6198TIP3   OH240008   5.148   3.305   6.638  0.0277  0.1788 -0.1432
 6198TIP3    H140009   5.092   3.323   6.563  2.0465  0.9354 -1.5663
 6198TIP3    H240010   5.173   3.213   6.628 -0.2152  0.1062 -0.0614
 6199TIP3   OH240011   0.706   0.582   1.933 -0.4294  0.4367  0.1883
 6199TIP3    H140012   0.795   0.599   1.962 -0.2676  0.7926 -0.4925
 6199TIP3    H240013   0.694   0.488   1.942  0.1448  0.3381 -0.0788
 6200TIP3   OH240014   3.180   3.204  12.340 -0.3690  0.0254 -0.1749
 6200TIP3    H140015   3.150   3.268  12.276  0.3140 -0.2672 -0.8157
 6200TIP3    H240016   3.255   3.245  12.382 -1.9714  1.0049  1.8582
 6201TIP3   OH240017   1.183   0.838  14.186 -0.6523  0.0039  0.0634
 6201TIP3    H140018   1.274   0.808  14.186 -0.7168 -0.2235  1.0150
 6201TIP3    H240019   1.190   0.933  14.174 -0.3229 -0.0732 -0.4053
 6202TIP3   OH240020   3.077   6.622   2.083 -0.4589 -0.0982 -0.6552
 6202TIP3    H140021   3.129   6.686   2.033  1.4338 -1.8888 -1.1221
 6202TIP3    H240022   3.077   6.543   2.028  0.5874 -1.7412  1.5493
 6203TIP3   OH240023   2.887   5.587   0.262  0.8365 -0.1253 -0.1322
 6203TIP3    H140024   2.932   5.670   0.244 -0.5556  0.7028  0.0687
 6203TIP3    H240025   2.933   5.523   0.208  0.4291  1.2316 -2.1978
 6204TIP3   OH240026   0.740   6.103   2.772  0.1553  0.1222  0.2033
 6204TIP3    H140027   0.717   6.060   2.690 -0.9380  0.1521  0.4786
 6204TIP3    H240028   0.656   6.120   2.815  0.6980  0.3075  1.2282
 6205TIP3   OH240029   2.306   5.699   5.546  0.1609 -0.1776  0.1458
 6205TIP3    H140030   2.244   5.634   5.576  1.6620 -1.6145  0.2895
 6205TIP3    H240031   2.273   5.726   5.460 -0.8441 -0.6254  0.3787
 6206TIP3   OH240032   4.635   6.548  14.683 -0.4340 -0.2993 -0.6435
 6206TIP3    H140033   4.626   6.456  14.708  0.7623 -0.4314 -0.6270
 6206TIP3    H240034   4.730   6.564  14.684 -0.6061  0.8472 -0.9564
 6207TIP3   OH240035   5.044   4.780  16.353  0.8478  0.2333  0.1414
 6207TIP3    H140036   5.111   4.798  16.419  1.8086  0.3356 -0.8276
 6207TIP3    H240037   5.074   4.701  16.309  0.7487  0.7137 -0.8207
 6208TIP3   OH240038   5.021   1.486  15.180  0.1268 -0.5363 -0.0169
 6208TIP3    H140039   4.955   1.485  15.111  1.1090 -0.7426 -0.9990
 6208TIP3    H240040   5.008   1.405  15.227 -1.7809  0.4718  1.2910
 6209TIP3   OH240041   6.431   3.292   0.260  0.0452 -0.0272 -0.4003
 6209TIP3    H140042   6.347   3.246   0.252  0.4765 -0.7785 -0.7577
 6209TIP3    H240043   6.496   3.226   0.237  0.8063  0.2504  0.8718
 6210TIP3   OH240044   3.693   0.089   5.635  0.2053 -0.2185  0.4828
 6210TIP3    H140045   3.701   0.109   5.542 -0.9879  1.2616  0.6464
 6210TIP3    H240046   3.780   0.104   5.671  1.1144 -2.3841 -0.6084
 6211TIP3   OH240047   2.528   4.656   1.497 -0.6825 -0.4126 -0.5689
 6211TIP3    H140048   2.512   4.706   1.417  2.4900  1.0370 -0.4567
 6211TIP3    H240049   2.624   4.653   1.504 -0.7865  0.5812  3.7895
 6212TIP3   OH240050   3.374   4.286  14.721  0.3748 -0.0577 -0.0262
 6212TIP3    H140051   3.345   4.361  14.668  1.7096  0.1045 -0.5708
 6212TIP3    H240052   3.297   4.230  14.727 -0.2056  0.6076 -0.9523
 6213TIP3   OH240053   1.241   2.902   6.435  0.2489  0.2953  0.3868
 6213TIP3    H140054   1.148   2.902   6.456  0.0571 -0.8775 -0.3696
 6213TIP3    H240055   1.281   2.848   6.503  0.2749  0.2385  0.3271
 6214TIP3   OH240056   4.239   2.936  15.504  0.5323 -0.3168 -0.2072
 6214TIP3    H140057   4.194   3.018  15.480  1.2023  0.2496  0.4250
 6214TIP3    H240058   4.305   2.963  15.568  0.9114 -1.3287 -0.1589
 6215TIP3   OH240059   4.637   0.804   3.291  0.1542  0.0263 -0.2327
 6215TIP3    H140060   4.583   0.867   3.339 -0.1430  0.6160 -1.3015
 6215TIP3    H240061   4.664   0.740   3.357 -1.5473 -0.0891  0.4063
 6216TIP3   OH240062   0.828   1.428  14.519 -0.1545  0.5349 -0.6812
 6216TIP3    H140063   0.884   1.350  14.516 -0.0252  0.5141  1.1305
 6216TIP3    H240064   0.880   1.496  14.477  1.1909  0.4480  0.7334
 6217TIP3   OH240065   0.817   2.189   3.710  0.0173 -1.1899 -0.0013
 6217TIP3    H140066   0.894   2.171   3.765  0.5434 -0.4160 -0.4609
 6217TIP3    H240067   0.805   2.284   3.718  0.0357 -1.0875 -1.1324
 6218TIP3   OH240068   5.629   6.292   5.003 -0.2525  0.0264  0.1878
 6218TIP3    H140069   5.679   6.344   5.066 -0.0994 -1.6672  1.5153
 6218TIP3    H240070   5.586   6.225   5.056 -1.8825 -0.1400 -1.2569
 6219TIP3   OH240071   2.816   4.365   3.127 -0.0076 -0.0644  0.3950
 6219TIP3    H140072   2.875   4.301   3.088 -1.0300  0.1330 -1.5908
 6219TIP3    H240073   2.731   4.347   3.087 -0.7949  1.1750  1.4207
 6220TIP3   OH240074   4.229   0.374   3.962 -0.1370 -0.1309 -0.2359
 6220TIP3    H140075   4.256   0.306   4.024  0.4812 -0.0834 -0.4482
 6220TIP3    H240076   4.281   0.450   3.985 -1.0354  0.3736  0.1827
 6221TIP3   OH240077   3.854   6.528   4.837  0.3735  0.3610 -0.3702
 6221TIP3    H140078   3.936   6.571   4.861  0.4742  1.0666 -1.8290
 6221TIP3    H240079   3.797   6.600   4.809 -1.7133  0.1964  2.9878
 6222TIP3   OH240080   6.339   4.001  12.776 -0.5355  0.1540  0.1217
 6222TIP3    H140081   6.414   4.061  12.774 -2.0010  2.0696 -0.9621
 6222TIP3    H240082   6.310   4.002  12.867  0.7689 -0.6715  0.5714
 6223TIP3   OH240083   5.739   1.759  14.235 -0.5239  0.4631  0.5823
 6223TIP3    H140084   5.765   1.837  14.283  2.1033 -0.3247  0.5810
 6223TIP3    H240085   5.723   1.789  14.145 -1.2709  1.2402  0.9642
 6224TIP3   OH240086   4.412   3.908  16.790  1.0865 -0.9858 -0.4037
 6224TIP3    H140087   4.438   3.972  16.855  0.8686 -1.1831 -0.1224
 6224TIP3    H240088   4.316   3.907  16.792  1.0722 -0.8606 -0.8533
 6225TIP3   OH240089   0.612   4.933  12.075  0.5111 -0.3918  0.3505
 6225TIP3    H140090   0.627   4.976  11.991 -0.0475  1.8230  1.3169
 6225TIP3    H240091   0.541   4.871  12.059 -1.2872  1.7192 -0.3397
 6226TIP3   OH240092   1.141   2.941   4.463  0.4855  0.2213  0.3844
 6226TIP3    H140093   1.174   2.858   4.496 -0.2862 -0.3118 -0.1537
 6226TIP3    H240094   1.149   2.934   4.368  0.6320  0.8585  0.3438
 6227TIP3   OH240095   3.371   1.125   1.223  0.1673 -0.2039  1.0582
 6227TIP3    H140096   3.441   1.076   1.179  0.5228  0.5448  0.7700
 6227TIP3    H240097   3.391   1.217   1.205  0.4707  0.1504  3.0058
 6228TIP3   OH240098   4.701   6.719   5.529  0.0175  0.0818 -0.2736
 6228TIP3    H140099   4.712   6.666   5.609 -1.2792  1.7382  1.0768
 6228TIP3    H240100   4.738   6.804   5.552  0.4011  0.3320 -1.7612
 6229TIP3   OH240101   2.581   4.961   4.366 -0.0112 -0.1066 -0.4505
 6229TIP3    H140102   2.560   4.929   4.279 -1.7327  2.2755 -1.0163
 6229TIP3    H240103   2.585   5.056   4.357  0.6789  0.1709  1.8968
 6230TIP3   OH240104   4.912   2.429   0.910  0.5481 -0.5210 -0.4452
 6230TIP3    H140105   4.823   2.403   0.885  0.2651 -0.6073  0.5752
 6230TIP3    H240106   4.962   2.423   0.829 -0.5606  0.4000 -1.2352
 6231TIP3   OH240107   4.425   4.061  10.329  0.1493 -0.1132  0.0454
 6231TIP3    H140108   4.459   3.981  10.369 -1.0358  0.8995  3.3727
 6231TIP3    H240109   4.331   4.048  10.327  0.0444  0.6968 -0.6288
 6232TIP3   OH240110   0.964   5.033   2.430 -0.6653 -0.4605 -0.0202
 6232TIP3    H140111   0.995   4.943   2.435  0.8682  0.0269 -0.2925
 6232TIP3    H240112   0.990   5.072   2.513 -0.4993 -0.0144 -0.2826
 6233TIP3   OH240113   6.254   2.574  15.692 -0.1498  0.1167  0.3684
 6233TIP3    H140114   6.184   2.523  15.649 -0.3040  0.1362  0.5960
 6233TIP3    H240115   6.333   2.551  15.643 -0.3705  0.3557 -0.1095
 6234TIP3   OH240116   3.075   1.431   2.833 -0.6695  0.3613  0.1834
 6234TIP3    H140117   2.989   1.417   2.873 -1.0303  0.4541 -0.5533
 6234TIP3    H240118   3.065   1.510   2.780 -0.8987 -1.0570 -2.0211
 6235TIP3   OH240119   4.950   0.498  11.935 -0.3163 -0.0828  0.3964
 6235TIP3    H140120   4.972   0.565  11.999 -2.0911 -1.1004  2.1915
 6235TIP3    H240121   4.887   0.540  11.877 -0.7968  0.0791  1.0219
 6236TIP3   OH240122   5.202   0.848  14.793  0.0055  0.2121 -0.1603
 6236TIP3    H140123   5.188   0.754  14.777 -0.3795  0.4991 -1.5807
 6236TIP3    H240124   5.274   0.850  14.856  1.4637 -1.0201 -1.6881
 6237TIP3   OH240125   0.447   4.673   3.238  0.1607  0.0961 -0.4143
 6237TIP3    H140126   0.417   4.583   3.237 -0.9143  0.3654  1.5618
 6237TIP3    H240127   0.542   4.667   3.254 -0.0266 -0.6890  0.4761
 6238TIP3   OH240128   6.128   1.622  12.808  0.0809 -0.1177  0.3585
 6238TIP3    H140129   6.150   1.622  12.715 -1.4998 -1.0609 -0.0666
 6238TIP3    H240130   6.103   1.712  12.828 -1.2314 -0.2354 -0.6037
 6239TIP3   OH240131   3.850   4.049  12.809 -0.1682  0.4016  0.0880
 6239TIP3    H140132   3.880   3.977  12.753 -0.7958  0.5006 -0.3836
 6239TIP3    H240133   3.756   4.055  12.792  0.0700  2.1976 -0.8956
 6240TIP3   OH240134   2.941   5.145  12.415 -0.4710 -0.1394  0.3993
 6240TIP3    H140135   2.877   5.215  12.431  0.0058  0.2483  0.6487
 6240TIP3    H240136   2.901   5.067  12.453 -1.3057 -0.1500 -0.4833
 6241TIP3   OH240137   5.946   2.568  15.318  0.0598 -0.1787 -0.5129
 6241TIP3    H140138   5.920   2.481  15.287 -1.2574  0.2354 -0.6576
 6241TIP3    H240139   5.998   2.551  15.397  0.3557 -1.1170 -0.8991
 6242TIP3   OH240140   1.529   0.469  14.412  0.1463  0.4061 -0.0235
 6242TIP3    H140141   1.482   0.389  14.435 -0.4535  0.5493 -0.7291
 6242TIP3    H240142   1.466   0.539  14.425  0.7727  0.8092  0.9059
 6243TIP3   OH240143   1.636   1.974  10.963 -0.0368  0.1186 -0.1527
 6243TIP3    H140144   1.674   1.895  10.923  0.7212  0.7864 -0.7780
 6243TIP3    H240145   1.611   2.028  10.888 -0.2156  0.6296  0.2769
 6244TIP3   OH240146   1.663   5.795  14.293 -0.1692 -0.8412  0.6289
 6244TIP3    H140147   1.745   5.833  14.326  0.2344 -0.4765 -0.7617
 6244TIP3    H240148   1.666   5.704  14.323  1.2840 -1.1381 -0.3285
 6245TIP3   OH240149   4.625   1.393  14.960 -0.3360  1.2422 -0.1816
 6245TIP3    H140150   4.614   1.452  14.885  0.6833 -0.2519 -1.5755
 6245TIP3    H240151   4.712   1.356  14.949 -0.1881  0.9344  1.7427
 6246TIP3   OH240152   1.556   0.129   3.367 -0.1856 -0.1165 -0.3643
 6246TIP3    H140153   1.606   0.206   3.339 -0.3479 -0.6186 -2.1554
 6246TIP3    H240154   1.570   0.064   3.298 -1.7397 -0.9582  0.0503
 6247TIP3   OH240155   6.190   3.921  15.128  0.5692  0.4129 -0.0270
 6247TIP3    H140156   6.101   3.944  15.103  0.5221 -0.6891 -0.9344
 6247TIP3    H240157   6.244   3.953  15.056  0.7269 -0.3022 -0.2386
 6248TIP3   OH240158   2.099   6.675  12.359  0.0914 -0.0728 -0.4124
 6248TIP3    H140159   2.167   6.620  12.399  1.0993  0.6031 -1.1419
 6248TIP3    H240160   2.034   6.613  12.327  0.0803 -0.7088  0.7878
 6249TIP3   OH240161   1.494   1.655   4.916  0.8673  0.5662  0.4368
 6249TIP3    H140162   1.484   1.560   4.923 -1.5564  0.7057 -0.1874
 6249TIP3    H240163   1.540   1.667   4.833  1.6855 -0.0656  0.7864
 6250TIP3   OH240164   6.505   4.152  15.419 -0.1570 -0.5333 -0.4865
 6250TIP3    H140165   6.501   4.164  15.514  0.4494  1.8456 -0.7187
 6250TIP3    H240166   6.427   4.100  15.399 -1.9429  1.3901  1.0122
 6251TIP3   OH240167   0.209   1.575  12.099  0.1180  0.0071  0.7264
 6251TIP3    H140168   0.286   1.631  12.085  0.6281 -0.7185  0.5556
 6251TIP3    H240169   0.138   1.621  12.055 -0.0551  1.7775  2.6939
 6252TIP3   OH240170   2.626   2.482   2.487  0.1886 -0.2826 -0.3959
 6252TIP3    H140171   2.631   2.577   2.481  1.3606 -0.2351  0.7441
 6252TIP3    H240172   2.569   2.455   2.415 -1.7996  1.4189  0.4747
 6253TIP3   OH240173   2.336   4.797  12.795 -0.0291 -0.1295 -0.4533
 6253TIP3    H140174   2.358   4.877  12.842  2.9617 -0.7192 -0.6768
 6253TIP3    H240175   2.390   4.799  12.717 -1.8479 -1.1665 -1.8320
 6254TIP3   OH240176   1.194   3.558   4.726 -0.0737 -1.0140 -0.6465
 6254TIP3    H140177   1.158   3.471   4.743 -2.2474 -0.1277 -0.3386
 6254TIP3    H240178   1.196   3.601   4.812 -0.8370 -0.1460 -1.0420
 6255TIP3   OH240179   1.674   6.739   5.409 -0.2970  0.6164  0.2104
 6255TIP3    H140180   1.718   6.793   5.475  1.0563  0.2771 -0.3768
 6255TIP3    H240181   1.607   6.692   5.457  1.3784 -0.4568  1.6025
 6256TIP3   OH240182   2.433   4.993  12.964 -0.0370 -0.1824 -0.0538
 6256TIP3    H140183   2.419   5.088  12.960 -0.4005 -0.2466 -0.3476
 6256TIP3    H240184   2.528   4.983  12.956  0.0617  0.1837  0.5658
 6257TIP3   OH240185   3.758   4.712   4.727  0.0799 -0.2663 -0.0829
 6257TIP3    H140186   3.685   4.757   4.685  0.3519 -0.3881 -0.6956
 6257TIP3    H240187   3.732   4.706   4.819 -0.4710  0.1092 -0.2053
 6258TIP3   OH240188   5.030   1.747  16.079  0.0937 -0.3503  0.0552
 6258TIP3    H140189   4.937   1.756  16.057 -1.4124 -2.8478  4.3197
 6258TIP3    H240190   5.054   1.661  16.043 -0.2380 -1.0981  1.5455
 6259TIP3   OH240191   6.121   5.509  11.772  0.3124 -0.2944  0.7845
 6259TIP3    H140192   6.114   5.548  11.859  1.2880  0.6656  0.4587
 6259TIP3    H240193   6.199   5.453  11.778  0.4773 -0.0963  0.4784
 6260TIP3   OH240194   5.882   0.504   5.684  0.1666  0.2251 -0.4624
 6260TIP3    H140195   5.796   0.482   5.647 -0.6168  1.4700  0.5543
 6260TIP3    H240196   5.921   0.563   5.620  0.0576  0.0634 -0.6823
 6261TIP3   OH240197   5.579   2.402   0.210 -0.2365  0.0024 -0.6335
 6261TIP3    H140198   5.650   2.463   0.229 -0.0146 -1.0501  2.5534
 6261TIP3    H240199   5.500   2.448   0.236 -0.3019 -0.2168 -0.4360
 6262TIP3   OH240200   5.078   4.792  13.761 -0.2599 -0.5159 -0.0982
 6262TIP3    H140201   5.142   4.857  13.734  0.7954 -1.4653  0.0470
 6262TIP3    H240202   5.082   4.793  13.857 -2.0597  0.9515  0.0158
 6263TIP3   OH240203   6.409   5.446  15.514  0.6560 -0.3916 -0.0590
 6263TIP3    H140204   6.466   5.520  15.494  2.4115 -1.5939  0.3249
 6263TIP3    H240205   6.350   5.479  15.583  2.6733  0.1183  1.5159
 6264TIP3   OH240206   5.047   3.814  15.842 -0.2394 -0.2114  0.3241
 6264TIP3    H140207   4.993   3.882  15.802  0.5759 -0.8223 -1.9624
 6264TIP3    H240208   5.118   3.861  15.885 -1.3928  0.4936  1.5037
 6265TIP3   OH240209   3.598   2.566   4.510  0.1024 -0.3327 -0.0965
 6265TIP3    H140210   3.681   2.599   4.543 -0.9009  0.9909  1.2545
 6265TIP3    H240211   3.544   2.644   4.497 -1.0208 -1.1681 -0.7208
 6266TIP3   OH240212   5.333   1.478   4.987 -0.1317 -0.0448 -0.3975
 6266TIP3    H140213   5.419   1.517   4.971  0.3101 -0.3218  1.1566
 6266TIP3    H240214   5.273   1.553   4.987  0.3374  0.3368  0.0600
 6267TIP3   OH240215   4.487   2.483  14.585  0.0289  0.1444 -0.3305
 6267TIP3    H140216   4.539   2.557  14.555 -0.1120  0.6845  0.7344
 6267TIP3    H240217   4.458   2.440  14.504  0.0859  1.2561 -0.9591
 6268TIP3   OH240218   2.835   1.148  12.170 -0.1000  0.1668  0.7143
 6268TIP3    H140219   2.739   1.141  12.179 -0.1273  1.5070  1.6983
 6268TIP3    H240220   2.849   1.233  12.128  0.6972  0.6015  1.8228
 6269TIP3   OH240221   2.540   6.418   1.406 -0.1366  0.3756 -0.0277
 6269TIP3    H140222   2.583   6.485   1.458  1.3883 -2.2100  2.3372
 6269TIP3    H240223   2.459   6.398   1.454 -0.9296  0.9005 -1.0819
 6270TIP3   OH240224   0.765   6.631   0.550  0.1633  0.4263  0.5991
 6270TIP3    H140225   0.684   6.654   0.596 -0.0699 -0.4920  0.6520
 6270TIP3    H240226   0.742   6.634   0.458  0.6054  2.1658  0.4936
 6271TIP3   OH240227   2.074   4.547  14.332  0.0492 -0.1802 -0.6380
 6271TIP3    H140228   2.165   4.547  14.301  0.2668  0.6240 -0.0328
 6271TIP3    H240229   2.021   4.550  14.252  0.5776  0.6050 -0.9664
 6272TIP3   OH240230   1.304   3.434  14.373  0.1899  0.4678 -0.0141
 6272TIP3    H140231   1.387   3.388  14.386 -0.6411 -0.9324  0.5129
 6272TIP3    H240232   1.323   3.524  14.398  0.9326 -0.3242  2.5816
 6273TIP3   OH240233   3.757   6.075   3.442  0.3548 -0.1466 -0.0771
 6273TIP3    H140234   3.662   6.061   3.442 -0.0823  2.3594  1.2771
 6273TIP3    H240235   3.768   6.163   3.406  2.0606  0.0919  0.9562
 6274TIP3   OH240236   0.993   5.604   2.917 -0.8183  0.4612  0.0565
 6274TIP3    H140237   0.935   5.598   2.841  1.1432 -0.3815 -1.4510
 6274TIP3    H240238   1.048   5.526   2.911  1.4167  1.9111  0.5889
 6275TIP3   OH240239   1.022   4.515  16.961 -0.6595  0.1631  0.1979
 6275TIP3    H140240   0.967   4.564  17.022 -0.0679 -1.0337  1.7537
 6275TIP3    H240241   1.049   4.438  17.010  0.2183 -0.6174 -1.4483
 6276TIP3   OH240242   1.352   4.808  16.140  0.1905 -0.0425  0.0943
 6276TIP3    H140243   1.259   4.809  16.165 -0.2360 -1.2727 -1.2306
 6276TIP3    H240244   1.368   4.717  16.114  1.7333  0.1907  0.1552
 6277TIP3   OH240245   1.120   1.627   5.823 -0.2843 -0.0920 -0.1804
 6277TIP3    H140246   1.132   1.567   5.749  0.5177  2.6585 -2.4492
 6277TIP3    H240247   1.188   1.601   5.885  1.4013 -0.3280 -2.0046
 6278TIP3   OH240248   3.118   0.307   5.115 -0.3252 -0.3047  0.7349
 6278TIP3    H140249   3.032   0.266   5.113 -1.5766  2.1564  0.8026
 6278TIP3    H240250   3.167   0.263   5.046 -1.5343 -1.9019  0.8413
 6279TIP3   OH240251   2.146   3.933   0.102 -0.4980  0.0310 -0.3214
 6279TIP3    H140252   2.196   3.921   0.183 -0.9355  0.9449  0.1028
 6279TIP3    H240253   2.200   3.893   0.035 -0.7704 -2.0314  0.5912
 6280TIP3   OH240254   3.737   0.368   0.056  0.3256  0.3793  0.1643
 6280TIP3    H140255   3.780   0.454   0.059  0.1860  0.5682 -2.0104
 6280TIP3    H240256   3.787   0.318  -0.009 -0.9787 -0.3841 -0.2807
 6281TIP3   OH240257   5.930   0.996  12.499 -0.1477  0.2267 -0.5832
 6281TIP3    H140258   5.916   1.074  12.552  1.4145  0.9483 -1.1904
 6281TIP3    H240259   6.023   0.996  12.480 -0.1943 -1.5565 -0.9836
 6282TIP3   OH240260   0.116   5.744   6.161 -0.8183  0.3726 -0.0250
 6282TIP3    H140261   0.108   5.759   6.256 -1.9323 -1.7302  0.2789
 6282TIP3    H240262   0.091   5.827   6.121 -1.9583  0.8254  1.5246
 6283TIP3   OH240263   1.455   5.453   3.626  0.2446 -0.0620  0.3136
 6283TIP3    H140264   1.518   5.435   3.696 -0.2238 -1.7973  0.3549
 6283TIP3    H240265   1.395   5.378   3.629 -2.0051  1.6434  0.4461
 6284TIP3   OH240266   6.021   1.962  15.432  0.0846 -0.2411  0.0202
 6284TIP3    H140267   5.926   1.973  15.432  0.2650  1.5728 -0.7018
 6284TIP3    H240268   6.052   2.021  15.501  0.6057 -2.2070  1.5871
 6285TIP3   OH240269   4.605   3.241   1.692 -0.0365  0.4063  0.0770
 6285TIP3    H140270   4.624   3.306   1.625 -0.1459  0.7750  0.3933
 6285TIP3    H240271   4.525   3.198   1.662 -0.0812  0.5663 -0.0347
 6286TIP3   OH240272   0.732   3.633   5.981  0.1064 -0.3920  0.8514
 6286TIP3    H140273   0.657   3.646   5.923 -0.4545  0.0995  1.6631
 6286TIP3    H240274   0.695   3.634   6.069  0.5885 -3.3224  1.2157
 6287TIP3   OH240275   2.747   5.234  15.516  0.0291 -0.3610  0.1492
 6287TIP3    H140276   2.807   5.167  15.549 -1.0859 -1.1008  0.7240
 6287TIP3    H240277   2.786   5.261  15.433  1.9469  0.2618  1.1669
 6288TIP3   OH240278   4.256   2.983   1.402 -0.0505  0.1957 -0.1326
 6288TIP3    H140279   4.235   3.068   1.362  0.6072  1.6477  2.3645
 6288TIP3    H240280   4.222   2.918   1.341 -1.2020  2.2673 -1.8177
 6289TIP3   OH240281   4.891   1.717  13.913  0.5949 -0.1078  0.0342
 6289TIP3    H140282   4.828   1.660  13.868  0.9666  0.4242 -1.2063
 6289TIP3    H240283   4.857   1.805  13.900  1.5260  0.1770 -0.5604
 6290TIP3   OH240284   0.180   4.188  12.692 -0.0416 -0.1430 -0.0156
 6290TIP3    H140285   0.223   4.139  12.622 -1.2715  1.3451 -1.9184
 6290TIP3    H240286   0.092   4.151  12.696 -0.6450  1.1291 -0.7583
 6291TIP3   OH240287   1.464   0.461   3.796 -0.3917  0.1169  0.0031
 6291TIP3    H140288   1.529   0.392   3.785  0.0081  0.4224  0.4007
 6291TIP3    H240289   1.441   0.457   3.889 -0.7262  0.1990 -0.0778
 6292TIP3   OH240290   5.045   6.231  15.190 -0.2109 -0.0036  0.4019
 6292TIP3    H140291   5.112   6.168  15.214 -0.4606 -0.5036 -0.1863
 6292TIP3    H240292   5.035   6.287  15.267  0.9190  0.1184  0.4769
 6293TIP3   OH240293   5.807   3.487  16.496 -0.6049 -0.1277  0.5473
 6293TIP3    H140294   5.713   3.504  16.484 -0.8478 -2.1694 -1.1008
 6293TIP3    H240295   5.850   3.547  16.436 -0.6267  2.1967  2.6781
 6294TIP3   OH240296   0.823   2.954   3.203  0.2310  0.7070 -0.1491
 6294TIP3    H140297   0.826   3.026   3.139  1.6835  0.4374 -0.4220
 6294TIP3    H240298   0.790   2.880   3.153 -0.3580  0.9451 -0.1169
 6295TIP3   OH240299   5.670   4.389   5.058 -0.4511 -0.3843 -0.6443
 6295TIP3    H140300   5.686   4.355   4.970 -0.5298 -0.0927 -0.7720
 6295TIP3    H240301   5.695   4.317   5.116  0.7207 -0.1735 -0.8617
 6296TIP3   OH240302   1.043   3.331   1.039 -0.3405 -0.0363  0.3369
 6296TIP3    H140303   1.010   3.418   1.018  0.2505 -0.4784 -2.9720
 6296TIP3    H240304   0.976   3.271   1.005  0.2920 -0.8672  0.5288
 6297TIP3   OH240305   5.076   0.052  15.240  0.0560  0.1850  0.2810
 6297TIP3    H140306   4.992   0.096  15.249  0.0721  0.7998 -2.1146
 6297TIP3    H240307   5.141   0.122  15.246  0.3501 -0.1200  0.8033
 6298TIP3   OH240308   2.756   4.983   5.662 -0.0034  0.2134  0.1696
 6298TIP3    H140309   2.827   4.983   5.727  1.9336 -2.7582 -1.7032
 6298TIP3    H240310   2.801   4.984   5.578 -2.2468 -0.9715 -1.1147
 6299TIP3   OH240311   2.846   0.327  14.501  0.1280 -0.1879  0.4080
 6299TIP3    H140312   2.798   0.407  14.521 -0.6329 -0.5255 -0.0121
 6299TIP3    H240313   2.828   0.311  14.408 -0.0480 -1.0451  0.5779
 6300TIP3   OH240314   6.247   2.236  14.088 -0.6281 -0.2715 -0.2023
 6300TIP3    H140315   6.291   2.151  14.081 -0.5802 -0.1322 -4.0689
 6300TIP3    H240316   6.318   2.299  14.094 -0.5945 -0.3986  0.7934
 6301TIP3   OH240317   1.436   4.104  13.980  0.2933  0.2968  0.4033
 6301TIP3    H140318   1.449   4.089  14.073 -0.6585 -0.1353  0.4728
 6301TIP3    H240319   1.487   4.035  13.937  0.3585  0.2148  0.6112
 6302TIP3   OH240320   6.082   4.408  11.062 -0.3924  0.4022 -0.2987
 6302TIP3    H140321   6.009   4.457  11.023 -0.1195  1.2153  0.1947
 6302TIP3    H240322   6.046   4.373  11.143  0.1550  2.0332  0.6917
 6303TIP3   OH240323   1.568   0.911  11.608  0.1600  0.2654 -0.2852
 6303TIP3    H140324   1.582   0.897  11.701 -1.0303 -0.1149 -0.1464
 6303TIP3    H240325   1.604   0.833  11.566 -0.4951 -0.1810 -0.0330
 6304TIP3   OH240326   0.354   4.166   2.214 -0.2529 -0.3431 -0.5239
 6304TIP3    H140327   0.391   4.078   2.222  0.6664 -0.1811 -2.4304
 6304TIP3    H240328   0.429   4.224   2.231 -1.1146  0.1492  1.9469
 6305TIP3   OH240329   0.370   3.596  14.133 -0.3148 -0.0628 -0.3560
 6305TIP3    H140330   0.404   3.556  14.213 -1.6906  0.3691  0.4786
 6305TIP3    H240331   0.448   3.611  14.079  0.8697  1.1341  1.5536
 6306TIP3   OH240332   0.622   1.283   5.720  0.0833 -0.0577 -0.1202
 6306TIP3    H140333   0.585   1.335   5.792 -0.3203  0.5568 -0.7513
 6306TIP3    H240334   0.683   1.223   5.762 -0.9623 -0.4669  0.8633
 6307TIP3   OH240335   2.782   0.778  12.165  0.3488  0.0664 -0.3827
 6307TIP3    H140336   2.717   0.845  12.187  1.8698  1.3896  0.3794
 6307TIP3    H240337   2.780   0.718  12.240 -1.3962 -1.1221 -1.3106
 6308TIP3   OH240338   3.366   6.099   5.912 -0.7514  0.1622  0.6032
 6308TIP3    H140339   3.293   6.132   5.963 -0.3081 -0.3211  1.5787
 6308TIP3    H240340   3.387   6.014   5.952 -0.9389 -0.6372 -0.9180
 6309TIP3   OH240341   3.033   4.048  11.716 -0.1312 -0.9164 -0.0267
 6309TIP3    H140342   3.087   4.072  11.791  0.3670  0.5649 -0.8133
 6309TIP3    H240343   3.060   3.959  11.695  1.6569 -0.4143 -0.0707
 6310TIP3   OH240344   1.432   5.202  14.288 -0.0625 -0.0254 -0.2379
 6310TIP3    H140345   1.397   5.174  14.372 -1.9658 -0.4911 -1.1361
 6310TIP3    H240346   1.357   5.202  14.229  1.0814  0.9728 -1.7877
 6311TIP3   OH240347   0.340   5.479   0.712 -0.6224 -0.0703 -0.1426
 6311TIP3    H140348   0.373   5.530   0.637  1.9101 -0.3467  0.6801
 6311TIP3    H240349   0.324   5.544   0.780 -0.1440 -0.0869 -0.0114
 6312TIP3   OH240350   1.688   3.174   0.730  0.1818  0.3701 -0.1467
 6312TIP3    H140351   1.727   3.245   0.781 -0.4263 -0.7702  2.0289
 6312TIP3    H240352   1.685   3.207   0.641  2.8912  1.8110  0.2150
 6313TIP3   OH240353   2.630   1.960  13.571 -0.1347 -0.4833  0.1513
 6313TIP3    H140354   2.647   2.037  13.624 -1.1227 -1.1883  1.5408
 6313TIP3    H240355   2.664   1.983  13.484  1.1599  0.8423  0.9544
 6314TIP3   OH240356   3.949   4.947   5.362  0.5686  0.5272  0.1903
 6314TIP3    H140357   3.934   5.013   5.295  0.8311  0.6570  0.2587
 6314TIP3    H240358   3.903   4.980   5.439 -0.4913 -0.0529 -0.1730
 6315TIP3   OH240359   2.390   6.265  13.794  0.1811  0.7783  0.5202
 6315TIP3    H140360   2.365   6.174  13.809 -0.6405  0.9252  0.0842
 6315TIP3    H240361   2.386   6.305  13.881  2.0907  0.0513  0.9898
 6316TIP3   OH240362   5.827   3.389  11.744  0.3105  0.1107  0.5279
 6316TIP3    H140363   5.735   3.402  11.769  0.2414  1.3561 -0.2696
 6316TIP3    H240364   5.876   3.404  11.824 -0.2421 -2.2963  1.3990
 6317TIP3   OH240365   1.691   4.890  11.585  0.1649 -0.0544 -0.0642
 6317TIP3    H140366   1.715   4.872  11.494 -2.0863 -0.1400 -0.6903
 6317TIP3    H240367   1.688   4.986  11.590 -0.1071 -0.0547 -0.2003
 6318TIP3   OH240368   4.458   4.627  16.088  0.7775  0.2912 -0.0968
 6318TIP3    H140369   4.553   4.633  16.082  0.8891 -0.8683  0.3329
 6318TIP3    H240370   4.434   4.688  16.158  1.6092 -2.0179  2.3922
 6319TIP3   OH240371   5.977   2.012   3.639  0.4398 -0.2138  0.0905
 6319TIP3    H140372   5.982   2.098   3.599  1.3214 -0.0758  0.4610
 6319TIP3    H240373   5.885   2.000   3.661  0.2506  0.4655 -0.3223
 6320TIP3   OH240374   6.389   2.202  12.390 -0.0101 -0.8227 -0.4508
 6320TIP3    H140375   6.357   2.143  12.459  0.4355 -0.2074  0.2827
 6320TIP3    H240376   6.484   2.195  12.394  0.1060  0.8560  0.4652
 6321TIP3   OH240377   0.566   4.062  12.558 -0.6969 -0.5476  0.1572
 6321TIP3    H140378   0.529   4.125  12.620 -1.5727  0.5315 -1.4011
 6321TIP3    H240379   0.491   4.026  12.512  0.0125  1.0027 -2.4418
 6322TIP3   OH240380   6.240   5.110  15.231 -0.1233 -0.1470  0.1655
 6322TIP3    H140381   6.297   5.186  15.242 -0.9470  0.7518 -1.5528
 6322TIP3    H240382   6.274   5.046  15.294  0.4761  1.6761  1.7951
 6323TIP3   OH240383   0.849   1.774   5.308 -0.2990 -0.2369  0.2332
 6323TIP3    H140384   0.774   1.717   5.292 -0.2423 -0.0668 -0.7018
 6323TIP3    H240385   0.828   1.820   5.390 -1.4998  0.2705 -0.3432
 6324TIP3   OH240386   2.088   2.179  11.661  0.3015  0.2497  0.6469
 6324TIP3    H140387   2.022   2.137  11.606  0.2522 -1.1799  1.7298
 6324TIP3    H240388   2.168   2.177  11.608  0.0432 -0.2675  0.2634
 6325TIP3   OH240389   1.354   3.107  16.040  0.0453 -0.4771  0.0347
 6325TIP3    H140390   1.347   3.122  16.135 -3.1030  2.3002 -0.4217
 6325TIP3    H240391   1.443   3.133  16.018  0.2359  0.7791  1.9977
 6326TIP3   OH240392   1.855   5.352  11.280 -0.0816 -0.0179 -0.0461
 6326TIP3    H140393   1.929   5.296  11.258 -0.5708 -1.2457  1.2833
 6326TIP3    H240394   1.787   5.328  11.218  0.4736  0.8183 -1.0034
 6327TIP3   OH240395   4.504   1.122  15.223 -0.2402 -0.2573 -0.0252
 6327TIP3    H140396   4.564   1.185  15.263  0.2015 -1.5451  1.4249
 6327TIP3    H240397   4.419   1.165  15.225  0.3173  0.9339 -0.5917
 6328TIP3   OH240398   3.342   5.015   0.422  0.5330 -0.2914  0.6452
 6328TIP3    H140399   3.313   5.088   0.477 -0.6379 -0.9949  1.0127
 6328TIP3    H240400   3.405   5.053   0.361 -1.8678  1.5823 -0.8288
 6329TIP3   OH240401   3.270   1.557  11.483  0.0745  0.2725 -0.6762
 6329TIP3    H140402   3.292   1.498  11.411 -0.2271 -0.4414 -0.1902
 6329TIP3    H240403   3.226   1.631  11.440  0.0088 -0.0853 -1.2416
 6330TIP3   OH240404   1.221   1.434  15.089 -0.1969 -0.0669 -0.1966
 6330TIP3    H140405   1.176   1.390  15.017  1.3351  0.2658 -1.3997
 6330TIP3    H240406   1.309   1.450  15.057  0.8459 -0.7307  2.0965
 6331TIP3   OH240407   0.055   4.028   1.110  0.1219  0.2992 -0.2764
 6331TIP3    H140408  -0.017   4.065   1.160 -0.6253  0.0833 -1.1713
 6331TIP3    H240409   0.116   4.101   1.099 -0.9889  1.0897 -1.3881
 6332TIP3   OH240410   3.688   1.779  15.968 -0.7066  0.4846 -0.5436
 6332TIP3    H140411   3.633   1.855  15.987 -1.2822 -0.5148  2.1486
 6332TIP3    H240412   3.733   1.760  16.050  0.5918 -1.1977 -1.5576
 6333TIP3   OH240413   4.273   1.558  17.172 -0.3892 -0.4518 -0.3168
 6333TIP3    H140414   4.285   1.607  17.091  0.6708  2.7794  1.5943
 6333TIP3    H240415   4.348   1.498  17.175  0.4953  0.5855 -0.9587
 6334TIP3   OH240416   5.280   2.265  11.247 -0.1080  0.4341 -0.2689
 6334TIP3    H140417   5.373   2.286  11.235 -0.6452  2.8443 -0.7660
 6334TIP3    H240418   5.263   2.283  11.340  0.4774 -2.7821  0.5755
 6335TIP3   OH240419   6.555   0.546  17.031  0.4556  0.5363 -0.3040
 6335TIP3    H140420   6.499   0.623  17.026  0.1173  0.4446  1.3321
 6335TIP3    H240421   6.637   0.572  16.989 -0.9294  0.4984 -3.2049
 6336TIP3   OH240422   6.202   6.212   1.952 -0.2926 -0.0588 -0.0238
 6336TIP3    H140423   6.247   6.220   2.036 -1.0005 -0.1922  0.3821
 6336TIP3    H240424   6.109   6.215   1.975 -0.5284  2.3884 -1.0275
 6337TIP3   OH240425   6.704   2.609   2.662  0.5273 -0.0793  0.6537
 6337TIP3    H140426   6.631   2.619   2.600 -0.4573 -1.2476  1.5587
 6337TIP3    H240427   6.672   2.651   2.742  0.1122 -2.0432  1.5792
 6338TIP3   OH240428   3.120   0.718   2.318 -0.2690 -0.3813  0.2259
 6338TIP3    H140429   3.202   0.761   2.293 -1.1028  0.9617 -0.3183
 6338TIP3    H240430   3.122   0.718   2.414 -0.4869  1.4448  0.2664
 6339TIP3   OH240431   4.876   0.600  17.045 -0.2351 -0.6979 -0.4900
 6339TIP3    H140432   4.887   0.567  17.134  0.6557 -1.4741 -0.8670
 6339TIP3    H240433   4.821   0.534  17.002  0.9271 -1.3407 -1.0352
 6340TIP3   OH240434   3.134   1.172   0.369  0.3282  0.2228  0.2406
 6340TIP3    H140435   3.149   1.081   0.395 -1.8438 -0.9297 -2.1523
 6340TIP3    H240436   3.039   1.183   0.373  0.3993  1.7946 -1.3019
 6341TIP3   OH240437   4.657   1.014  11.056  0.1007 -0.3294  0.1111
 6341TIP3    H140438   4.598   0.986  10.986  1.2036 -1.1718 -0.5151
 6341TIP3    H240439   4.619   1.095  11.089 -0.5232  0.0080 -1.3694
 6342TIP3   OH240440   4.004   0.891   1.561  0.5643  0.7853 -0.2926
 6342TIP3    H140441   4.089   0.858   1.534  0.0385 -0.6353 -0.2904
 6342TIP3    H240442   4.001   0.877   1.656 -0.1297 -0.2896 -0.4637
 6343TIP3   OH240443   1.877   3.776   4.265 -0.0532  0.1304  0.2705
 6343TIP3    H140444   1.914   3.863   4.248  0.8261  0.0454  1.5927
 6343TIP3    H240445   1.795   3.793   4.311 -0.0135  0.2699  0.2907
 6344TIP3   OH240446   5.549   2.385   5.915 -0.2897  0.0741  0.0104
 6344TIP3    H140447   5.634   2.427   5.930  0.1411 -0.5664 -0.5724
 6344TIP3    H240448   5.494   2.454   5.879  0.1242  0.3865 -0.0301
 6345TIP3   OH240449   6.064   0.378   0.090  0.0994 -0.5522  0.0599
 6345TIP3    H140450   5.977   0.378   0.131  0.1274 -0.0466  0.1341
 6345TIP3    H240451   6.110   0.304   0.130  0.2547  0.1537  1.2316
 6346TIP3   OH240452   4.080   1.024  15.186 -0.0510 -0.3429 -0.6972
 6346TIP3    H140453   4.028   0.968  15.128 -0.2370  0.0396 -0.9104
 6346TIP3    H240454   4.023   1.098  15.205 -0.5443 -1.1432  1.1700
 6347TIP3   OH240455   5.800   3.508   1.862  0.3366 -0.0033  0.2001
 6347TIP3    H140456   5.879   3.462   1.888 -0.8019 -0.5083  3.2537
 6347TIP3    H240457   5.740   3.439   1.834  0.1970  0.1141  0.2069
 6348TIP3   OH240458   5.639   3.254  15.449 -0.6970 -0.4996 -0.2490
 6348TIP3    H140459   5.601   3.283  15.365 -0.3206  2.4505  0.4862
 6348TIP3    H240460   5.563   3.237  15.505 -1.0183  1.1974 -0.1016
 6349TIP3   OH240461   6.174   1.315  14.018 -0.0354  0.5042  0.2836
 6349TIP3    H140462   6.123   1.297  13.939 -0.3930 -0.0289  0.6291
 6349TIP3    H240463   6.259   1.344  13.985 -0.2124  0.3839 -0.2991
 6350TIP3   OH240464   1.073   1.036  13.737 -0.2906 -0.5987 -0.5604
 6350TIP3    H140465   1.069   0.943  13.761 -1.5819 -1.0040 -2.0905
 6350TIP3    H240466   1.069   1.083  13.820  0.7046 -1.9116  0.2596
 6351TIP3   OH240467   0.088   3.614   2.089  0.6111  0.0658  0.4088
 6351TIP3    H140468   0.080   3.620   2.184 -0.8290 -0.4329  0.3488
 6351TIP3    H240469   0.079   3.520   2.070 -0.0150  0.2566 -0.2756
 6352TIP3   OH240470   1.363   6.542   4.194  0.8011  0.3719  0.1861
 6352TIP3    H140471   1.353   6.629   4.232  1.3936  0.0682  1.0908
 6352TIP3    H240472   1.359   6.556   4.100  2.2194  1.5851  0.2631
 6353TIP3   OH240473   3.224   2.093  15.676 -0.1647  0.0363  0.2641
 6353TIP3    H140474   3.277   2.173  15.672  0.2432 -0.2020  0.7573
 6353TIP3    H240475   3.250   2.044  15.598  0.2492 -0.0162  0.4312
 6354TIP3   OH240476   3.583   6.394  14.811  0.4013  0.1461 -0.4887
 6354TIP3    H140477   3.498   6.352  14.816  1.0477 -1.2032 -0.1979
 6354TIP3    H240478   3.614   6.395  14.902  1.6443 -1.5023 -0.8430
 6355TIP3   OH240479   4.241   1.720  16.959 -0.1899  0.2987  0.7395
 6355TIP3    H140480   4.269   1.809  16.939  0.1789 -0.0258 -0.2305
 6355TIP3    H240481   4.256   1.671  16.878 -3.1760  0.0100  0.2157
 6356TIP3   OH240482   0.483   1.686   4.333  0.2365 -0.3318 -0.3575
 6356TIP3    H140483   0.514   1.639   4.255  0.7917  0.4978 -0.6563
 6356TIP3    H240484   0.394   1.654   4.347 -0.5849  0.7819 -2.4240
 6357TIP3   OH240485   0.107   3.147   3.337 -0.0231  0.1442 -0.0008
 6357TIP3    H140486   0.071   3.084   3.274  0.3618 -0.1178  0.0369
 6357TIP3    H240487   0.042   3.217   3.341  0.1166  0.3403 -0.9618
 6358TIP3   OH240488   4.802   2.199   5.387  0.3701  0.0165 -0.0410
 6358TIP3    H140489   4.716   2.159   5.396  0.1729  0.5760  0.6662
 6358TIP3    H240490   4.826   2.186   5.296 -0.2787 -0.5187 -0.1341
 6359TIP3   OH240491   1.340   2.891   1.376 -0.2213 -0.0001  0.4944
 6359TIP3    H140492   1.338   2.796   1.376  0.9833 -0.0402  0.4610
 6359TIP3    H240493   1.381   2.915   1.459 -0.5991  0.5028  0.5460
 6360TIP3   OH240494   6.572   5.702  14.656 -0.8380 -0.0632  0.2488
 6360TIP3    H140495   6.583   5.760  14.731  1.6148 -1.2465  0.8742
 6360TIP3    H240496   6.532   5.623  14.692 -0.9187 -0.1150  0.0500
 6361TIP3   OH240497   6.394   5.671   3.783  0.4304  0.2412  0.2670
 6361TIP3    H140498   6.324   5.695   3.722 -0.0685  1.2112  1.1846
 6361TIP3    H240499   6.468   5.725   3.756  0.9485 -0.9794 -0.8739
 6362TIP3   OH240500   6.744   6.245   1.306  0.0982  0.1999  0.0348
 6362TIP3    H140501   6.726   6.222   1.398 -0.4807 -0.2670 -0.1876
 6362TIP3    H240502   6.836   6.222   1.294  0.9947  2.8100  1.2475
 6363TIP3   OH240503   2.741   2.405  14.369  0.2870  0.2921  0.0600
 6363TIP3    H140504   2.817   2.451  14.404  1.1012  0.3926 -1.7321
 6363TIP3    H240505   2.755   2.314  14.394 -0.2042  0.6147  1.6883
 6364TIP3   OH240506   2.263   0.044   0.399  0.4807 -0.4167  0.0200
 6364TIP3    H140507   2.338   0.087   0.440  0.0557 -0.5175  0.9413
 6364TIP3    H240508   2.196   0.045   0.467  0.0309 -1.3634 -0.3950
 6365TIP3   OH240509   2.204   3.187   2.829 -0.0742  0.1870 -0.6264
 6365TIP3    H140510   2.259   3.123   2.874 -0.1147 -0.0846 -0.9612
 6365TIP3    H240511   2.254   3.268   2.832  0.0393  0.1078 -0.3229
 6366TIP3   OH240512   5.601   1.227  16.487  0.7288 -0.1552  0.2445
 6366TIP3    H140513   5.599   1.156  16.423 -0.3676 -1.2122  1.3991
 6366TIP3    H240514   5.586   1.184  16.571  0.6293  1.3869  1.0550
 6367TIP3   OH240515   0.964   4.480  15.270  0.0356  1.0133 -0.4151
 6367TIP3    H140516   1.031   4.419  15.301 -0.5478  1.2606  1.4499
 6367TIP3    H240517   0.919   4.432  15.201  1.8977  0.7293 -1.5165
 6368TIP3   OH240518   2.185   6.166   4.808  0.4186  0.1771 -0.5659
 6368TIP3    H140519   2.144   6.089   4.769  1.9401  0.1412 -2.2114
 6368TIP3    H240520   2.272   6.170   4.768  0.7591  2.1603  0.2583
 6369TIP3   OH240521   0.982   6.714   0.085  0.3368  0.0076  0.3441
 6369TIP3    H140522   0.956   6.629   0.049  0.2200 -0.4069  1.3605
 6369TIP3    H240523   1.077   6.705   0.098  0.6669  0.7394 -1.3360
 6370TIP3   OH240524   4.380   0.142   3.410  0.4694 -0.4545 -0.0232
 6370TIP3    H140525   4.315   0.166   3.476  1.2033  1.7358  0.0090
 6370TIP3    H240526   4.330   0.129   3.330 -0.1434  0.0048  0.2746
 6371TIP3   OH240527   5.664   5.377   5.059 -0.2633 -0.4201  0.3602
 6371TIP3    H140528   5.607   5.401   5.132 -0.0104  0.1714  0.3657
 6371TIP3    H240529   5.623   5.417   4.982 -0.2722 -0.6429  0.2495
 6372TIP3   OH240530   0.344   0.153  10.568 -0.1754  0.4575  0.1816
 6372TIP3    H140531   0.387   0.235  10.540  0.3917  0.1873  0.2376
 6372TIP3    H240532   0.341   0.159  10.663  0.2725  0.2227  0.2152
 6373TIP3   OH240533   3.491   2.248  14.612 -0.1289  0.0412  0.3305
 6373TIP3    H140534   3.406   2.285  14.633 -0.5240 -0.1049 -0.9438
 6373TIP3    H240535   3.477   2.153  14.613  0.0774  0.0097  0.3386
 6374TIP3   OH240536   4.966   0.784  15.028 -0.4408 -0.2058  0.5190
 6374TIP3    H140537   4.968   0.829  14.943 -0.4219  0.7889  1.0360
 6374TIP3    H240538   5.014   0.842  15.087  1.3557 -1.8589  0.7680
 6375TIP3   OH240539   2.720   5.623   6.561 -1.0203  0.5350  0.1083
 6375TIP3    H140540   2.689   5.693   6.619 -1.8861  0.0328  0.2683
 6375TIP3    H240541   2.708   5.659   6.473  0.4012  1.3400  0.2102
 6376TIP3   OH240542   1.213   1.777  13.136  0.1185  0.0456 -0.2173
 6376TIP3    H140543   1.285   1.831  13.103  0.4411  1.0943  1.9980
 6376TIP3    H240544   1.251   1.691  13.149  1.0201  0.5921  0.9294
 6377TIP3   OH240545   5.431   1.366   1.363  0.1352  0.1988 -0.0103
 6377TIP3    H140546   5.376   1.364   1.441 -1.0891  0.5203 -0.8413
 6377TIP3    H240547   5.473   1.452   1.365  0.1403  0.1898  0.3127
 6378TIP3   OH240548   4.377   0.125  12.935 -0.2665  0.0995 -0.6510
 6378TIP3    H140549   4.402   0.196  12.995  2.4003 -0.9804 -0.3068
 6378TIP3    H240550   4.318   0.070  12.986  0.6477  0.0948  0.4411
 6379TIP3   OH240551   1.915   3.585  16.251  0.6853  0.2378 -0.3709
 6379TIP3    H140552   1.862   3.607  16.327  0.2140  0.3986 -0.7451
 6379TIP3    H240553   2.004   3.574  16.286  0.2112 -1.2827  0.4681
 6380TIP3   OH240554   1.123   0.719   0.618  0.5856 -0.1530 -0.4717
 6380TIP3    H140555   1.148   0.755   0.703  1.1865 -1.3448 -0.1224
 6380TIP3    H240556   1.180   0.643   0.606 -1.8575 -2.1356 -0.3430
 6381TIP3   OH240557   0.832   4.332  10.853 -0.5421  0.6674  0.5368
 6381TIP3    H140558   0.927   4.328  10.864 -0.5360 -0.2552  0.3019
 6381TIP3    H240559   0.815   4.278  10.776 -1.2637  0.7768  0.6107
 6382TIP3   OH240560   1.258   2.911   0.264 -0.2821 -0.2036  0.3949
 6382TIP3    H140561   1.187   2.968   0.293 -2.5853 -1.5730 -2.0868
 6382TIP3    H240562   1.249   2.833   0.319 -1.7679 -0.9699 -0.8335
 6383TIP3   OH240563   2.518   5.929  13.009 -0.3689  0.3636  0.2009
 6383TIP3    H140564   2.506   6.024  13.018 -1.2295  0.1852  1.1346
 6383TIP3    H240565   2.438   5.891  13.046  0.2622 -0.7453  0.4806
 6384TIP3   OH240566   5.527   5.134  10.662 -0.0758 -0.5933  0.2866
 6384TIP3    H140567   5.450   5.128  10.606  0.3960 -2.1914 -0.2768
 6384TIP3    H240568   5.601   5.133  10.601  0.4038  0.7415  0.8203
 6385TIP3   OH240569   2.308   0.526  14.962  0.5474  0.6894 -0.2927
 6385TIP3    H140570   2.213   0.526  14.957  0.6034  0.7662 -1.6629
 6385TIP3    H240571   2.328   0.580  15.039 -0.4690  2.6340 -1.3192
 6386TIP3   OH240572   5.402   4.192  16.134 -0.7339 -0.9232 -0.0112
 6386TIP3    H140573   5.322   4.144  16.111 -0.2628 -1.3958 -0.7213
 6386TIP3    H240574   5.469   4.125  16.141 -0.4342 -0.5477  0.7837
 6387TIP3   OH240575   3.064   0.479  13.536 -0.2708  0.1449  1.0409
 6387TIP3    H140576   3.024   0.554  13.492 -2.6376 -2.2090 -1.1671
 6387TIP3    H240577   3.045   0.492  13.629  0.6362  2.8828  0.9204
 6388TIP3   OH240578   4.890   5.660   5.824  0.4269  0.1556 -0.0776
 6388TIP3    H140579   4.818   5.706   5.868 -0.0444 -1.9021  1.4522
 6388TIP3    H240580   4.961   5.659   5.889 -0.3330 -3.0627  0.8783
 6389TIP3   OH240581   2.834   6.362   5.249 -0.2392 -0.0673  0.4269
 6389TIP3    H140582   2.782   6.436   5.216 -4.0077 -1.9008  1.6059
 6389TIP3    H240583   2.916   6.402   5.278 -0.7514  3.0834 -1.9227
 6390TIP3   OH240584   0.387   5.763   4.349 -0.1683 -0.1705  0.0997
 6390TIP3    H140585   0.357   5.673   4.335  0.3498 -0.4331  0.6649
 6390TIP3    H240586   0.481   5.756   4.363 -0.1556  0.4385  0.3623
 6391TIP3   OH240587   0.724   5.084   6.516 -0.3948 -0.4360  0.4626
 6391TIP3    H140588   0.767   5.047   6.593  0.6606 -3.2921 -1.3573
 6391TIP3    H240589   0.796   5.120   6.464 -0.9938  0.5987  0.3179
 6392TIP3   OH240590   3.381   0.365   4.993  0.0701 -0.2581 -0.4084
 6392TIP3    H140591   3.380   0.425   4.918  0.4233 -1.2404 -1.2193
 6392TIP3    H240592   3.331   0.289   4.963  1.1457 -1.1261 -0.0477
 6393TIP3   OH240593   5.398   1.924   0.002 -0.1453 -0.4192  0.5189
 6393TIP3    H140594   5.450   1.973  -0.062  0.6733 -1.2945  0.5001
 6393TIP3    H240595   5.354   1.992   0.054  1.9411  0.4191  1.3130
 6394TIP3   OH240596   3.522   3.749  12.028  0.0319 -0.4075 -0.2814
 6394TIP3    H140597   3.446   3.703  12.065  0.9913 -1.8496 -0.0017
 6394TIP3    H240598   3.593   3.729  12.089  1.5800 -2.4640 -2.5750
 6395TIP3   OH240599   6.584   2.366   0.719  0.2739 -0.6445 -0.9984
 6395TIP3    H140600   6.488   2.360   0.714  0.2347  0.3079 -1.7308
 6395TIP3    H240601   6.599   2.441   0.777  0.6391 -2.5932  1.6290
 6396TIP3   OH240602   5.341   2.851  14.142 -0.4811 -0.5651  0.1325
 6396TIP3    H140603   5.369   2.764  14.111 -2.3314 -1.0254 -0.3707
 6396TIP3    H240604   5.288   2.886  14.070  0.3076  1.0543  0.2936
 6397TIP3   OH240605   1.625   6.071   2.551  0.0664  0.1811 -0.7581
 6397TIP3    H140606   1.706   6.027   2.525  1.7243  1.3130  2.0424
 6397TIP3    H240607   1.587   6.102   2.469  1.5827 -1.8103 -2.3064
 6398TIP3   OH240608   4.160   4.570   2.744 -0.4560  0.1702 -0.2840
 6398TIP3    H140609   4.173   4.581   2.650  1.7436  0.7538  0.0347
 6398TIP3    H240610   4.248   4.578   2.781 -1.3458  0.4269  1.8743
 6399TIP3   OH240611   3.469   4.683  12.397 -0.4617  0.4054  0.3695
 6399TIP3    H140612   3.519   4.743  12.342  2.6634  0.3450  2.8658
 6399TIP3    H240613   3.477   4.598  12.353  2.2926  0.2717  0.9395
 6400TIP3   OH240614   2.676   4.389  15.646  0.0682 -0.7278  0.1144
 6400TIP3    H140615   2.697   4.433  15.729  0.7641  0.8039 -0.8411
 6400TIP3    H240616   2.704   4.298  15.659  3.1379  0.1691  0.4914
 6401TIP3   OH240617   1.522   6.274  12.133  0.3948 -0.3873  0.4089
 6401TIP3    H140618   1.453   6.209  12.144 -0.0816 -0.0341 -0.4040
 6401TIP3    H240619   1.604   6.223  12.135  0.0518 -0.9547  0.2411
 6402TIP3   OH240620   6.151   4.464   6.396 -0.1951  0.2267 -0.3134
 6402TIP3    H140621   6.153   4.401   6.468 -0.0281  0.8842  0.2718
 6402TIP3    H240622   6.238   4.459   6.358 -0.0114  0.4864  0.0706
 6403TIP3   OH240623   1.060   2.366  16.953 -0.2380 -0.4057 -0.3905
 6403TIP3    H140624   1.123   2.325  16.895 -0.2779  1.4588 -1.8306
 6403TIP3    H240625   1.031   2.295  17.011  1.8743 -1.6818 -0.7901
 6404TIP3   OH240626   4.653   2.690  14.532  0.0426 -0.6816  0.8197
 6404TIP3    H140627   4.676   2.686  14.439 -1.5109  0.6654  0.3530
 6404TIP3    H240628   4.694   2.770  14.564 -0.8877 -0.2221  0.8713
 6405TIP3   OH240629   3.337   4.584   4.042 -0.6967  0.1171  0.4850
 6405TIP3    H140630   3.353   4.677   4.058  1.4286 -0.2486  0.7513
 6405TIP3    H240631   3.347   4.574   3.947  1.0974 -0.1390  0.6664
 6406TIP3   OH240632   0.110   5.460  14.281 -0.0823  0.3231 -0.2376
 6406TIP3    H140633   0.087   5.515  14.356 -0.1856 -1.4287  1.0582
 6406TIP3    H240634   0.083   5.512  14.205 -1.5783  1.4212  0.9794
 6407TIP3   OH240635   3.139   1.882   3.152  0.0887 -0.0600  0.3574
 6407TIP3    H140636   3.096   1.847   3.230  0.6313 -2.6713 -0.4424
 6407TIP3    H240637   3.205   1.817   3.129  2.0272  2.0874 -0.5757
 6408TIP3   OH240638   5.975   4.870   0.356  0.3020 -0.1884 -0.1103
 6408TIP3    H140639   5.987   4.790   0.304  0.3712 -0.4870  0.3606
 6408TIP3    H240640   5.892   4.857   0.402 -0.4614  0.6741 -1.1981
 6409TIP3   OH240641   1.106   4.182  12.584 -0.1618  0.1369 -0.6030
 6409TIP3    H140642   1.041   4.143  12.525 -0.6660 -0.0978  0.0891
 6409TIP3    H240643   1.093   4.137  12.667 -0.0361  1.0420 -0.0745
 6410TIP3   OH240644   0.614   5.072   3.108  0.2108  0.0375 -0.3579
 6410TIP3    H140645   0.634   4.999   3.049  0.1562  0.0403 -0.3799
 6410TIP3    H240646   0.565   5.134   3.054  1.8622  0.9657 -0.8731
 6411TIP3   OH240647   5.183   3.702  16.125  0.1111 -0.7802  0.4815
 6411TIP3    H140648   5.191   3.758  16.048 -1.2694 -0.7159  0.3603
 6411TIP3    H240649   5.240   3.627  16.107 -1.1834 -1.4253 -1.2278
 6412TIP3   OH240650   4.969   6.014   1.500 -0.0125  0.5972  0.0694
 6412TIP3    H140651   4.907   5.973   1.561 -0.5227  1.2336 -0.0059
 6412TIP3    H240652   5.040   6.044   1.555  0.4943 -0.5879  0.0984
 6413TIP3   OH240653   2.479   4.061  14.792 -0.2926  0.4419  0.2353
 6413TIP3    H140654   2.556   4.113  14.817 -1.2482  1.4720  1.1689
 6413TIP3    H240655   2.515   3.981  14.754  1.2379  0.7489  0.9642
 6414TIP3   OH240656   4.316   0.925  14.010  0.4619 -0.1110 -0.0948
 6414TIP3    H140657   4.263   0.919  13.930 -0.7872  0.8734  0.6302
 6414TIP3    H240658   4.361   1.009  14.002 -1.0121  0.8174  1.0078
 6415TIP3   OH240659   1.757   0.472   4.237  1.3747  0.3753  0.1537
 6415TIP3    H140660   1.795   0.552   4.273  0.1434 -0.5510  3.9643
 6415TIP3    H240661   1.817   0.403   4.266  0.1634 -0.4609  0.7189
 6416TIP3   OH240662   5.500   2.683   1.286  0.6566  0.4321  1.0455
 6416TIP3    H140663   5.497   2.753   1.221 -2.9585 -0.1340  0.4413
 6416TIP3    H240664   5.582   2.637   1.266  0.1162  0.7534 -2.6041
 6417TIP3   OH240665   0.044   3.887  15.790  0.4226  0.0698 -0.3822
 6417TIP3    H140666  -0.016   3.854  15.723  0.0675  0.3258 -0.1931
 6417TIP3    H240667   0.056   3.814  15.850 -1.1750  0.5881  0.6039
 6418TIP3   OH240668   2.300   0.417   0.235  0.0715 -0.2414 -0.0217
 6418TIP3    H140669   2.386   0.385   0.206  0.4549  0.7763 -0.0545
 6418TIP3    H240670   2.265   0.464   0.159 -1.1006 -1.7250 -0.4430
 6419TIP3   OH240671   0.534   2.956   3.840 -0.4018  0.0214  0.5856
 6419TIP3    H140672   0.454   3.000   3.812 -0.6080 -0.9328 -0.3683
 6419TIP3    H240673   0.532   2.963   3.936 -0.6014  1.7350  0.4948
 6420TIP3   OH240674   0.261   1.312  11.999  0.2174 -0.3612  0.7363
 6420TIP3    H140675   0.245   1.406  12.010  0.4697 -0.0898 -0.9272
 6420TIP3    H240676   0.231   1.293  11.910  1.2106 -1.6275  0.6443
 6421TIP3   OH240677   1.171   3.873   4.087 -0.1602  0.3741 -0.1067
 6421TIP3    H140678   1.215   3.932   4.026  1.7308  0.3575  1.1305
 6421TIP3    H240679   1.135   3.930   4.155 -3.0879  0.4784 -1.6031
 6422TIP3   OH240680   6.432   4.564   6.007 -0.0649 -0.1656  0.7365
 6422TIP3    H140681   6.482   4.511   5.945  0.8259 -0.5553  1.7406
 6422TIP3    H240682   6.396   4.501   6.069 -1.1112  0.2004  0.5130
 6423TIP3   OH240683   0.608   1.809   4.807 -0.4812  0.3694  0.0402
 6423TIP3    H140684   0.516   1.825   4.786 -0.5997 -0.4019 -0.0706
 6423TIP3    H240685   0.641   1.761   4.731  0.1660  1.1362 -0.1736
 6424TIP3   OH240686   4.506   3.007  12.109  0.3343 -0.3658 -0.0076
 6424TIP3    H140687   4.458   2.948  12.168 -3.3630  1.1779 -1.1761
 6424TIP3    H240688   4.485   2.976  12.021  1.4170  0.5000 -0.5986
 6425TIP3   OH240689   5.672   6.406  15.158  0.4624 -0.6004 -0.3298
 6425TIP3    H140690   5.647   6.498  15.158 -0.1420 -0.7202 -2.4211
 6425TIP3    H240691   5.644   6.374  15.244  1.3304  1.2848  0.7252
 6426TIP3   OH240692   5.771   1.375  14.042  0.8891 -0.1787  0.0654
 6426TIP3    H140693   5.707   1.433  14.083  3.4851  1.8534  1.5882
 6426TIP3    H240694   5.740   1.365  13.952 -1.2450  1.1044  0.5821
 6427TIP3   OH240695   6.748   0.898  17.400  0.2132 -0.1728 -0.0778
 6427TIP3    H140696   6.778   0.896  17.491  0.7403 -1.3250 -0.2521
 6427TIP3    H240697   6.653   0.911  17.407  0.2708 -0.0702  0.6318
 6428TIP3   OH240698   0.940   2.773   1.230  0.3859  0.0699  0.5659
 6428TIP3    H140699   0.908   2.827   1.302  1.4004  1.7921 -0.2051
 6428TIP3    H240700   0.979   2.696   1.272  0.8516  0.9843  1.8537
 6429TIP3   OH240701   4.431   5.508   2.546  0.0171  0.4754  0.4387
 6429TIP3    H140702   4.363   5.462   2.497 -1.0633  1.3668  1.0485
 6429TIP3    H240703   4.513   5.480   2.505 -0.6942 -0.7386 -0.2193
 6430TIP3   OH240704   0.550   1.508   4.151  0.1408 -0.3406  0.3090
 6430TIP3    H140705   0.527   1.526   4.060 -1.9587 -0.1032  0.8208
 6430TIP3    H240706   0.642   1.482   4.148  0.1594 -0.2352 -1.8534
 6431TIP3   OH240707   1.522   2.188   1.064 -0.8553  0.8694  0.2769
 6431TIP3    H140708   1.548   2.255   1.001 -1.3853  0.6709 -0.1649
 6431TIP3    H240709   1.471   2.125   1.012 -1.1747  0.6292  0.8765
 6432TIP3   OH240710   4.113   0.673  14.085 -0.6597 -0.0836  0.1551
 6432TIP3    H140711   4.143   0.583  14.101 -2.0636 -0.4072  1.1492
 6432TIP3    H240712   4.159   0.700  14.005 -2.1913 -2.6313 -1.7286
 6433TIP3   OH240713   3.995   5.971  10.747  0.2157  0.0081  0.3366
 6433TIP3    H140714   4.062   5.927  10.800  0.0516  0.3806  0.8624
 6433TIP3    H240715   3.921   5.910  10.746  0.7488 -0.6403 -0.6925
 6434TIP3   OH240716   3.999   5.737   1.702 -0.2109 -0.3338  0.4867
 6434TIP3    H140717   3.993   5.820   1.748 -0.6211 -0.3246  0.4274
 6434TIP3    H240718   4.089   5.732   1.671 -0.7310  1.1100 -1.3940
 6435TIP3   OH240719   2.877   2.053  16.738  0.0460  0.5417  0.4363
 6435TIP3    H140720   2.937   2.124  16.719  0.0457  0.7870  1.3224
 6435TIP3    H240721   2.861   2.011  16.653  0.9069  0.9069  0.0915
 6436TIP3   OH240722   2.500   5.072  16.149 -0.2658  0.0047 -0.0558
 6436TIP3    H140723   2.406   5.065  16.134 -0.4781 -0.8678  1.4842
 6436TIP3    H240724   2.534   4.986  16.127  0.5341  0.8632 -2.5549
 6437TIP3   OH240725   3.834   2.410  12.036  0.2902  0.0047  0.2406
 6437TIP3    H140726   3.878   2.399  11.952 -1.1381 -0.8691 -0.4351
 6437TIP3    H240727   3.896   2.377  12.101  0.2703 -2.2210 -0.7745
 6438TIP3   OH240728   2.360   5.996  13.508  0.6657  0.3607 -0.0835
 6438TIP3    H140729   2.309   5.986  13.427 -0.3297  0.7651  0.4811
 6438TIP3    H240730   2.357   6.090  13.527 -0.8710  0.0429  1.5158
 6439TIP3   OH240731   0.140   2.125   5.085  0.6933 -0.3822 -0.1592
 6439TIP3    H140732   0.232   2.114   5.109  1.1549  2.9357  0.0886
 6439TIP3    H240733   0.097   2.149   5.167  0.5260  2.2065 -0.9104
 6440TIP3   OH240734   1.918   5.099  14.343 -0.1583 -0.2543 -0.1477
 6440TIP3    H140735   1.938   5.193  14.341  0.7557 -0.2335  3.3352
 6440TIP3    H240736   1.863   5.088  14.421 -0.2942 -2.6261 -0.5091
 6441TIP3   OH240737   4.818   3.240  15.771  0.6248 -0.0977 -0.6308
 6441TIP3    H140738   4.885   3.176  15.796 -0.8547 -0.9525  1.4850
 6441TIP3    H240739   4.799   3.287  15.852 -1.6190 -0.2059 -1.0204
 6442TIP3   OH240740   1.588   5.637  16.015 -0.5286 -0.2599  0.1909
 6442TIP3    H140741   1.671   5.618  16.060 -0.9327  1.6601  1.8884
 6442TIP3    H240742   1.541   5.554  16.016  0.5827 -0.9114  0.9790
 6443TIP3   OH240743   2.493   3.667   2.833 -0.0415 -0.4229  0.2407
 6443TIP3    H140744   2.464   3.671   2.742  1.0808 -0.6194 -0.1366
 6443TIP3    H240745   2.573   3.616   2.831  1.0159  1.1076  1.0764
 6444TIP3   OH240746   1.002   6.210  12.173  0.2853 -1.0970  0.1880
 6444TIP3    H140747   1.091   6.238  12.194 -0.5887  2.9943 -0.6347
 6444TIP3    H240748   0.997   6.215  12.078 -0.7546 -1.5242  0.2078
 6445TIP3   OH240749   4.525   0.457   6.394  0.5422  0.2693 -0.0204
 6445TIP3    H140750   4.454   0.398   6.420 -0.9734  2.7021  1.8358
 6445TIP3    H240751   4.605   0.409   6.413 -0.4657 -2.7897 -2.6352
 6446TIP3   OH240752   4.163   2.789   3.573 -0.1359  0.0647  0.3923
 6446TIP3    H140753   4.127   2.858   3.629 -0.2550  1.6324 -1.5211
 6446TIP3    H240754   4.173   2.714   3.632 -0.3381  1.5762  2.4714
 6447TIP3   OH240755   3.863   4.546  14.094  0.3009  0.1198 -0.3781
 6447TIP3    H140756   3.932   4.554  14.028 -0.5060  0.8321 -1.1638
 6447TIP3    H240757   3.782   4.568  14.047 -0.3008  0.6399  0.8529
 6448TIP3   OH240758   1.441   2.229  13.977 -0.2356  0.1125  0.0031
 6448TIP3    H140759   1.347   2.229  13.960 -0.1844  1.1803 -0.3269
 6448TIP3    H240760   1.464   2.136  13.983 -1.5077 -0.1592  1.2027
 6449TIP3   OH240761   1.028   4.270  11.478  0.2859  0.1807  0.4280
 6449TIP3    H140762   1.071   4.203  11.425 -0.0033  0.6040 -0.3658
 6449TIP3    H240763   0.938   4.273  11.444  0.6104  1.7825 -0.3657
 6450TIP3   OH240764   0.052   3.914   2.897  0.2969 -0.6325 -0.1469
 6450TIP3    H140765  -0.016   3.936   2.833  1.5212  0.4715 -1.1349
 6450TIP3    H240766   0.006   3.912   2.981 -1.0492 -0.4716 -0.8534
 6451TIP3   OH240767   6.443   4.435  15.637  0.3288  0.5121 -0.2496
 6451TIP3    H140768   6.524   4.423  15.588  0.8217 -0.4855  0.7478
 6451TIP3    H240769   6.470   4.425  15.729 -0.6175  1.9554  0.2035
 6452TIP3   OH240770   3.571   5.609   5.767 -0.0102 -0.0787  0.5137
 6452TIP3    H140771   3.579   5.697   5.804  1.8483 -0.5806  1.4229
 6452TIP3    H240772   3.639   5.605   5.700 -0.4928 -0.6226  0.0462
 6453TIP3   OH240773   4.830   6.173   6.326  0.0082  0.2261  0.1397
 6453TIP3    H140774   4.923   6.160   6.308  0.2660  2.1835 -0.1143
 6453TIP3    H240775   4.804   6.096   6.377  1.7869 -0.2984  0.3021
 6454TIP3   OH240776   0.053   1.122  17.128 -0.0270  0.2192  0.4345
 6454TIP3    H140777   0.083   1.128  17.219  3.6049 -0.7096 -0.5040
 6454TIP3    H240778   0.082   1.205  17.089  0.9440 -0.4987 -0.4237
 6455TIP3   OH240779   3.764   3.864  11.218 -0.5664  0.0905 -0.3687
 6455TIP3    H140780   3.766   3.806  11.141 -0.5815 -1.7912  0.9807
 6455TIP3    H240781   3.856   3.882  11.237 -0.5429  0.1194 -0.5093
 6456TIP3   OH240782   2.261   1.450   2.192  0.0269  0.5446 -0.1794
 6456TIP3    H140783   2.328   1.386   2.169  0.5092  1.0722 -0.2713
 6456TIP3    H240784   2.310   1.531   2.209 -0.4805  0.6624  0.8321
 6457TIP3   OH240785   1.709   1.474  15.675 -0.5568 -0.4968 -0.2387
 6457TIP3    H140786   1.738   1.386  15.651  0.0593 -0.0840 -1.0695
 6457TIP3    H240787   1.776   1.506  15.736 -0.1649 -0.1860 -0.8232
 6458TIP3   OH240788   0.937   3.731   1.549  0.3581 -0.6341  0.2999
 6458TIP3    H140789   0.896   3.671   1.612 -1.7768  0.6840  0.2840
 6458TIP3    H240790   0.914   3.695   1.463 -1.1366  0.2497  0.2870
 6459TIP3   OH240791   4.191   6.357   3.693  0.7705  0.3997 -0.3774
 6459TIP3    H140792   4.128   6.340   3.623  0.6678 -1.8468  0.1946
 6459TIP3    H240793   4.137   6.391   3.765 -0.2690 -3.1858  0.7617
 6460TIP3   OH240794   6.598   0.214   4.082 -0.6989  0.0489 -0.1782
 6460TIP3    H140795   6.573   0.306   4.096  1.3568  0.7014 -0.4573
 6460TIP3    H240796   6.563   0.193   3.996  0.4363  1.2272 -0.9702
 6461TIP3   OH240797   4.314   1.691   3.507 -0.0620 -0.0528  0.0779
 6461TIP3    H140798   4.389   1.748   3.521  0.1510  0.0977 -1.4894
 6461TIP3    H240799   4.347   1.620   3.452 -0.9807 -0.1565 -0.3658
 6462TIP3   OH240800   3.603   4.427  11.971  0.6051 -0.0723 -0.0858
 6462TIP3    H140801   3.660   4.471  12.035  0.6987  1.8673 -1.4043
 6462TIP3    H240802   3.654   4.352  11.941  0.6005 -0.9693  1.9873
 6463TIP3   OH240803   4.923   3.143   4.871 -0.0928 -0.1193  0.5024
 6463TIP3    H140804   4.934   3.089   4.949  0.0598  1.3843  1.5637
 6463TIP3    H240805   4.865   3.214   4.899  0.2196  0.6192 -0.6584
 6464TIP3   OH240806   0.075   5.733  15.035  0.0330 -0.1261  0.6081
 6464TIP3    H140807   0.007   5.669  15.060 -0.2142  0.6420  2.0547
 6464TIP3    H240808   0.026   5.807  14.999  0.0491  0.5155  1.8453
 6465TIP3   OH240809   5.680   4.275   0.858 -0.5384 -0.5853 -0.8393
 6465TIP3    H140810   5.717   4.351   0.812 -2.1005  2.0652  1.8671
 6465TIP3    H240811   5.585   4.287   0.850 -0.8444 -2.6581 -0.8028
 6466TIP3   OH240812   6.725   5.889  12.475 -0.2293  0.1115 -0.0173
 6466TIP3    H140813   6.655   5.827  12.458 -0.4221  1.0568 -3.3068
 6466TIP3    H240814   6.797   5.861  12.420  0.6519  1.2738  0.4855
 6467TIP3   OH240815   4.422   3.748  11.123  0.0539  0.0720  0.5416
 6467TIP3    H140816   4.443   3.819  11.062 -0.7208 -0.2389 -0.1248
 6467TIP3    H240817   4.458   3.670  11.081 -1.8794 -0.3914 -0.3798
 6468TIP3   OH240818   1.992   0.549  14.507 -0.1312  0.0593  0.2226
 6468TIP3    H140819   2.086   0.532  14.508  0.1470  1.3685 -0.6839
 6468TIP3    H240820   1.980   0.613  14.437 -1.6739  0.0636  0.4562
 6469TIP3   OH240821   4.963   1.061  13.044  0.4178 -0.1623 -0.1919
 6469TIP3    H140822   4.898   1.084  13.110  0.6128 -0.9036  0.2791
 6469TIP3    H240823   4.920   1.079  12.960  0.0862  0.5767  0.1343
 6470TIP3   OH240824   0.855   5.880  16.567  0.0369 -0.6187  0.4400
 6470TIP3    H140825   0.883   5.789  16.566 -1.5359 -1.1479  1.0105
 6470TIP3    H240826   0.761   5.876  16.585  0.1753  1.1726  1.8814
 6471TIP3   OH240827   2.962   3.669  14.761  0.8808  0.0491 -0.1760
 6471TIP3    H140828   3.018   3.733  14.719  2.3055  0.0039  1.5191
 6471TIP3    H240829   2.974   3.589  14.710 -1.8441  1.2956 -3.0460
 6472TIP3   OH240830   4.704   5.921  12.347 -1.2072  1.0112 -0.1154
 6472TIP3    H140831   4.648   5.986  12.305 -0.1849  1.1723 -1.3066
 6472TIP3    H240832   4.780   5.971  12.377 -1.2923  0.6645  0.6989
 6473TIP3   OH240833   2.998   0.605   1.662 -0.1049  0.1842 -0.0698
 6473TIP3    H140834   2.945   0.657   1.602 -1.2217 -2.2914 -1.3907
 6473TIP3    H240835   3.007   0.660   1.740 -1.6020  2.1113 -1.1684
 6474TIP3   OH240836   3.144   2.754   4.483 -0.0150  0.9238 -0.6450
 6474TIP3    H140837   3.093   2.682   4.520  0.5115 -0.3526 -2.3146
 6474TIP3    H240838   3.082   2.826   4.475 -1.6478 -0.6059 -2.6830
 6475TIP3   OH240839   4.648   2.469   5.173 -0.0960  0.1984  0.3979
 6475TIP3    H140840   4.707   2.479   5.247  0.1868 -0.9563  0.3408
 6475TIP3    H240841   4.662   2.548   5.120 -0.3655  1.0805  1.5897
 6476TIP3   OH240842   5.127   2.916   1.268  0.7961  0.3673 -0.1004
 6476TIP3    H140843   5.088   2.840   1.224  2.4651 -0.6331  0.0421
 6476TIP3    H240844   5.160   2.881   1.351  2.0680  1.1123 -0.2678
 6477TIP3   OH240845   6.081   2.938  15.227  0.3185 -0.9593 -0.6293
 6477TIP3    H140846   6.067   2.893  15.143  1.1155  0.0769 -1.3450
 6477TIP3    H240847   6.010   3.001  15.232 -1.1903 -2.6630  0.6898
 6478TIP3   OH240848   2.282   4.795  16.317 -0.4150 -0.3090 -0.5031
 6478TIP3    H140849   2.335   4.864  16.355  1.0540 -1.8626  0.4018
 6478TIP3    H240850   2.198   4.837  16.297  0.2782  1.5934  0.3982
 6479TIP3   OH240851   6.360   0.670   2.931  1.0278  0.2779 -0.1566
 6479TIP3    H140852   6.305   0.734   2.976 -0.2145  0.1785 -1.4684
 6479TIP3    H240853   6.448   0.708   2.933  0.9373  0.4706  1.9261
 6480TIP3   OH240854   5.822   2.754  10.909  0.2916 -0.3274 -0.5635
 6480TIP3    H140855   5.842   2.846  10.921  1.2971 -0.6637  0.4982
 6480TIP3    H240856   5.781   2.749  10.822 -0.1853  1.1626 -0.4413
 6481TIP3   OH240857   4.518   2.451  11.313  0.3657 -0.5826 -0.1094
 6481TIP3    H140858   4.494   2.485  11.227 -2.6951 -2.1628 -0.0298
 6481TIP3    H240859   4.508   2.356  11.305 -2.7527 -0.6937  2.5459
 6482TIP3   OH240860   2.858   0.332  11.097 -0.0084 -0.0856 -0.1326
 6482TIP3    H140861   2.946   0.315  11.064  0.4865  1.8667  0.0645
 6482TIP3    H240862   2.802   0.331  11.019  0.7344  1.8239 -0.7607
 6483TIP3   OH240863   5.017   5.324   4.062 -0.5620 -0.3519  0.0270
 6483TIP3    H140864   5.017   5.320   3.967  0.3961  1.2078 -0.0836
 6483TIP3    H240865   5.015   5.418   4.082  0.1622 -0.6237  1.5193
 6484TIP3   OH240866   0.498   0.617  14.615 -0.8560  0.3506 -0.1904
 6484TIP3    H140867   0.587   0.639  14.586 -0.7426  0.4061  0.1971
 6484TIP3    H240868   0.493   0.649  14.705 -2.3119  3.1930 -1.1687
 6485TIP3   OH240869   1.215   4.728  11.242  0.1980  0.3584 -0.1264
 6485TIP3    H140870   1.281   4.700  11.179 -0.2654 -0.3932 -0.2932
 6485TIP3    H240871   1.213   4.658  11.307 -1.8210 -0.6607 -1.1812
 6486TIP3   OH240872   4.457   6.384   5.555 -0.9556 -0.1423  0.9765
 6486TIP3    H140873   4.492   6.378   5.644  2.8719  1.5464 -0.1524
 6486TIP3    H240874   4.435   6.477   5.544 -0.8121 -0.2004  0.0378
 6487TIP3   OH240875   0.003   4.651  11.934  0.8133 -0.2396 -0.2309
 6487TIP3    H140876  -0.013   4.676  12.025  0.0619  1.0060 -0.6767
 6487TIP3    H240877  -0.013   4.556  11.932  1.2423 -0.3531  1.0059
 6488TIP3   OH240878   3.645   0.426   2.147  0.2231  0.4543 -0.1961
 6488TIP3    H140879   3.564   0.386   2.113 -0.3839  0.0380  1.6389
 6488TIP3    H240880   3.621   0.458   2.234  1.7788  1.2782 -0.0385
 6489TIP3   OH240881   1.818   5.851   0.342  0.6029  0.0523  0.2665
 6489TIP3    H140882   1.899   5.899   0.359  1.3516 -1.6123  1.7540
 6489TIP3    H240883   1.838   5.796   0.266  1.2800 -1.1139  1.2448
 6490TIP3   OH240884   4.610   6.377   2.206 -0.0502 -0.0021  0.3835
 6490TIP3    H140885   4.533   6.342   2.251  0.4577  2.6427  3.7980
 6490TIP3    H240886   4.685   6.344   2.257  0.7804  0.8179 -0.2644
 6491TIP3   OH240887   0.928   2.738  13.499  0.5109 -0.2061  0.3828
 6491TIP3    H140888   0.900   2.716  13.588  1.1875  1.5317  1.0587
 6491TIP3    H240889   0.997   2.674  13.479 -0.0586 -0.9872  0.8499
 6492TIP3   OH240890   4.103   5.437  12.123  0.3199  0.2545 -0.6822
 6492TIP3    H140891   4.150   5.420  12.205  1.5099 -0.2150 -1.4299
 6492TIP3    H240892   4.062   5.523  12.136  0.9732  0.4460  0.1926
 6493TIP3   OH240893   0.324   2.694  12.915 -0.5218  0.2746 -0.2219
 6493TIP3    H140894   0.383   2.619  12.915 -0.1286  0.4865  2.7135
 6493TIP3    H240895   0.370   2.761  12.864 -0.3803 -1.0178 -1.8972
 6494TIP3   OH240896   4.954   3.468   0.362  0.4444  0.3619  0.2601
 6494TIP3    H140897   4.962   3.446   0.455 -1.0029 -0.8092  0.1474
 6494TIP3    H240898   5.038   3.443   0.324  0.6976 -0.0761  1.0901
 6495TIP3   OH240899   3.990   6.699  12.164  0.1212  0.1657  0.3302
 6495TIP3    H140900   4.016   6.651  12.086 -0.1289  1.1326 -0.3747
 6495TIP3    H240901   3.980   6.790  12.134 -2.1811  0.1891  0.9750
 6496TIP3   OH240902   6.103   2.893   3.226  0.2871  0.1256 -0.3787
 6496TIP3    H140903   6.075   2.968   3.278  0.7959 -0.3118  0.5605
 6496TIP3    H240904   6.064   2.818   3.270  2.5945 -0.4700  0.7936
 6497TIP3   OH240905   2.520   1.133   0.573  0.6857 -0.6023  0.6209
 6497TIP3    H140906   2.503   1.208   0.630  0.3677 -0.0286 -0.1934
 6497TIP3    H240907   2.433   1.096   0.555  0.9000 -1.6238  1.5947
 6498TIP3   OH240908   1.637   0.437  16.479 -0.2680 -0.6817 -0.1290
 6498TIP3    H140909   1.687   0.476  16.550 -0.2623 -1.6007  0.3924
 6498TIP3    H240910   1.703   0.404  16.418 -0.2617  1.5904 -1.4478
 6499TIP3   OH240911   3.998   4.388  15.107  0.1588 -0.7467  0.1408
 6499TIP3    H140912   4.062   4.446  15.148  1.1014 -2.8812  1.8932
 6499TIP3    H240913   4.033   4.300  15.119 -0.7411 -1.7311 -3.2361
 6500TIP3   OH240914   2.045   1.210   6.541  0.7250 -0.2168  0.5457
 6500TIP3    H140915   2.049   1.121   6.505 -0.8748  0.2651 -0.9796
 6500TIP3    H240916   1.954   1.236   6.529  1.3738  1.9909  0.0339
 6501TIP3   OH240917   1.968   5.997  12.217  0.7515  0.5298 -0.1232
 6501TIP3    H140918   1.883   6.013  12.175  1.7751  0.5217 -2.3685
 6501TIP3    H240919   1.998   6.084  12.244 -0.5556  0.3819  2.0738
 6502TIP3   OH240920   1.626   6.378   5.898 -0.3332 -0.2456 -0.2882
 6502TIP3    H140921   1.702   6.364   5.841 -0.4489  1.8360 -1.0032
 6502TIP3    H240922   1.662   6.418   5.977 -0.2510 -2.6251  0.9883
 6503TIP3   OH240923   0.759   5.231   0.241 -0.0271  0.5474  0.3300
 6503TIP3    H140924   0.735   5.312   0.195  0.8896 -0.0031 -1.2235
 6503TIP3    H240925   0.727   5.243   0.330 -1.4570  1.8937 -0.3179
 6504TIP3   OH240926   6.592   1.645   3.043 -0.2144 -0.0992 -0.0997
 6504TIP3    H140927   6.625   1.639   3.133  0.6690  1.0784 -0.3327
 6504TIP3    H240928   6.594   1.555   3.011 -0.3149 -0.4996  0.9733
 6505TIP3   OH240929   3.414   2.218   5.088 -0.5674 -0.4071 -0.3858
 6505TIP3    H140930   3.469   2.264   5.025  0.5361 -3.6482 -1.9854
 6505TIP3    H240931   3.468   2.146   5.120 -1.6193  0.2119  3.2897
 6506TIP3   OH240932   6.609   1.287  14.015 -0.1798 -0.4081  0.5740
 6506TIP3    H140933   6.570   1.231  14.083  0.3744 -2.3057 -0.5693
 6506TIP3    H240934   6.580   1.248  13.933 -1.2563  2.1398 -0.3508
 6507TIP3   OH240935   0.095   1.390   2.070  0.0495 -0.3432  0.3896
 6507TIP3    H140936   0.027   1.454   2.049  0.5161  0.2419  0.6027
 6507TIP3    H240937   0.140   1.428   2.146 -0.8029 -1.7966  1.6922
 6508TIP3   OH240938   1.013   6.296   5.105 -0.2682 -0.5417  0.4933
 6508TIP3    H140939   1.066   6.283   5.184  0.0241  0.3761  0.4583
 6508TIP3    H240940   1.030   6.218   5.052  1.0632 -0.2620  0.4760
 6509TIP3   OH240941   2.096   0.326  14.151 -0.3040  0.2173 -0.5394
 6509TIP3    H140942   2.162   0.393  14.171  0.1031 -0.3355 -0.0127
 6509TIP3    H240943   2.013   0.374  14.151 -0.3092  0.3502  2.2233
 6510TIP3   OH240944   1.802   3.028   1.009 -0.0700 -0.8101  0.0270
 6510TIP3    H140945   1.815   3.122   1.024 -0.9525 -0.8751  1.3513
 6510TIP3    H240946   1.890   2.991   1.013  0.4954  0.1279 -2.1071
 6511TIP3   OH240947   6.181   4.237   1.339  0.4154  0.6233  0.2469
 6511TIP3    H140948   6.242   4.306   1.312  0.6474  0.4922  0.4274
 6511TIP3    H240949   6.233   4.180   1.395  0.1943  0.3622  0.1902
 6512TIP3   OH240950   4.407   0.508   4.370  0.2534 -0.4670  0.1621
 6512TIP3    H140951   4.382   0.447   4.440  0.3422  0.2953  0.8717
 6512TIP3    H240952   4.458   0.455   4.310 -1.5913 -1.6639 -0.4520
 6513TIP3   OH240953   1.999   2.739  12.859 -0.0095  0.4072  0.0042
 6513TIP3    H140954   2.054   2.704  12.929 -0.1364 -0.5707 -0.3765
 6513TIP3    H240955   2.061   2.778  12.797  0.1797  0.2983  0.1240
 6514TIP3   OH240956   2.856   0.288   1.117 -0.4695 -0.1819 -0.0768
 6514TIP3    H140957   2.806   0.216   1.157 -1.3323  0.5329  0.1562
 6514TIP3    H240958   2.826   0.366   1.164 -1.8687  0.7643 -2.3936
 6515TIP3   OH240959   4.939   6.002  14.142 -0.1824  0.1964 -0.6053
 6515TIP3    H140960   4.988   5.921  14.155 -0.1479  0.2179 -0.6010
 6515TIP3    H240961   4.849   5.980  14.165 -0.2694  0.0196 -1.1078
 6516TIP3   OH240962   6.746   4.556  14.225 -0.3691  0.7305  0.0463
 6516TIP3    H140963   6.782   4.635  14.184 -2.8793  1.0499 -1.7973
 6516TIP3    H240964   6.711   4.585  14.309  1.5383  0.8592  0.8371
 6517TIP3   OH240965   3.968   3.108   4.892  0.1045  0.3478 -0.1669
 6517TIP3    H140966   3.974   3.157   4.974  1.1753  0.3055 -0.2093
 6517TIP3    H240967   3.901   3.155   4.842 -1.0002  0.0232  0.9486
 6518TIP3   OH240968   2.645   2.521  12.659  0.2303 -0.4059  0.3962
 6518TIP3    H140969   2.550   2.513  12.673  0.1457 -0.1354 -0.0149
 6518TIP3    H240970   2.683   2.501  12.745 -0.0564 -2.8836  0.0318
 6519TIP3   OH240971   6.282   0.489   1.388 -0.0057 -0.2251  0.6056
 6519TIP3    H140972   6.319   0.488   1.476  1.4349  0.8308  0.0399
 6519TIP3    H240973   6.336   0.550   1.339  0.0919 -1.7904 -1.3984
 6520TIP3   OH240974   1.430   2.477  12.952  0.6396 -0.1175 -0.3024
 6520TIP3    H140975   1.400   2.481  12.861  2.2671  1.7655 -0.8279
 6520TIP3    H240976   1.351   2.492  13.003 -0.4009 -1.7077 -1.3396
 6521TIP3   OH240977   3.691   5.143  16.166 -0.5999 -0.0317 -0.0816
 6521TIP3    H140978   3.654   5.230  16.178  0.5809  0.8403 -2.2305
 6521TIP3    H240979   3.639   5.104  16.096  0.4680 -0.0416 -0.8920
 6522TIP3   OH240980   1.336   6.280   4.241  0.0820  0.1328  0.0299
 6522TIP3    H140981   1.370   6.365   4.214 -1.3104  0.6029 -0.3396
 6522TIP3    H240982   1.269   6.301   4.306 -1.0574 -0.5922 -0.8747
 6523TIP3   OH240983   3.672   2.706   6.067 -0.1451  0.2561 -0.7998
 6523TIP3    H140984   3.646   2.623   6.027  1.4585  0.0889 -1.5539
 6523TIP3    H240985   3.628   2.706   6.152  0.4527 -1.7458 -0.4326
 6524TIP3   OH240986   4.094   6.570   1.654  0.1247  0.1886  0.0868
 6524TIP3    H140987   4.082   6.475   1.656 -1.5685  0.3822  1.2207
 6524TIP3    H240988   4.119   6.592   1.744 -1.1979  0.9752  0.2860
 6525TIP3   OH240989   5.340   2.300  17.150  0.6548 -0.1704  0.1638
 6525TIP3    H140990   5.347   2.357  17.227  2.6707  0.8255 -0.6754
 6525TIP3    H240991   5.251   2.312  17.119  0.0164 -0.0759  1.9323
 6526TIP3   OH240992   5.841   3.287   3.248 -0.5517  0.4062  0.1047
 6526TIP3    H140993   5.846   3.194   3.270 -0.6411 -0.1680 -2.0670
 6526TIP3    H240994   5.931   3.313   3.229 -0.7460  0.2855 -1.0212
 6527TIP3   OH240995   0.836   6.262   4.108 -0.1516  0.3674 -0.0662
 6527TIP3    H140996   0.903   6.287   4.044  0.1830 -0.5573 -0.0999
 6527TIP3    H240997   0.762   6.233   4.054 -1.1901  2.7882 -0.0532
 6528TIP3   OH240998   1.065   4.452   4.856  0.1543 -0.3479  0.1627
 6528TIP3    H140999   0.997   4.511   4.890  1.2521  1.3130 -0.4005
 6528TIP3    H241000   1.147   4.489   4.889  0.8214 -2.4684  1.0667
 6529TIP3   OH241001   3.074   4.495   1.795  0.7642 -0.1841 -0.3909
 6529TIP3    H141002   3.007   4.517   1.860 -0.5313 -0.9651 -1.4065
 6529TIP3    H241003   3.153   4.538   1.826 -0.5548  2.0537  0.0871
 6530TIP3   OH241004   6.510   1.930   4.478 -0.3151  0.4020  0.4195
 6530TIP3    H141005   6.425   1.888   4.492 -0.0524 -1.3177 -2.5475
 6530TIP3    H241006   6.489   2.012   4.433 -0.4255  0.3133  0.3108
 6531TIP3   OH241007   2.884   2.706  12.179  0.5263  0.1514 -0.1330
 6531TIP3    H141008   2.959   2.665  12.221 -0.2140  0.2743  1.3799
 6531TIP3    H241009   2.922   2.773  12.121  1.5715  1.4292  1.8981
 6532TIP3   OH241010   0.862   5.661   6.060  0.8028 -0.2068 -0.1782
 6532TIP3    H141011   0.941   5.610   6.077  1.3711  0.6694 -0.1226
 6532TIP3    H241012   0.851   5.655   5.965  0.7148 -0.6565 -0.1392
 6533TIP3   OH241013   1.806   5.296  12.357 -0.5624 -0.0553  0.0880
 6533TIP3    H141014   1.824   5.206  12.329  0.0333 -0.7059  2.3686
 6533TIP3    H241015   1.712   5.297  12.373 -0.3729 -0.7361  1.4123
 6534TIP3   OH241016   4.119   3.244   5.512  0.4062 -0.6211  0.8226
 6534TIP3    H141017   4.073   3.277   5.589 -0.0631 -1.5009  0.9371
 6534TIP3    H241018   4.207   3.282   5.518  0.6101 -1.2225  2.1937
 6535TIP3   OH241019   2.710   1.736  12.378  0.0681  0.0568 -0.0481
 6535TIP3    H141020   2.621   1.711  12.402  1.0813 -2.1251  1.8049
 6535TIP3    H241021   2.732   1.806  12.438  0.0774 -0.3824  0.4665
 6536TIP3   OH241022   0.155   1.170   2.245  0.1133 -0.3704 -0.1727
 6536TIP3    H141023   0.148   1.233   2.174 -0.3520 -0.7464 -0.4716
 6536TIP3    H241024   0.249   1.159   2.259  0.1965  0.1453 -0.3354
 6537TIP3   OH241025   2.806   6.042  15.156  0.3018 -0.3485  0.5497
 6537TIP3    H141026   2.773   5.965  15.110 -1.4618  0.6136  0.1069
 6537TIP3    H241027   2.893   6.058  15.119  1.1780 -2.7094  1.4154
 6538TIP3   OH241028   2.093   6.622   3.551  0.0623  0.0908 -0.6243
 6538TIP3    H141029   2.079   6.658   3.464 -1.7833  0.5117 -0.1961
 6538TIP3    H241030   2.021   6.559   3.563  0.1288  0.2288  0.6685
 6539TIP3   OH241031   0.493   0.776   3.564  0.1028  0.0422  0.7520
 6539TIP3    H141032   0.483   0.806   3.655  1.2736  1.0699  0.5661
 6539TIP3    H241033   0.421   0.819   3.517  0.6158  1.0375  0.8561
 6540TIP3   OH241034   6.231   1.535  12.263 -0.4186  0.2518 -0.5268
 6540TIP3    H141035   6.235   1.440  12.250  1.3496  0.2897 -0.4969
 6540TIP3    H241036   6.226   1.571  12.175 -0.6935  0.1371 -0.5577
 6541TIP3   OH241037   5.690   0.458   5.153 -0.1991 -0.1532  0.0687
 6541TIP3    H141038   5.700   0.363   5.153  1.8083  0.0226  1.0185
 6541TIP3    H241039   5.717   0.485   5.065  0.5996 -0.3523  0.2475
 6542TIP3   OH241040   1.944   2.451   0.415  0.2997  0.0506 -0.4347
 6542TIP3    H141041   2.026   2.430   0.460  0.9268  0.4707 -1.3555
 6542TIP3    H241042   1.902   2.517   0.471 -0.1258 -1.1986  0.7869
 6543TIP3   OH241043   1.234   2.337   5.513  0.1824 -0.1504 -0.1043
 6543TIP3    H141044   1.192   2.386   5.584  0.1941  0.6353 -0.6265
 6543TIP3    H241045   1.181   2.357   5.436  0.8849 -0.0188 -0.5589
 6544TIP3   OH241046   1.631   5.618  13.470  0.1186 -0.4201  0.0952
 6544TIP3    H141047   1.703   5.557  13.487  0.2809  0.2841  2.1485
 6544TIP3    H241048   1.604   5.648  13.556 -0.2411  2.0798 -0.8064
 6545TIP3   OH241049   0.945   5.943   5.764  0.0636  0.7236  0.7137
 6545TIP3    H141050   0.972   5.880   5.698  3.5803 -0.7843  3.2380
 6545TIP3    H241051   0.884   6.001   5.719 -0.8793 -2.4842 -2.6583
 6546TIP3   OH241052   5.462   0.986   5.132  0.1968  0.1554  0.3383
 6546TIP3    H141053   5.443   1.009   5.223 -0.2071  2.6076 -0.2717
 6546TIP3    H241054   5.427   0.898   5.121  0.7820 -0.4341  2.6853
 6547TIP3   OH241055   1.005   0.318   6.301 -0.0281 -0.0197  0.6133
 6547TIP3    H141056   0.976   0.227   6.300 -1.2632  0.3203 -1.6511
 6547TIP3    H241057   0.958   0.357   6.375 -0.0997 -1.0250  1.1120
 6548TIP3   OH241058   3.104   2.034  11.612 -0.0102 -0.5054  0.1034
 6548TIP3    H141059   3.083   2.001  11.699  1.1571 -0.7267  0.3126
 6548TIP3    H241060   3.183   1.987  11.587  1.4783  1.7815  0.2286
 6549TIP3   OH241061   5.814   0.879   5.284  0.2939  0.3063 -0.2109
 6549TIP3    H141062   5.760   0.956   5.304 -1.0341 -0.2149 -1.6019
 6549TIP3    H241063   5.804   0.867   5.190 -0.1432 -2.0199  0.0830
 6550TIP3   OH241064   0.948   1.371  14.925 -0.0177 -0.0342 -0.4218
 6550TIP3    H141065   1.000   1.296  14.897 -1.3248 -0.8870 -0.6480
 6550TIP3    H241066   1.004   1.447  14.909  0.6222 -0.7964 -1.9991
 6551TIP3   OH241067   4.965   3.631  15.069  0.1742  0.2984 -0.1550
 6551TIP3    H141068   4.873   3.636  15.093  0.5693 -1.6806  2.1042
 6551TIP3    H241069   5.011   3.667  15.144  1.3016 -0.7746 -0.2998
 6552TIP3   OH241070   1.674   1.508   1.479 -0.2021  0.0982  0.4189
 6552TIP3    H141071   1.746   1.540   1.534  0.3725 -1.3877  0.5558
 6552TIP3    H241072   1.695   1.416   1.462 -1.0370  0.1743 -1.2193
 6553TIP3   OH241073   2.211   1.917  14.334 -0.3473 -0.4370  0.3524
 6553TIP3    H141074   2.149   1.950  14.399 -0.8879  0.3514 -0.5422
 6553TIP3    H241075   2.161   1.913  14.253  0.9355  0.9108 -0.5502
 6554TIP3   OH241076   2.825   5.716  15.089 -0.6986  0.3561  0.2036
 6554TIP3    H141077   2.832   5.636  15.038 -0.0064  1.5581 -1.7059
 6554TIP3    H241078   2.740   5.711  15.132 -0.0096 -2.0969  1.4425
 6555TIP3   OH241079   5.495   6.074  15.265 -0.1749  0.2491  0.2249
 6555TIP3    H141080   5.431   6.061  15.336 -0.6486 -0.1152 -0.2558
 6555TIP3    H241081   5.567   6.016  15.287  0.4731  1.4066  1.3104
 6556TIP3   OH241082   5.039   5.966   0.200 -0.1071  0.8195 -0.4518
 6556TIP3    H141083   5.130   5.979   0.227 -0.3683 -0.7422  1.4530
 6556TIP3    H241084   5.046   5.932   0.111  1.4534 -2.2481  0.6864
 6557TIP3   OH241085   1.570   3.834  12.611  0.2002  0.3725 -0.6149
 6557TIP3    H141086   1.485   3.865  12.579 -0.0343 -1.0609 -1.5053
 6557TIP3    H241087   1.548   3.766  12.674  0.6639 -0.6171 -1.4970
 6558TIP3   OH241088   2.408   5.824  17.312 -0.6316  0.0540  0.0197
 6558TIP3    H141089   2.410   5.840  17.217 -0.0694  1.4373  0.2277
 6558TIP3    H241090   2.501   5.822  17.337 -0.7856  1.0053  0.7191
 6559TIP3   OH241091   4.915   0.123   1.241 -0.2903  0.1636 -0.3048
 6559TIP3    H141092   5.006   0.097   1.228 -0.0795  0.6533  0.1363
 6559TIP3    H241093   4.872   0.044   1.274  0.4648  0.4725  1.5548
 6560TIP3   OH241094   6.451   5.981  10.978 -0.4030  0.3552  0.1959
 6560TIP3    H141095   6.481   6.065  11.012  0.6205 -0.1558  0.6030
 6560TIP3    H241096   6.495   5.973  10.894 -1.2313  0.6365 -0.2734
 6561TIP3   OH241097   6.460   5.708   5.865  0.2401 -0.1058 -0.0997
 6561TIP3    H141098   6.429   5.635   5.811  0.3756 -1.6820  1.8373
 6561TIP3    H241099   6.546   5.681   5.895  0.4207  1.0030  0.4158
 6562TIP3   OH241100   4.061   6.055  14.124  0.1120  0.0962 -0.0986
 6562TIP3    H141101   4.095   6.145  14.125 -2.9199  1.3582 -0.4196
 6562TIP3    H241102   4.050   6.035  14.031  0.7555 -0.6568 -0.0282
 6563TIP3   OH241103   4.273   1.605  15.526  0.0480 -0.1598  0.0356
 6563TIP3    H141104   4.287   1.512  15.545  0.6972 -0.4947 -1.8087
 6563TIP3    H241105   4.333   1.623  15.454 -0.9800  1.3809 -0.4806
 6564TIP3   OH241106   5.473   6.534   2.024  0.3381 -0.2819 -0.0068
 6564TIP3    H141107   5.485   6.599   1.955  1.3105  0.3231  0.7066
 6564TIP3    H241108   5.450   6.453   1.978 -1.7618  0.7506 -0.8633
 6565TIP3   OH241109   2.940   4.416   0.056  0.0045 -0.1886 -0.1717
 6565TIP3    H141110   2.849   4.436   0.034 -0.0831  0.7361  0.9247
 6565TIP3    H241111   2.971   4.363  -0.017 -1.7463 -1.5249  0.0009
 6566TIP3   OH241112   0.889   0.573   5.736 -0.4644 -0.2429 -0.2864
 6566TIP3    H141113   0.839   0.639   5.785 -0.2185  0.9062 -1.5174
 6566TIP3    H241114   0.884   0.494   5.790 -1.2615  0.6167  0.9559
 6567TIP3   OH241115   2.685   3.532   4.055 -0.7159 -0.5260 -0.1409
 6567TIP3    H141116   2.643   3.552   4.139  0.2557 -0.1568  0.2771
 6567TIP3    H241117   2.670   3.610   4.002 -1.0496 -0.6269 -0.1969
 6568TIP3   OH241118   5.797   6.114   1.148  0.0840  0.4101 -0.3649
 6568TIP3    H141119   5.704   6.099   1.165 -0.4278  2.7205 -0.8710
 6568TIP3    H241120   5.805   6.103   1.053  0.0661  1.3933 -0.4866
 6569TIP3   OH241121   4.685   3.376  14.233 -0.0627  0.4056  0.3324
 6569TIP3    H141122   4.749   3.372  14.304  0.4529  0.2979 -0.1311
 6569TIP3    H241123   4.718   3.445  14.175 -0.3702  0.3545  0.0967
 6570TIP3   OH241124   4.534   4.713   0.622 -0.0764 -0.4380  0.4870
 6570TIP3    H141125   4.501   4.732   0.710 -0.7521 -1.2781  0.4217
 6570TIP3    H241126   4.498   4.627   0.601 -0.4177  0.0193 -0.8609
 6571TIP3   OH241127   0.296   1.757  15.822  0.1581  0.2272 -0.4241
 6571TIP3    H141128   0.347   1.790  15.747 -0.2089 -2.3780 -1.9544
 6571TIP3    H241129   0.362   1.727  15.884  0.4677  2.3728  0.3684
 6572TIP3   OH241130   0.483   1.935  16.454 -0.1271  0.7306 -0.2338
 6572TIP3    H141131   0.562   1.988  16.463  1.0082 -0.6996 -1.3348
 6572TIP3    H241132   0.414   1.998  16.431  1.1187  1.7655 -1.3007
 6573TIP3   OH241133   3.696   5.930  16.196  0.0320  0.1375 -0.1656
 6573TIP3    H141134   3.761   5.939  16.265 -1.0206  3.0911  0.5622
 6573TIP3    H241135   3.661   6.018  16.183 -1.8659 -0.8298 -2.4687
 6574TIP3   OH241136   6.666   2.099  13.815 -0.2127  0.1078  0.5030
 6574TIP3    H141137   6.572   2.101  13.832 -0.5473 -0.9753 -1.0271
 6574TIP3    H241138   6.687   2.187  13.784 -1.1376 -0.1844 -1.0570
 6575TIP3   OH241139   3.618   2.710  11.591  0.1837 -0.6719 -0.0609
 6575TIP3    H141140   3.584   2.650  11.525 -0.4859 -2.0281  1.4529
 6575TIP3    H241141   3.645   2.654  11.663  2.9725  0.5905  0.0078
 6576TIP3   OH241142   2.639   6.276  12.894  0.5920  0.3626 -0.2655
 6576TIP3    H141143   2.564   6.267  12.836  0.9963  1.7474 -1.0544
 6576TIP3    H241144   2.716   6.263  12.838  0.9778  1.2860  0.0130
 6577TIP3   OH241145   2.778   2.789  14.126  0.2712 -0.0543 -0.0298
 6577TIP3    H141146   2.811   2.772  14.038 -0.9669 -1.0961 -0.3191
 6577TIP3    H241147   2.748   2.704  14.158 -1.2251  0.6538  0.5735
 6578TIP3   OH241148   5.024   6.661   0.111 -0.2006 -0.4212  0.0972
 6578TIP3    H141149   4.966   6.586   0.102 -1.1307  0.5132 -2.5021
 6578TIP3    H241150   5.090   6.648   0.043  0.7204  0.2122  0.8410
 6579TIP3   OH241151   0.500   1.930  11.754 -0.5498  0.4368  0.1551
 6579TIP3    H141152   0.485   1.924  11.659 -1.8431 -1.1711  0.4036
 6579TIP3    H241153   0.590   1.963  11.762 -0.2851  0.2760 -1.6420
 6580TIP3   OH241154   5.335   4.820   1.286  0.3971 -0.0133 -0.3381
 6580TIP3    H141155   5.390   4.784   1.354  1.3418 -0.0906 -1.1302
 6580TIP3    H241156   5.355   4.914   1.286  0.6761 -0.0711 -0.7548
 6581TIP3   OH241157   1.404   0.558  11.450 -0.1636  0.4712  0.0850
 6581TIP3    H141158   1.477   0.620  11.458  0.5108 -0.1980 -0.6367
 6581TIP3    H241159   1.446   0.472  11.456 -1.0383  0.0855  0.6898
 6582TIP3   OH241160   3.275   2.078  12.636  0.4116  0.3887  0.2058
 6582TIP3    H141161   3.368   2.080  12.661  0.3010 -0.1097  0.6842
 6582TIP3    H241162   3.242   2.164  12.663  1.3937  1.8188 -2.7411
 6583TIP3   OH241163   4.683   1.299   4.342  0.0544 -0.5289 -0.5471
 6583TIP3    H141164   4.655   1.370   4.285  0.1246 -1.2705 -1.5220
 6583TIP3    H241165   4.778   1.293   4.329 -0.1081 -1.5660 -1.3891
 6584TIP3   OH241166   1.856   0.084  14.952 -0.1407 -0.1556 -0.4209
 6584TIP3    H141167   1.867   0.127  15.036 -1.3251 -0.0530 -0.3000
 6584TIP3    H241168   1.781   0.129  14.912 -0.2639 -0.9171 -1.0644
 6585TIP3   OH241169   1.561   5.373  11.718  0.5788 -0.1544  0.4444
 6585TIP3    H141170   1.577   5.406  11.629  0.4506 -3.1307 -0.8043
 6585TIP3    H241171   1.648   5.359  11.755  0.6329  1.1924  0.8899
 6586TIP3   OH241172   2.479   3.299  11.488 -0.0576 -0.0502  0.2705
 6586TIP3    H141173   2.510   3.210  11.473  2.6211  0.6510  1.2045
 6586TIP3    H241174   2.550   3.342  11.535 -1.9168  2.1553  1.2686
 6587TIP3   OH241175   2.545   6.164   1.646  0.1679 -0.1493  0.4152
 6587TIP3    H141176   2.562   6.226   1.717 -2.4156  0.5860  0.4659
 6587TIP3    H241177   2.459   6.128   1.664  0.8323 -2.4379 -0.6202
 6588TIP3   OH241178   1.357   0.171   1.370 -0.2322 -0.4694 -0.2136
 6588TIP3    H141179   1.267   0.199   1.389  0.5292  0.5084  2.3284
 6588TIP3    H241180   1.363   0.174   1.275 -2.1489  1.9383 -0.3558
 6589TIP3   OH241181   4.185   4.092   0.315  0.5386  0.0127  0.1174
 6589TIP3    H141182   4.166   3.999   0.332 -2.0307  0.6334  1.1404
 6589TIP3    H241183   4.158   4.106   0.225  1.1235 -0.2611 -0.1055
 6590TIP3   OH241184   0.592   4.674  11.530  0.5357  0.4484  0.3831
 6590TIP3    H141185   0.684   4.651  11.513  0.2522 -0.2643 -0.2415
 6590TIP3    H241186   0.542   4.599  11.499 -0.4311  1.7896 -1.5419
 6591TIP3   OH241187   4.045   5.826  17.306 -0.1481 -0.3627 -0.5153
 6591TIP3    H141188   4.002   5.741  17.313  1.8362 -1.3177  0.8449
 6591TIP3    H241189   4.109   5.827  17.377 -1.4913  3.1375  0.8335
 6592TIP3   OH241190   0.119   3.119  15.981  0.0884  0.4671  0.0651
 6592TIP3    H141191   0.213   3.115  15.994  0.0120  0.8636  0.7958
 6592TIP3    H241192   0.107   3.108  15.886  0.9172  1.1243 -0.1272
 6593TIP3   OH241193   2.766   2.768   5.463 -0.4327  0.1056  0.3705
 6593TIP3    H141194   2.843   2.794   5.413 -1.2986  1.6661 -0.2236
 6593TIP3    H241195   2.798   2.703   5.525  1.6690  1.8736  1.2321
 6594TIP3   OH241196   4.046   5.918  12.325 -0.3379  1.2756 -0.3105
 6594TIP3    H141197   4.094   5.959  12.253 -0.4130 -0.1522 -1.2067
 6594TIP3    H241198   4.104   5.927  12.401  1.7628 -1.0076 -1.4959
 6595TIP3   OH241199   6.522   6.103   2.901  0.3791  0.7844  0.4129
 6595TIP3    H141200   6.612   6.121   2.874 -0.1324  1.1197 -1.1372
 6595TIP3    H241201   6.513   6.146   2.986  1.9502 -0.0617  1.0444
 6596TIP3   OH241202   0.262   0.280  12.902  0.0950  0.0893 -0.0663
 6596TIP3    H141203   0.239   0.254  12.813 -1.5737  2.7734 -0.5111
 6596TIP3    H241204   0.211   0.359  12.918  1.7784  0.7545  2.6094
 6597TIP3   OH241205   6.026   6.277  12.111 -0.1247  0.1504 -0.1592
 6597TIP3    H141206   6.103   6.298  12.164 -0.1899  1.3049 -0.4925
 6597TIP3    H241207   5.955   6.324  12.153 -1.2199 -2.8588  1.6267
 6598TIP3   OH241208   3.192   0.613  14.980  0.3747  0.2291  0.3076
 6598TIP3    H141209   3.196   0.577  14.891 -0.8508 -2.0065  1.0809
 6598TIP3    H241210   3.269   0.577  15.024  1.7220  2.3927 -0.1304
 6599TIP3   OH241211   2.820   0.665  14.831  0.2822  0.0094  0.2407
 6599TIP3    H141212   2.829   0.755  14.864  0.7224  0.3721 -0.8320
 6599TIP3    H241213   2.729   0.659  14.804  0.2630  0.1426  0.2728
 6600TIP3   OH241214   1.085   6.509   3.270  0.0074 -0.2670  0.3528
 6600TIP3    H141215   1.143   6.434   3.252 -0.0268 -0.0024 -1.0226
 6600TIP3    H241216   1.085   6.517   3.365  0.4002 -1.7110  0.5053
 6601TIP3   OH241217   6.126   0.462  13.477  0.2456  0.7182 -0.6137
 6601TIP3    H141218   6.209   0.508  13.464  0.1901  0.8488 -0.5096
 6601TIP3    H241219   6.072   0.524  13.526 -0.5908  1.3755 -2.3105
 6602TIP3   OH241220   0.674   5.737   4.407  0.0499  0.2773 -0.3755
 6602TIP3    H141221   0.708   5.671   4.468 -0.7303 -0.4250 -0.6798
 6602TIP3    H241222   0.752   5.771   4.363  0.4671 -0.4589 -0.2294
 6603TIP3   OH241223   6.677   2.930  16.144  0.2520  0.4206  0.3311
 6603TIP3    H141224   6.731   2.984  16.202  2.0617 -0.3944 -0.5041
 6603TIP3    H241225   6.692   2.841  16.174  0.3429  0.0881 -0.6813
 6604TIP3   OH241226   0.837   5.373  11.779 -0.6285  0.3724  0.1573
 6604TIP3    H141227   0.858   5.465  11.767  1.6313 -0.2755 -1.7447
 6604TIP3    H241228   0.803   5.345  11.694  1.2255 -1.0715 -0.1840
 6605TIP3   OH241229   2.978   6.671  16.997 -0.1656 -0.1550  0.1060
 6605TIP3    H141230   2.935   6.594  16.960 -0.1538 -1.7200  3.1138
 6605TIP3    H241231   2.919   6.744  16.975 -0.8720 -1.1911 -1.6219
 6606TIP3   OH241232   3.694   0.289  15.533  0.2895 -0.4800 -0.0189
 6606TIP3    H141233   3.672   0.377  15.502  0.1635 -0.0899  1.1306
 6606TIP3    H241234   3.783   0.297  15.567  0.2394 -0.7759  0.1825
 6607TIP3   OH241235   4.262   3.334  11.424  0.2093  0.4426 -0.8565
 6607TIP3    H141236   4.200   3.262  11.416 -1.7290  1.9245 -0.0645
 6607TIP3    H241237   4.229   3.401  11.364  2.0886  0.6400 -1.7493
 6608TIP3   OH241238   0.503   2.121  10.947  0.3212  0.4222 -0.3510
 6608TIP3    H141239   0.447   2.161  10.881 -0.1800 -0.0311 -0.2121
 6608TIP3    H241240   0.491   2.027  10.935  0.4776  0.3309  0.1650
 6609TIP3   OH241241   4.616   1.021  12.492  0.3038 -0.2552 -0.2264
 6609TIP3    H141242   4.638   1.103  12.536  0.3111  0.7914 -2.0792
 6609TIP3    H241243   4.576   1.048  12.409 -1.4392 -2.1307 -0.0913
 6610TIP3   OH241244   2.814   5.633  14.027  0.1136 -0.6812  0.3539
 6610TIP3    H141245   2.802   5.661  13.936  1.7372 -0.5341  0.1512
 6610TIP3    H241246   2.809   5.537  14.023 -0.4987 -0.6489  0.2307
 6611TIP3   OH241247   0.133   5.146   5.063 -0.2782  0.0096  0.1727
 6611TIP3    H141248   0.202   5.175   5.122 -0.4877  0.3310  0.2591
 6611TIP3    H241249   0.070   5.101   5.120 -0.8179  0.9080  0.3047
 6612TIP3   OH241250   5.058   5.217  14.870  0.1384 -0.0775  0.0752
 6612TIP3    H141251   5.082   5.226  14.962  1.8346 -0.6761 -0.2815
 6612TIP3    H241252   5.081   5.302  14.831  0.4003 -0.1763  0.0103
 6613TIP3   OH241253   1.197   3.320   1.279 -0.0781  0.1734  0.0177
 6613TIP3    H141254   1.265   3.253   1.288  0.2261  0.5321  0.4333
 6613TIP3    H241255   1.178   3.323   1.186  0.0161 -0.3842 -0.0216
 6614TIP3   OH241256   6.716   1.861  11.047  0.2084 -0.3321  0.2426
 6614TIP3    H141257   6.633   1.843  11.003  0.4069 -0.3804 -0.1075
 6614TIP3    H241258   6.768   1.782  11.035  0.8604  0.2308 -0.8017
 6615TIP3   OH241259   2.884   5.249  17.264 -0.6312  0.1979 -0.4712
 6615TIP3    H141260   2.897   5.155  17.276  1.5384  0.2514 -1.8957
 6615TIP3    H241261   2.818   5.256  17.195  0.9891 -0.3782 -2.1559
 6616TIP3   OH241262   5.027   4.783  12.035 -0.4862  0.1449  0.0567
 6616TIP3    H141263   5.083   4.709  12.010  0.1920  1.1031 -1.3386
 6616TIP3    H241264   4.938   4.748  12.031 -0.1298 -0.8249  0.2714
 6617TIP3   OH241265   5.338   0.432  14.381  0.1928  0.4882  0.4447
 6617TIP3    H141266   5.244   0.427  14.398  0.4986  0.7443  2.4708
 6617TIP3    H241267   5.350   0.513  14.332 -0.6760  0.1976 -0.2752
 6618TIP3   OH241268   1.192   6.566   4.440 -0.1519 -0.6046  0.0167
 6618TIP3    H141269   1.209   6.617   4.519  0.0870 -0.4772 -0.1143
 6618TIP3    H241270   1.183   6.631   4.371 -1.3915 -0.6552  0.1117
 6619TIP3   OH241271   5.154   2.596  11.744  0.0561  0.1700 -0.0495
 6619TIP3    H141272   5.115   2.585  11.657  1.4124  0.0701 -0.6724
 6619TIP3    H241273   5.234   2.646  11.728  1.4131 -1.5977  0.8433
 6620TIP3   OH241274   6.628   4.044  14.220  0.2838  0.3684 -0.5371
 6620TIP3    H141275   6.610   4.080  14.306 -1.1352 -2.6211  0.5656
 6620TIP3    H241276   6.677   3.964  14.237  0.6336  0.0814 -2.5804
 6621TIP3   OH241277   4.404   6.573   2.929  0.1133 -0.1014 -0.0783
 6621TIP3    H141278   4.333   6.552   2.990  0.2417  0.9583  0.4602
 6621TIP3    H241279   4.470   6.506   2.946 -1.0593 -1.6217 -1.1793
 6622TIP3   OH241280   0.816   5.332   1.556  0.7214  0.4645 -0.4548
 6622TIP3    H141281   0.755   5.323   1.628  0.9600  3.6625  0.3011
 6622TIP3    H241282   0.766   5.377   1.488  1.8523  2.1308 -0.2427
 6623TIP3   OH241283   5.130   4.797  13.201  0.1294  0.4737  0.3939
 6623TIP3    H141284   5.138   4.774  13.294  0.3224  0.2999  0.3334
 6623TIP3    H241285   5.140   4.714  13.155 -0.9194  0.4059  0.2609
 6624TIP3   OH241286   5.826   0.398  16.723 -0.1937 -0.0538  0.4208
 6624TIP3    H141287   5.794   0.456  16.793  0.1296 -0.1242  0.6283
 6624TIP3    H241288   5.772   0.421  16.647 -1.3791 -0.8185  1.0010
 6625TIP3   OH241289   1.298   0.282  14.414 -0.5290  0.0545 -0.2241
 6625TIP3    H141290   1.225   0.222  14.396 -0.4212 -0.9538  2.3418
 6625TIP3    H241291   1.352   0.235  14.477  0.9367  1.8719 -0.0731
 6626TIP3   OH241292   6.253   6.476   1.852  0.0028 -0.1219 -0.1978
 6626TIP3    H141293   6.222   6.407   1.912  1.3401 -0.6267 -0.0508
 6626TIP3    H241294   6.295   6.540   1.909 -2.0299  1.3433 -0.2319
 6627TIP3   OH241295   2.330   4.164  12.677  0.1243  0.4153  0.3782
 6627TIP3    H141296   2.276   4.154  12.755  0.7458 -0.7966  0.6744
 6627TIP3    H241297   2.296   4.243  12.635 -0.9160  0.4926  1.3036
 6628TIP3   OH241298   3.878   6.561  17.132  0.3475 -0.1045 -0.7121
 6628TIP3    H141299   3.955   6.516  17.167 -0.1923  0.1401  0.8395
 6628TIP3    H241300   3.809   6.543  17.195 -0.9468 -0.4825 -2.1690
 6629TIP3   OH241301   6.554   4.113   4.669  0.4536 -0.2730  0.1211
 6629TIP3    H141302   6.644   4.131   4.694  0.1800 -0.9512  1.7423
 6629TIP3    H241303   6.558   4.028   4.625  0.7329  0.2070 -0.8063
 6630TIP3   OH241304   0.167   1.429  17.112 -0.1150  0.2057  0.2935
 6630TIP3    H141305   0.093   1.451  17.168 -1.1501 -2.0164 -0.0913
 6630TIP3    H241306   0.160   1.490  17.038 -1.2934  0.3513  0.5017
 6631TIP3   OH241307   0.219   4.713   1.317  0.2228  0.0817  0.3356
 6631TIP3    H141308   0.312   4.723   1.334  0.5180  0.9227 -1.5052
 6631TIP3    H241309   0.191   4.799   1.287 -1.4248  0.1527  1.8945
 6632TIP3   OH241310   2.874   1.174   0.407 -0.4843 -0.2733  0.4389
 6632TIP3    H141311   2.815   1.215   0.343  0.4324  2.6583  1.3282
 6632TIP3    H241312   2.817   1.147   0.479 -1.0070  0.5776  0.3554
 6633TIP3   OH241313   0.020   0.019   5.017  1.1116  0.3061  0.8171
 6633TIP3    H141314   0.065  -0.054   4.975  2.0470  1.3531 -0.0926
 6633TIP3    H241315  -0.070  -0.011   5.028  0.9179 -0.1983 -1.5680
 6634TIP3   OH241316   3.407   5.670  15.373  0.1078  0.6529  0.0868
 6634TIP3    H141317   3.343   5.614  15.418 -0.6524  2.2364  1.1383
 6634TIP3    H241318   3.377   5.673  15.282  0.2614 -0.7464 -0.0173
 6635TIP3   OH241319   2.562   1.759   2.792 -0.2375  0.3627 -0.0925
 6635TIP3    H141320   2.522   1.737   2.708 -2.5112  2.2106  0.4055
 6635TIP3    H241321   2.488   1.782   2.849  1.3564  0.9778  1.8608
 6636TIP3   OH241322   0.116   3.613   2.823  0.4656  0.5886 -0.3253
 6636TIP3    H141323   0.065   3.694   2.831  1.9050  1.4243  1.0620
 6636TIP3    H241324   0.050   3.544   2.814 -0.9366  1.6515  1.1641
 6637TIP3   OH241325   0.992   3.287  12.007 -1.0589  0.5975  0.1465
 6637TIP3    H141326   1.077   3.243  12.006 -1.0704  0.3999 -2.9580
 6637TIP3    H241327   1.011   3.378  12.029  0.3064  0.9670 -2.2346
 6638TIP3   OH241328   0.736   2.860   5.160  0.2677 -0.3714  0.0042
 6638TIP3    H141329   0.723   2.767   5.176 -0.1401 -0.2809  0.2359
 6638TIP3    H241330   0.704   2.874   5.071 -1.4953 -0.1181  0.6370
 6639TIP3   OH241331   6.405   4.544   3.630 -0.4752 -0.1632  0.3356
 6639TIP3    H141332   6.312   4.565   3.616 -0.4501 -0.2739 -0.0112
 6639TIP3    H241333   6.450   4.585   3.556 -0.5581 -2.3998 -1.0392
 6640TIP3   OH241334   2.922   5.757  11.456 -0.2016 -0.3304  0.3195
 6640TIP3    H141335   2.903   5.783  11.366  3.4265 -0.1829 -0.5858
 6640TIP3    H241336   2.880   5.672  11.467  1.2407 -1.5090 -2.4384
 6641TIP3   OH241337   5.151   1.129  12.495  0.6297  0.7581 -0.3851
 6641TIP3    H141338   5.216   1.190  12.461  0.1625  1.3222 -0.2715
 6641TIP3    H241339   5.101   1.101  12.419  0.9179  0.4197 -0.4540
 6642TIP3   OH241340   4.804   4.518   6.248  0.1126  0.0849  0.3892
 6642TIP3    H141341   4.847   4.528   6.332  1.7894  1.0618 -0.5421
 6642TIP3    H241342   4.845   4.441   6.208 -0.5159 -0.2443  0.3613
 6643TIP3   OH241343   0.702   4.315   4.590 -0.2487  0.0744 -0.4791
 6643TIP3    H141344   0.685   4.391   4.646  3.0189  1.0532 -0.5907
 6643TIP3    H241345   0.661   4.242   4.635  0.0082  1.2649  1.8319
 6644TIP3   OH241346   1.321   6.524   3.906  0.0754  0.1085 -0.2078
 6644TIP3    H141347   1.232   6.557   3.921 -0.3658  0.5352 -3.1347
 6644TIP3    H241348   1.310   6.450   3.846  1.5125 -2.0563  2.0085
 6645TIP3   OH241349   2.958   4.717   5.303 -0.2540  0.0223  0.0941
 6645TIP3    H141350   2.967   4.645   5.241 -1.1559  1.5237 -1.8889
 6645TIP3    H241351   3.033   4.774   5.284 -1.1628  1.0672 -0.4383
 6646TIP3   OH241352   5.933   5.364   4.684 -0.2770  0.0552  0.9588
 6646TIP3    H141353   5.912   5.418   4.760  0.3270  2.5275 -0.5269
 6646TIP3    H241354   6.028   5.372   4.675 -0.2273 -0.9792  0.4659
 6647TIP3   OH241355   6.528   1.345   4.562  0.4884 -0.0606 -0.5091
 6647TIP3    H141356   6.460   1.410   4.549 -0.3252 -0.7383  0.2490
 6647TIP3    H241357   6.483   1.270   4.601  1.9952  0.3003  2.2500
 6648TIP3   OH241358   2.432   0.268   4.789  0.0643  0.2203  0.3090
 6648TIP3    H141359   2.512   0.239   4.834 -0.5274  0.0046  1.2499
 6648TIP3    H241360   2.464   0.308   4.708  0.9724 -2.4333 -0.7706
 6649TIP3   OH241361   2.549   2.259  11.129  0.8043  0.4117 -0.9560
 6649TIP3    H141362   2.551   2.172  11.089  1.9425  0.5256 -1.1746
 6649TIP3    H241363   2.482   2.306  11.080 -2.1628 -1.2374  1.1581
 6650TIP3   OH241364   3.692   2.012   2.682  0.1314  0.0212 -0.4283
 6650TIP3    H141365   3.709   2.073   2.755 -1.1522  0.4644 -0.4866
 6650TIP3    H241366   3.669   1.930   2.725  0.9231 -0.1739 -0.3519
 6651TIP3   OH241367   5.426   1.567  12.598  0.3953 -0.1628  0.5794
 6651TIP3    H141368   5.401   1.635  12.536  2.0600  0.1028  0.1442
 6651TIP3    H241369   5.343   1.528  12.626 -0.4139 -1.3353 -2.9462
 6652TIP3   OH241370   5.102   3.953   1.017  0.6218 -0.5349  0.5169
 6652TIP3    H141371   5.130   3.886   1.080  1.4468 -0.6218  0.0689
 6652TIP3    H241372   5.008   3.963   1.033  0.6978 -1.0205  1.3218
 6653TIP3   OH241373   0.926   1.718  15.472 -0.3561 -0.0249  0.0366
 6653TIP3    H141374   0.865   1.648  15.497 -0.8434  0.5454  0.4876
 6653TIP3    H241375   0.971   1.684  15.394 -1.0151 -0.5973 -0.1068
 6654TIP3   OH241376   1.716   5.968   3.299  0.2111  0.0605  0.0486
 6654TIP3    H141377   1.807   5.939   3.294  0.1715 -0.2680  0.9297
 6654TIP3    H241378   1.666   5.889   3.320 -0.0702  0.4945  1.1335
 6655TIP3   OH241379   1.241   2.272   1.893 -0.0099  0.2694  0.3496
 6655TIP3    H141380   1.315   2.234   1.846 -0.4593  1.4881 -1.4548
 6655TIP3    H241381   1.182   2.199   1.911  1.1251 -0.5429  0.9004
 6656TIP3   OH241382   4.638   1.542  13.842 -0.1505  0.3414 -0.2567
 6656TIP3    H141383   4.550   1.507  13.847 -0.3000  0.8042  0.4092
 6656TIP3    H241384   4.637   1.597  13.763 -0.9401  1.6393  0.6244
 6657TIP3   OH241385   1.102   2.568   1.314 -0.5217 -0.1561 -0.0522
 6657TIP3    H141386   1.187   2.571   1.359 -0.4199  2.3847 -0.3101
 6657TIP3    H241387   1.038   2.571   1.385 -0.4089 -0.5029  0.0708
 6658TIP3   OH241388   2.323   5.683   1.716 -0.2610 -0.7057  0.2780
 6658TIP3    H141389   2.378   5.647   1.647 -0.4989 -1.9302  0.7160
 6658TIP3    H241390   2.238   5.643   1.703 -0.9748  0.8469 -0.1250
 6659TIP3   OH241391   2.128   0.585   6.079 -0.6461 -0.4519 -0.5746
 6659TIP3    H141392   2.076   0.663   6.099  2.0995  0.9710  1.6167
 6659TIP3    H241393   2.188   0.614   6.009  1.0953 -0.1771  0.9675
 6660TIP3   OH241394   6.467   5.428   4.775  0.2373 -0.1359 -0.3717
 6660TIP3    H141395   6.495   5.355   4.830  2.1164  2.3829  2.3380
 6660TIP3    H241396   6.405   5.477   4.829 -0.3108  0.7828 -1.7709
 6661TIP3   OH241397   2.748   4.776  11.458 -0.2221  0.5525  0.2596
 6661TIP3    H141398   2.658   4.770  11.490 -0.6072  0.7475 -0.7285
 6661TIP3    H241399   2.747   4.854  11.402  0.8790  1.2737  1.2071
 6662TIP3   OH241400   2.066   3.864   2.828 -0.5706  0.4093 -0.3377
 6662TIP3    H141401   2.007   3.904   2.892 -1.8649 -0.9788 -0.5897
 6662TIP3    H241402   2.130   3.815   2.881 -0.2648  1.0835 -0.0792
 6663TIP3   OH241403   0.271   2.797   3.061  0.5334 -0.0855 -0.1051
 6663TIP3    H141404   0.345   2.846   3.096  1.3818 -1.2208 -0.2282
 6663TIP3    H241405   0.299   2.771   2.973 -0.4129  0.2968 -0.5347
 6664TIP3   OH241406   2.904   5.028  16.463  0.2104 -0.0072  0.6508
 6664TIP3    H141407   2.943   4.957  16.514 -1.0710  0.3453  2.1881
 6664TIP3    H241408   2.952   5.027  16.380  3.2661  0.1965  2.2558
 6665TIP3   OH241409   2.042   5.183  15.726  0.3665  0.1159  0.5356
 6665TIP3    H141410   2.099   5.232  15.784 -0.7438  2.6399 -0.3520
 6665TIP3    H241411   1.961   5.234  15.723 -0.9601 -1.8868 -0.3650
 6666TIP3   OH241412   3.213   4.747  12.266 -0.0205  0.1236 -0.1628
 6666TIP3    H141413   3.257   4.829  12.247 -0.1076  0.1518 -0.2439
 6666TIP3    H241414   3.271   4.701  12.326 -0.2319  0.4870  0.3248
 6667TIP3   OH241415   0.756   3.288  16.777  0.1874 -0.3263 -0.6152
 6667TIP3    H141416   0.733   3.380  16.790  0.6899 -0.3264  0.3673
 6667TIP3    H241417   0.672   3.242  16.772 -0.0553 -0.0068  0.3807
 6668TIP3   OH241418   5.621   5.316  11.746  0.0821 -0.0580 -0.6257
 6668TIP3    H141419   5.663   5.401  11.761 -1.2413  0.8564 -1.8278
 6668TIP3    H241420   5.563   5.304  11.821  2.8229 -1.6567  1.4105
 6669TIP3   OH241421   3.749   0.285   2.418  0.1307  0.2744 -0.0950
 6669TIP3    H141422   3.822   0.225   2.398  0.7624  0.7303  0.7987
 6669TIP3    H241423   3.785   0.346   2.482 -0.5338  1.5774 -0.9234
 6670TIP3   OH241424   6.401   3.477  14.893  0.2249 -0.5023 -0.3458
 6670TIP3    H141425   6.429   3.460  14.804  1.0854 -3.2984  0.3496
 6670TIP3    H241426   6.338   3.549  14.886 -0.6887 -1.4836 -3.3362
 6671TIP3   OH241427   0.826   2.150  12.718 -0.0502 -0.3962  0.3041
 6671TIP3    H141428   0.886   2.223  12.700 -0.4904  0.0731  0.6941
 6671TIP3    H241429   0.768   2.149  12.642  0.0005 -0.3790  0.2646
 6672TIP3   OH241430   1.148   3.714   5.590 -0.2399 -0.0781 -0.3973
 6672TIP3    H141431   1.114   3.781   5.650 -0.8644  1.3301 -2.2547
 6672TIP3    H241432   1.242   3.732   5.586 -0.4659  1.0270 -1.2394
 6673TIP3   OH241433   1.214   2.682  13.447 -0.4056  0.1307  0.2536
 6673TIP3    H141434   1.276   2.644  13.384 -0.2804 -0.0657  0.4930
 6673TIP3    H241435   1.259   2.757  13.484 -0.4876  0.2593  0.0959
 6674TIP3   OH241436   5.484   1.085   2.024  0.1722  0.3910 -0.3768
 6674TIP3    H141437   5.406   1.061   1.973  0.4707  1.1769 -1.2403
 6674TIP3    H241438   5.545   1.012   2.010  0.1109  0.4262 -0.8468
 6675TIP3   OH241439   2.142   0.715  16.689  0.0542 -0.0458 -0.0343
 6675TIP3    H141440   2.111   0.629  16.661  0.6987  0.5526 -2.8650
 6675TIP3    H241441   2.212   0.696  16.753  0.6046 -1.6618 -1.0692
 6676TIP3   OH241442   4.317   1.275   4.744 -0.2594 -0.5052  0.3865
 6676TIP3    H141443   4.326   1.369   4.732  1.1814 -0.5321  1.0868
 6676TIP3    H241444   4.226   1.257   4.722 -0.0408  0.7178 -1.8367
 6677TIP3   OH241445   0.580   6.498  17.301 -0.1108 -0.0115 -0.0359
 6677TIP3    H141446   0.619   6.444  17.232  1.1808 -0.2386  0.8466
 6677TIP3    H241447   0.541   6.572  17.254  2.2776  0.7765 -0.9338
 6678TIP3   OH241448   3.270   2.323  16.538 -0.0572  0.0044  0.1320
 6678TIP3    H141449   3.295   2.298  16.627 -2.0372 -0.5976  0.5698
 6678TIP3    H241450   3.232   2.244  16.500 -2.8552  1.2061  0.1743
 6679TIP3   OH241451   0.773   2.873   2.687  0.1868 -0.9454  0.3096
 6679TIP3    H141452   0.694   2.886   2.740  0.8028 -0.0911  1.0579
 6679TIP3    H241453   0.740   2.858   2.599 -0.8463 -1.8340  0.8274
 6680TIP3   OH241454   6.547   0.972  12.549  0.6162 -0.1255  0.1296
 6680TIP3    H141455   6.637   1.004  12.543  1.0844 -1.0825  1.4527
 6680TIP3    H241456   6.550   0.905  12.617 -1.2702  0.3962  0.7973
 6681TIP3   OH241457   0.653   5.350   1.088  0.0006  0.5382  0.0175
 6681TIP3    H141458   0.654   5.406   1.010  0.3468  2.2589  1.2143
 6681TIP3    H241459   0.743   5.320   1.096  0.3945  1.8488  0.7555
 6682TIP3   OH241460   2.705   2.953   2.062  0.6751 -0.1989 -0.6272
 6682TIP3    H141461   2.643   3.018   2.097  1.5779 -0.0024  0.6579
 6682TIP3    H241462   2.674   2.869   2.096  1.8396  0.0459  1.1555
 6683TIP3   OH241463   3.613   5.896   0.760 -0.1570 -1.2614  0.0785
 6683TIP3    H141464   3.597   5.990   0.757 -1.0191 -1.3823  0.7051
 6683TIP3    H241465   3.686   5.882   0.699  1.0347  0.0195  1.1724
 6684TIP3   OH241466   6.689   2.003   2.424  0.2796  0.7329  0.1982
 6684TIP3    H141467   6.774   2.012   2.381  0.3894 -0.2486  0.1795
 6684TIP3    H241468   6.707   1.951   2.503 -0.7003 -2.1601 -1.3058
 6685TIP3   OH241469   3.589   2.671   1.037  0.6108 -0.5005  0.0656
 6685TIP3    H141470   3.532   2.649   1.111  0.0258  0.9755  0.0922
 6685TIP3    H241471   3.545   2.633   0.961  0.3837 -0.6521  0.2686
 6686TIP3   OH241472   6.146   2.933  12.336 -0.1458  0.7415 -0.1214
 6686TIP3    H141473   6.168   3.015  12.381 -0.9915  1.7654 -1.4964
 6686TIP3    H241474   6.051   2.928  12.341 -0.1688  0.3465 -0.8825
 6687TIP3   OH241475   4.094   4.827  10.634 -0.0010 -0.0264  0.2075
 6687TIP3    H141476   4.018   4.822  10.693  0.4587 -1.5117  0.7143
 6687TIP3    H241477   4.089   4.915  10.597 -0.8345  0.6261  1.7609
 6688TIP3   OH241478   0.496   1.949  10.132 -0.3081  0.4228  0.2750
 6688TIP3    H141479   0.431   1.963  10.063 -0.5634 -0.1328  0.3903
 6688TIP3    H241480   0.548   2.029  10.133  1.0759 -0.3526 -1.9998
 6689TIP3   OH241481   6.424   1.103   4.643  0.0628 -0.2179  0.6732
 6689TIP3    H141482   6.337   1.069   4.622  0.5170 -0.8763 -0.2257
 6689TIP3    H241483   6.483   1.032   4.620  0.9239  0.6270  0.2128
 6690TIP3   OH241484   4.527   3.653   5.409 -0.3821  0.2137 -0.5924
 6690TIP3    H141485   4.527   3.636   5.315  1.1685 -0.5742 -0.4818
 6690TIP3    H241486   4.510   3.568   5.450  0.1121  0.3277 -0.1359
 6691TIP3   OH241487   2.561   4.691   0.487  0.1253 -0.5714 -0.0132
 6691TIP3    H141488   2.623   4.719   0.553 -1.1843 -0.5000  1.2343
 6691TIP3    H241489   2.536   4.602   0.513 -2.9293  0.6083  1.6616
 6692TIP3   OH241490   3.206   3.743  10.415  0.5018  0.6421 -0.1425
 6692TIP3    H141491   3.182   3.675  10.352 -0.1282 -0.3958  1.1744
 6692TIP3    H241492   3.218   3.821  10.362  1.2785 -0.4899 -1.7145
 6693TIP3   OH241493   6.158   0.732  13.976  0.2189 -0.4289 -0.1255
 6693TIP3    H141494   6.194   0.794  13.913 -1.2283 -1.2284 -1.8125
 6693TIP3    H241495   6.172   0.774  14.061  2.2588  0.6629 -0.9342
 6694TIP3   OH241496   6.227   3.547  12.771  1.2759  0.2732 -0.3682
 6694TIP3    H141497   6.270   3.538  12.687  0.7884 -0.4137 -0.5603
 6694TIP3    H241498   6.201   3.639  12.776  0.7520  0.1885 -1.2553
 6695TIP3   OH241499   6.417   2.222  11.786  0.1126 -0.5223  0.4632
 6695TIP3    H141500   6.376   2.306  11.810 -1.3224 -0.6170 -1.4498
 6695TIP3    H241501   6.450   2.236  11.697  2.8417 -1.0066  1.3090
 6696TIP3   OH241502   1.936   4.029  16.279  0.2412  0.0408 -0.2316
 6696TIP3    H141503   1.960   4.071  16.362  0.9929  0.7228 -0.7749
 6696TIP3    H241504   1.842   4.015  16.286 -0.1902  2.4213 -0.2410
 6697TIP3   OH241505   1.867   5.078  16.753  0.1224 -0.0655 -0.0535
 6697TIP3    H141506   1.908   5.063  16.667  2.6751 -1.3258  1.2566
 6697TIP3    H241507   1.935   5.054  16.816 -1.4130  1.5089  2.3581
 6698TIP3   OH241508   4.214   5.350  10.487  0.4287  0.5748  0.0050
 6698TIP3    H141509   4.222   5.442  10.514 -1.5750  1.4289 -1.9591
 6698TIP3    H241510   4.232   5.352  10.393 -1.9049 -0.6041 -0.5335
 6699TIP3   OH241511   0.538   0.261   6.405  0.1124 -0.2327 -0.4923
 6699TIP3    H141512   0.460   0.256   6.350 -0.3936 -0.1652  0.2078
 6699TIP3    H241513   0.576   0.347   6.385 -0.5394  0.1491 -0.1190
 6700TIP3   OH241514   5.143   5.764  13.104  0.0000 -0.4746 -0.0004
 6700TIP3    H141515   5.236   5.752  13.121 -0.0726 -0.4033  0.4518
 6700TIP3    H241516   5.128   5.719  13.021  0.1169 -1.8494  0.7101
 6701TIP3   OH241517   0.001   2.338  14.733 -0.1384  0.0997 -0.4546
 6701TIP3    H141518  -0.055   2.410  14.762  0.9260  1.1371 -0.8945
 6701TIP3    H241519  -0.006   2.340  14.637  2.8944  2.2251 -0.7700
 6702TIP3   OH241520   4.904   3.626   3.068  0.4230  0.2236 -0.2096
 6702TIP3    H141521   4.841   3.684   3.111 -1.0080  0.1966 -2.1428
 6702TIP3    H241522   4.972   3.685   3.034  0.1974  0.5251 -0.1464
 6703TIP3   OH241523   0.822   1.880   5.039 -0.0151 -0.6144  0.6220
 6703TIP3    H141524   0.769   1.827   4.980 -0.9555  0.7011  0.2507
 6703TIP3    H241525   0.830   1.826   5.118  0.1844 -1.8574 -0.2156
 6704TIP3   OH241526   4.825   1.050  15.674  0.0610 -0.1048  0.1852
 6704TIP3    H141527   4.752   0.992  15.696  0.4730 -0.0393  1.8752
 6704TIP3    H241528   4.899   0.991  15.660 -0.0611 -0.1095 -0.4668
 6705TIP3   OH241529   4.651   4.478  11.350  0.8742 -0.4850 -0.2427
 6705TIP3    H141530   4.719   4.480  11.283  0.5093  1.1417 -0.5929
 6705TIP3    H241531   4.698   4.490  11.433  1.0707  0.2355 -0.4509
 6706TIP3   OH241532   5.793   1.269   6.101 -0.1342 -0.2385  0.5424
 6706TIP3    H141533   5.764   1.262   6.192  0.9326 -0.2286  0.8974
 6706TIP3    H241534   5.782   1.362   6.080 -0.4957 -0.2623  0.6177
 6707TIP3   OH241535   3.436   6.537   3.311  0.2393 -0.5223 -0.7609
 6707TIP3    H141536   3.419   6.580   3.228 -0.8480  2.5948  0.9123
 6707TIP3    H241537   3.528   6.512   3.308  1.0698  2.3496 -1.7731
 6708TIP3   OH241538   4.662   0.146  17.366  0.2026 -0.0720 -0.1123
 6708TIP3    H141539   4.734   0.092  17.335 -0.8437 -2.5890  1.5689
 6708TIP3    H241540   4.704   0.212  17.422  1.3277 -0.4593 -0.4785
 6709TIP3   OH241541   6.347   2.512   3.935 -0.4076  0.0166 -0.3763
 6709TIP3    H141542   6.427   2.509   3.988 -0.9859  1.4559  0.6393
 6709TIP3    H241543   6.334   2.421   3.907  1.8154 -0.1839 -0.9557
 6710TIP3   OH241544   4.596   4.266  15.964 -1.1200  0.2670 -0.0360
 6710TIP3    H141545   4.591   4.361  15.971 -0.1197  0.5575 -2.4709
 6710TIP3    H241546   4.687   4.245  15.984 -1.1819 -0.1218 -0.1651
 6711TIP3   OH241547   5.207   3.189   2.601 -0.0324  0.4740  0.2061
 6711TIP3    H141548   5.237   3.120   2.661 -0.5703  0.3906  0.3817
 6711TIP3    H241549   5.269   3.261   2.616 -0.0790  0.4054  0.7680
 6712TIP3   OH241550   1.631   3.319  17.012  0.9245  0.8717 -0.6455
 6712TIP3    H141551   1.711   3.314  17.065  1.4630  1.7345 -1.3439
 6712TIP3    H241552   1.571   3.373  17.063 -0.0869 -1.5769  0.9158
 6713TIP3   OH241553   1.431   3.132   1.260 -0.3122 -0.2333  0.4466
 6713TIP3    H141554   1.516   3.107   1.223  0.2329  0.4097  1.2335
 6713TIP3    H241555   1.393   3.050   1.290  0.9000 -0.3145  1.8663
 6714TIP3   OH241556   0.866   0.284  15.498 -0.0874 -0.6485 -0.2815
 6714TIP3    H141557   0.881   0.227  15.422 -1.2335 -2.2845  0.6772
 6714TIP3    H241558   0.952   0.294  15.538  0.7312  0.9876 -2.2322
 6715TIP3   OH241559   0.970   4.365   3.928 -0.2607  0.0681 -0.1173
 6715TIP3    H141560   1.063   4.343   3.923 -0.2185 -0.1194  1.2817
 6715TIP3    H241561   0.966   4.455   3.894  0.5781  0.4358  0.7195
 6716TIP3   OH241562   5.147   0.029   2.976  0.3232  0.1614  0.3397
 6716TIP3    H141563   5.236   0.041   3.009  1.0316 -0.4353 -1.2854
 6716TIP3    H241564   5.099  -0.007   3.051  1.2463  1.1683  1.4504
 6717TIP3   OH241565   0.371   1.361  12.591 -0.5438 -0.1634 -0.0263
 6717TIP3    H141566   0.428   1.297  12.548 -1.2551 -0.6741 -0.2293
 6717TIP3    H241567   0.405   1.367  12.681 -0.7037 -1.1278  0.1102
 6718TIP3   OH241568   4.153   0.293  11.838  0.0984  0.4473 -0.2653
 6718TIP3    H141569   4.095   0.233  11.790 -0.7251 -0.5803  1.8523
 6718TIP3    H241570   4.238   0.283  11.795 -0.4294 -0.9063 -1.0932
 6719TIP3   OH241571   2.746   3.147   1.022 -0.0908  0.6451  0.4812
 6719TIP3    H141572   2.762   3.059   1.055 -1.0192  0.4540  0.4288
 6719TIP3    H241573   2.755   3.204   1.099  2.9497  0.8462  0.1242
 6720TIP3   OH241574   2.937   1.640   0.051  0.1909  0.4822 -0.6941
 6720TIP3    H141575   2.927   1.728   0.089  0.3233 -0.9298  3.1016
 6720TIP3    H241576   2.848   1.612   0.032  0.1372  1.3524 -1.8016
 6721TIP3   OH241577   4.833   0.171  12.823 -0.1067 -0.6355 -0.0159
 6721TIP3    H141578   4.895   0.220  12.877 -0.2670 -1.1481  0.6490
 6721TIP3    H241579   4.799   0.236  12.761  0.6374 -0.2115  0.0069
 6722TIP3   OH241580   5.411   4.362   3.896  0.4643  0.5611  0.3929
 6722TIP3    H141581   5.323   4.389   3.925 -0.3911 -1.0677 -0.5232
 6722TIP3    H241582   5.471   4.409   3.954 -0.8973  3.5072 -0.3561
 6723TIP3   OH241583   1.382   5.862   3.492  0.2860  0.0073 -0.2035
 6723TIP3    H141584   1.465   5.816   3.480  1.3384  1.2647  1.7836
 6723TIP3    H241585   1.393   5.944   3.444 -0.2335 -0.2396 -0.7719
 6724TIP3   OH241586   3.468   6.720   2.168  0.1285  0.0140  0.2144
 6724TIP3    H141587   3.559   6.743   2.148 -0.1797 -0.1492 -1.4382
 6724TIP3    H241588   3.473   6.634   2.210  0.6521 -0.6297 -1.1150
 6725TIP3   OH241589   4.986   4.508   4.809  0.1502 -0.7521 -0.8854
 6725TIP3    H141590   5.041   4.458   4.749 -1.6465 -0.7585 -2.6126
 6725TIP3    H241591   4.943   4.442   4.863  1.5082 -0.7595  0.2628
 6726TIP3   OH241592   3.051   3.257   1.042 -0.0599  0.3465  0.3411
 6726TIP3    H141593   3.087   3.276   0.955 -0.6094 -0.9268 -0.1893
 6726TIP3    H241594   2.964   3.223   1.025 -0.3622  0.5379  1.4380
 6727TIP3   OH241595   2.792   3.020   5.229 -0.1553  0.1040  0.4248
 6727TIP3    H141596   2.828   2.950   5.176  0.0819 -0.7321  1.6458
 6727TIP3    H241597   2.698   3.018   5.211 -0.4404 -1.7897  1.8023
 6728TIP3   OH241598   6.256   3.991   4.946 -0.1608  0.4971  0.1062
 6728TIP3    H141599   6.335   4.009   4.997 -1.0887 -0.5193  2.0049
 6728TIP3    H241600   6.220   3.911   4.985  0.1177 -1.5629 -3.4670
 6729TIP3   OH241601   6.298   3.516  13.234 -0.4064 -0.6266  0.3406
 6729TIP3    H141602   6.373   3.476  13.189 -0.3892 -1.3526  0.9998
 6729TIP3    H241603   6.229   3.517  13.167  0.0673 -0.3270 -0.1485
 6730TIP3   OH241604   0.287   0.372   0.004  0.1609 -0.2761  0.1984
 6730TIP3    H141605   0.302   0.289  -0.041  0.3690  0.5743 -1.3296
 6730TIP3    H241606   0.263   0.434  -0.065  0.5019  1.0681  1.2462
 6731TIP3   OH241607   4.705   4.860  13.512  0.5716  0.0116  0.3333
 6731TIP3    H141608   4.703   4.770  13.480 -0.0830 -0.0892  0.6502
 6731TIP3    H241609   4.692   4.853  13.606 -0.6088  0.4976  0.2228
 6732TIP3   OH241610   2.106   6.123  11.319 -0.2227 -0.1142 -0.5402
 6732TIP3    H141611   2.117   6.044  11.372 -4.8002 -0.5089  0.2164
 6732TIP3    H241612   2.183   6.176  11.339  1.9345 -3.3864  0.6453
 6733TIP3   OH241613   2.036   2.520   4.604 -0.4131  0.3062  0.0420
 6733TIP3    H141614   1.941   2.519   4.615 -0.8563 -0.0427 -2.9009
 6733TIP3    H241615   2.066   2.441   4.650 -1.6166  0.1316  0.5624
 6734TIP3   OH241616   4.254   5.784   3.587  0.2875  0.2988 -0.8055
 6734TIP3    H141617   4.230   5.692   3.594  0.7279  0.2312 -0.0630
 6734TIP3    H241618   4.203   5.817   3.513 -0.6989 -0.2797 -0.4056
 6735TIP3   OH241619   1.492   3.125  13.826 -0.4599 -0.3212 -0.6550
 6735TIP3    H141620   1.400   3.110  13.805 -0.8990  0.5671  0.5172
 6735TIP3    H241621   1.533   3.143  13.742 -1.2251 -1.2946 -1.2653
 6736TIP3   OH241622   0.313   1.848  17.070 -0.4670  0.3488  0.1093
 6736TIP3    H141623   0.398   1.828  17.033 -0.7003 -0.4842 -0.0105
 6736TIP3    H241624   0.329   1.854  17.165 -0.1917  0.6915  0.0436
 6737TIP3   OH241625   4.679   3.215  13.051  0.1772  0.2569  0.1382
 6737TIP3    H141626   4.704   3.300  13.016 -0.8429  0.3010 -0.5125
 6737TIP3    H241627   4.590   3.227  13.083 -0.7971 -1.0559 -1.8658
 6738TIP3   OH241628   1.562   5.642   4.399 -0.1776  0.5902 -0.3381
 6738TIP3    H141629   1.572   5.553   4.366  1.3188  0.8821 -0.7275
 6738TIP3    H241630   1.624   5.648   4.472 -0.1525  1.3575 -0.4120
 6739TIP3   OH241631   3.059   6.398   4.083 -0.3361 -0.3154  0.1623
 6739TIP3    H141632   3.018   6.472   4.039  1.5186  0.6975  0.0314
 6739TIP3    H241633   3.088   6.341   4.012  2.0245  0.9764 -0.0286
 6740TIP3   OH241634   0.226   0.318   2.197  0.3953  0.2543 -0.5968
 6740TIP3    H141635   0.196   0.372   2.270  0.9630  0.6662 -0.6596
 6740TIP3    H241636   0.153   0.258   2.179  0.7974 -0.8856  1.2856
 6741TIP3   OH241637   1.913   2.761  11.894 -0.0574  0.0895  0.1419
 6741TIP3    H141638   1.933   2.827  11.961 -0.6724  0.7699 -0.3336
 6741TIP3    H241639   1.998   2.740  11.856  0.4513 -1.0528  1.7962
 6742TIP3   OH241640   1.396   0.942   3.989 -0.1684 -0.4758  0.0578
 6742TIP3    H141641   1.470   0.961   4.047 -0.1233  0.0364 -0.1598
 6742TIP3    H241642   1.332   0.899   4.045  0.8249 -2.1756 -0.0377
 6743TIP3   OH241643   6.473   0.626   1.218 -0.0099 -0.3113 -0.5862
 6743TIP3    H141644   6.526   0.631   1.298 -1.8393  0.3429  0.6739
 6743TIP3    H241645   6.504   0.699   1.164 -2.3165  2.9133  2.0010
 6744TIP3   OH241646   0.199   4.122   3.704  1.0324  0.2227  0.1862
 6744TIP3    H141647   0.247   4.126   3.787 -0.2720  2.3514  0.9454
 6744TIP3    H241648   0.107   4.119   3.730  0.6157 -2.8624 -1.2351
 6745TIP3   OH241649   0.725   5.107  12.729  0.2703  0.0637  0.5085
 6745TIP3    H141650   0.812   5.089  12.693  0.2776 -0.4604  0.7690
 6745TIP3    H241651   0.743   5.142  12.817  0.2815  2.1155 -0.2569
 6746TIP3   OH241652   5.920   6.335   1.515 -0.4938 -0.2573 -0.2695
 6746TIP3    H141653   5.958   6.417   1.547 -2.5843  0.3502  0.8228
 6746TIP3    H241654   5.996   6.282   1.491  0.9774  1.4331  0.3711
 6747TIP3   OH241655   0.443   4.394   4.461  0.3652  0.0889 -0.1377
 6747TIP3    H141656   0.425   4.476   4.416 -1.7398 -0.6322 -0.7106
 6747TIP3    H241657   0.539   4.393   4.470  0.4895  2.3612 -0.5042
 6748TIP3   OH241658   1.123   3.393   4.984  0.0168  0.5080  0.5961
 6748TIP3    H141659   1.046   3.445   4.962 -0.4212 -0.3920 -0.0555
 6748TIP3    H241660   1.116   3.377   5.078 -1.1582 -0.4206  0.3731
 6749TIP3   OH241661   1.887   4.584  16.649 -0.0411  0.1353  0.3568
 6749TIP3    H141662   1.852   4.667  16.616 -1.8378 -0.8447 -0.3845
 6749TIP3    H241663   1.981   4.589  16.633 -0.2518  1.6184 -0.6068
 6750TIP3   OH241664   3.036   0.922  14.097 -0.3903  0.1280  0.3854
 6750TIP3    H141665   3.049   0.856  14.165  0.5083  0.4964  0.5888
 6750TIP3    H241666   3.014   1.002  14.145  2.1604  0.8926  0.4404
 6751TIP3   OH241667   6.651   4.040  14.852  0.3987  0.1746  0.1824
 6751TIP3    H141668   6.682   3.967  14.798  0.2442 -0.3612  0.8081
 6751TIP3    H241669   6.565   4.061  14.817 -0.1055 -0.7984  0.8186
 6752TIP3   OH241670   2.153   1.016  14.586  0.2088  0.4440  0.5669
 6752TIP3    H141671   2.201   0.938  14.614  0.6190 -0.3316 -2.0761
 6752TIP3    H241672   2.077   1.019  14.644  0.1087 -2.0072  0.6814
 6753TIP3   OH241673   5.550   3.184   2.456 -0.4638 -0.6360  0.0050
 6753TIP3    H141674   5.571   3.090   2.451  1.8227 -0.1840 -0.1908
 6753TIP3    H241675   5.514   3.195   2.544  0.0844 -1.5760  0.3676
 6754TIP3   OH241676   2.671   0.298   2.951  0.1291  0.0169  0.6297
 6754TIP3    H141677   2.637   0.276   2.864  1.2766  0.2730  0.0935
 6754TIP3    H241678   2.719   0.380   2.938  0.5978 -0.1203  1.4272
 6755TIP3   OH241679   0.304   1.974  10.600  0.6148  0.0729  0.4740
 6755TIP3    H141680   0.300   1.895  10.654 -1.1448  0.3732  0.8481
 6755TIP3    H241681   0.215   1.983  10.564  1.2052  1.0096 -0.8385
 6756TIP3   OH241682   1.302   0.778   2.651  0.1906  0.2139 -0.1051
 6756TIP3    H141683   1.304   0.725   2.571  1.4742 -0.3467  0.2681
 6756TIP3    H241684   1.351   0.726   2.714 -2.7161 -0.4717  1.7798
 6757TIP3   OH241685   6.515   3.154  16.162 -0.0300  0.3589  0.2167
 6757TIP3    H141686   6.545   3.063  16.152  0.1197  0.5027 -0.6458
 6757TIP3    H241687   6.460   3.151  16.240 -1.7076 -0.9153 -0.9368
 6758TIP3   OH241688   0.091   0.118   4.700  0.2857  0.1170  0.3830
 6758TIP3    H141689   0.127   0.035   4.667 -1.4982 -0.8862  0.8101
 6758TIP3    H241690   0.003   0.122   4.661 -0.7113  0.4114  2.5327
 6759TIP3   OH241691   2.963   5.670  13.035  0.4386  0.0017 -0.2919
 6759TIP3    H141692   2.924   5.583  13.029  2.2539 -0.8043 -1.3184
 6759TIP3    H241693   2.951   5.695  13.127 -0.5667 -1.0905 -0.0933
 6760TIP3   OH241694   1.625   6.089  16.486  0.6202 -0.0263  0.7256
 6760TIP3    H141695   1.617   6.169  16.537 -1.3500 -0.9250  1.9624
 6760TIP3    H241696   1.565   6.102  16.412  0.3041 -0.3342  0.9246
 6761TIP3   OH241697   2.927   0.397  14.234 -0.5600  0.6820 -0.1924
 6761TIP3    H141698   2.932   0.302  14.231  1.8454  0.7536 -0.5089
 6761TIP3    H241699   2.952   0.420  14.323 -1.6445  1.0299  0.0389
 6762TIP3   OH241700   5.775   3.950  14.582  0.0485  0.0303 -0.4646
 6762TIP3    H141701   5.732   4.027  14.619  0.2221 -0.2407  0.3206
 6762TIP3    H241702   5.809   3.902  14.658  1.0533 -0.1664 -1.0155
 6763TIP3   OH241703   4.094   0.909   0.474 -0.4602 -0.5115 -0.3372
 6763TIP3    H141704   4.082   1.002   0.494  1.8028 -0.3805  0.7610
 6763TIP3    H241705   4.011   0.881   0.436 -1.3343  1.8530 -0.2951
 6764TIP3   OH241706   4.131   0.214  12.094 -0.3295  0.3961  0.6955
 6764TIP3    H141707   4.144   0.248  12.006  0.1228 -0.1106  0.5596
 6764TIP3    H241708   4.217   0.225  12.136  0.1925 -1.6729  0.2581
 6765TIP3   OH241709   0.811   6.347  14.815  0.2474  0.6262  0.0382
 6765TIP3    H141710   0.775   6.341  14.904 -0.5103 -0.4692 -0.3315
 6765TIP3    H241711   0.781   6.432  14.783  1.8004  1.7372  1.3492
 6766TIP3   OH241712   4.298   0.960   3.577  0.6553 -0.3613 -0.2169
 6766TIP3    H141713   4.235   0.942   3.508  0.0433  1.9172 -0.3425
 6766TIP3    H241714   4.273   0.902   3.649 -2.2915  1.1433  0.1202
 6767TIP3   OH241715   1.495   5.317   2.383 -0.2891 -0.4002 -0.3258
 6767TIP3    H141716   1.411   5.271   2.384  0.5912 -2.0881 -1.1207
 6767TIP3    H241717   1.544   5.276   2.312  0.1512  2.5520 -1.9124
 6768TIP3   OH241718   5.521   1.212   1.138  0.3680  0.3147 -0.7388
 6768TIP3    H141719   5.506   1.269   1.213 -0.1736 -0.5805 -0.1436
 6768TIP3    H241720   5.613   1.188   1.144  0.2913  0.1249 -0.2543
 6769TIP3   OH241721   3.935   0.574  16.549  0.0790  0.5234 -0.2630
 6769TIP3    H141722   3.881   0.643  16.510  1.5929  1.5899 -0.5853
 6769TIP3    H241723   4.020   0.616  16.565  1.3493 -1.4835 -1.2713
 6770TIP3   OH241724   4.116   0.564   5.527  0.7551  0.2174  0.2556
 6770TIP3    H141725   4.070   0.647   5.519 -0.1719 -0.5057 -3.6933
 6770TIP3    H241726   4.048   0.500   5.547  1.0576  0.0188  0.6746
 6771TIP3   OH241727   6.354   1.743   5.549 -0.9527  0.2685  0.1400
 6771TIP3    H141728   6.416   1.674   5.524  0.4289  0.7359  2.0863
 6771TIP3    H241729   6.369   1.756   5.642 -3.6268  0.8232  0.5691
 6772TIP3   OH241730   2.158   0.018   6.668  0.0334 -0.1416 -0.7037
 6772TIP3    H141731   2.165  -0.074   6.641  0.6149 -0.9811  2.0006
 6772TIP3    H241732   2.066   0.029   6.691 -0.0924  0.0550 -1.2812
 6773TIP3   OH241733   1.513   3.896  11.865 -0.0778  0.0866  0.4314
 6773TIP3    H141734   1.425   3.888  11.900 -0.7220  1.9190 -0.6566
 6773TIP3    H241735   1.561   3.946  11.932  0.0235 -0.4617  0.7813
 6774TIP3   OH241736   1.131   1.949  13.327 -0.0442  0.2540  0.7243
 6774TIP3    H141737   1.166   1.879  13.272 -2.5994 -0.7549  0.2239
 6774TIP3    H241738   1.075   2.000  13.269 -2.9078 -0.8959  2.2705
 6775TIP3   OH241739   3.355   6.209  16.627 -0.2994  0.6881  0.1753
 6775TIP3    H141740   3.359   6.205  16.531 -0.8291  0.9881  0.1379
 6775TIP3    H241741   3.394   6.294  16.649  0.1545  0.4659  0.2549
 6776TIP3   OH241742   3.817   1.939   2.449  0.8924 -0.4531 -0.6310
 6776TIP3    H141743   3.748   1.964   2.510 -0.1743 -0.1937 -1.9121
 6776TIP3    H241744   3.872   2.017   2.442  0.0265  0.1099 -1.3219
 6777TIP3   OH241745   4.263   4.356  13.107 -0.3378  0.2373  0.0725
 6777TIP3    H141746   4.318   4.409  13.164 -0.7741  1.9208 -0.9936
 6777TIP3    H241747   4.174   4.371  13.137 -0.4005 -0.8551  0.4945
 6778TIP3   OH241748   4.512   5.740   3.446 -0.0669 -0.4696 -0.0231
 6778TIP3    H141749   4.432   5.748   3.497  0.0389  0.0501  0.0625
 6778TIP3    H241750   4.537   5.648   3.455  0.0844 -0.3318  1.0499
 6779TIP3   OH241751   5.881   5.738  11.647  0.6882  0.3341 -0.2028
 6779TIP3    H141752   5.966   5.776  11.667  0.3344  0.3483  1.4629
 6779TIP3    H241753   5.897   5.677  11.576  1.7999  1.4236 -0.9186
 6780TIP3   OH241754   1.873   4.856   2.897  0.0076  0.1256  0.6915
 6780TIP3    H141755   1.845   4.911   2.823 -0.3109 -1.4332 -0.3888
 6780TIP3    H241756   1.795   4.808   2.922  0.4851 -0.4847  1.0346
 6781TIP3   OH241757   2.630   5.913   4.192 -0.1740 -0.0160 -0.3162
 6781TIP3    H141758   2.633   6.008   4.193  0.1315 -0.0206 -0.7224
 6781TIP3    H241759   2.639   5.887   4.284 -0.8853  0.3627 -0.1349
 6782TIP3   OH241760   1.609   4.401  16.224  0.2414 -0.9733  0.2961
 6782TIP3    H141761   1.573   4.416  16.136 -0.0762 -0.9389  0.4331
 6782TIP3    H241762   1.636   4.309  16.223 -0.0085 -1.0451  0.2544
 6783TIP3   OH241763   6.356   0.643  10.424  0.4403 -0.2000  0.0847
 6783TIP3    H141764   6.300   0.617  10.351  0.1808  1.5150 -0.3590
 6783TIP3    H241765   6.439   0.597  10.408 -0.6975 -2.5664  0.6235
 6784TIP3   OH241766   1.213   5.468   2.221  0.7037  0.3202  0.6692
 6784TIP3    H141767   1.154   5.538   2.193  0.8935 -0.2787 -1.4160
 6784TIP3    H241768   1.155   5.397   2.249  0.4823  0.6863  1.1401
 6785TIP3   OH241769   3.326   0.015   0.027  0.6909  0.5925  0.0732
 6785TIP3    H141770   3.416   0.017  -0.007  1.0283 -2.2469  0.5676
 6785TIP3    H241771   3.274  -0.021  -0.044 -0.9269  5.2716 -1.5445
 6786TIP3   OH241772   5.056   5.534  13.245  0.4889 -0.5411 -0.0775
 6786TIP3    H141773   5.058   5.599  13.175  0.3973  0.0496  0.4549
 6786TIP3    H241774   4.970   5.546  13.286  0.8785 -0.2826  0.6800
 6787TIP3   OH241775   4.681   3.285  11.615  0.5386  0.3101 -0.2543
 6787TIP3    H141776   4.762   3.253  11.655  1.0073  0.4932 -1.0477
 6787TIP3    H241777   4.678   3.378  11.639  0.2577  0.1698  0.2689
 6788TIP3   OH241778   5.093   1.792   0.228  0.8116  0.1309  0.3370
 6788TIP3    H141779   5.147   1.852   0.280  0.9189  0.8053 -0.5202
 6788TIP3    H241780   5.043   1.849   0.170  0.4099 -0.5800 -0.0303
 6789TIP3   OH241781   5.108   5.366  14.030 -0.2025 -0.2129  0.4680
 6789TIP3    H141782   5.157   5.361  14.112  1.0552 -3.0343 -0.3570
 6789TIP3    H241783   5.063   5.282  14.023  0.0799 -0.2275 -1.9285
 6790TIP3   OH241784   3.585   5.927   1.568  0.4459 -0.5575  0.1775
 6790TIP3    H141785   3.582   5.832   1.555 -3.6256 -0.3828 -1.4775
 6790TIP3    H241786   3.618   5.962   1.485  0.0486 -0.4545  0.0619
 6791TIP3   OH241787   0.538   3.438   2.510 -0.4105  0.1562  0.2336
 6791TIP3    H141788   0.556   3.353   2.549 -1.7593 -0.2939 -0.0707
 6791TIP3    H241789   0.514   3.419   2.419 -0.9007  0.8249  0.2110
 6792TIP3   OH241790   6.172   2.635  15.155 -0.3064  0.0410 -1.0263
 6792TIP3    H141791   6.098   2.647  15.215 -0.2981 -0.9343 -0.7987
 6792TIP3    H241792   6.156   2.550  15.114  0.9111 -0.4016 -0.6381
 6793TIP3   OH241793   2.331   2.949   1.741  0.8475  0.4973 -0.1436
 6793TIP3    H141794   2.263   2.885   1.763  2.5807 -1.8951 -1.3880
 6793TIP3    H241795   2.318   3.019   1.805 -1.2254 -0.9887  1.2158
 6794TIP3   OH241796   0.611   5.544   4.622 -0.5413 -0.1734  0.2851
 6794TIP3    H141797   0.583   5.508   4.706 -1.5223  0.2964  0.1696
 6794TIP3    H241798   0.575   5.484   4.556 -0.5871 -0.0177  0.1671
 6795TIP3   OH241799   4.339   2.295   4.448 -0.0826 -0.5468  0.3127
 6795TIP3    H141800   4.302   2.381   4.430 -0.2528 -0.4188  1.2245
 6795TIP3    H241801   4.393   2.307   4.526 -0.0054 -1.2341  0.3753
 6796TIP3   OH241802   3.888   6.382  11.532  0.7102 -0.6763  0.3624
 6796TIP3    H141803   3.869   6.472  11.504  0.3906  0.1053  2.8466
 6796TIP3    H241804   3.847   6.327  11.466  1.1277  0.9870 -1.3689
 6797TIP3   OH241805   1.268   0.573  14.598  0.9643 -0.8540 -0.4779
 6797TIP3    H141806   1.193   0.583  14.540  0.3615  0.5661  0.4979
 6797TIP3    H241807   1.263   0.482  14.628 -0.5977 -0.6845 -0.1505
 6798TIP3   OH241808   0.898   4.861  13.856 -0.3708  0.2399  0.5352
 6798TIP3    H141809   0.836   4.927  13.887 -0.0861  1.4864 -1.4260
 6798TIP3    H241810   0.970   4.910  13.820 -0.3048 -1.1196 -1.3113
 6799TIP3   OH241811   0.997   1.067   0.752  0.3464  0.1628  0.0324
 6799TIP3    H141812   0.930   1.003   0.776 -2.6590  2.6835 -0.9792
 6799TIP3    H241813   1.001   1.127   0.827  1.8888 -0.1672  0.2574
 6800TIP3   OH241814   2.537   3.813  12.508 -0.2667  0.0377  0.9539
 6800TIP3    H141815   2.567   3.783  12.594 -0.9438  1.1983  1.6138
 6800TIP3    H241816   2.442   3.803  12.510 -0.2480 -0.4872  0.0949
 6801TIP3   OH241817   3.098   3.953  16.358 -0.4755  0.0327 -0.1445
 6801TIP3    H141818   3.104   4.028  16.416 -0.0094 -0.3796  0.3506
 6801TIP3    H241819   3.087   3.877  16.416  2.3299 -0.6707 -0.3849
 6802TIP3   OH241820   3.589   6.345   6.127  0.1357 -0.5323 -0.4999
 6802TIP3    H141821   3.508   6.371   6.083 -0.0383 -1.3657 -0.7068
 6802TIP3    H241822   3.577   6.370   6.218 -0.3701 -0.6779 -0.5265
 6803TIP3   OH241823   2.026   5.861  11.926  0.2536 -0.3442  0.8921
 6803TIP3    H141824   1.994   5.784  11.972 -0.3769  0.1320  1.2842
 6803TIP3    H241825   2.095   5.896  11.983 -0.0739 -0.1264  1.1626
 6804TIP3   OH241826   5.491   1.520   5.886 -0.2687 -0.5052  0.0432
 6804TIP3    H141827   5.552   1.513   5.959  0.0525 -0.3903 -0.2107
 6804TIP3    H241828   5.508   1.606   5.849 -1.3949  0.0177  0.6803
 6805TIP3   OH241829   5.952   6.718  14.236  1.1941  0.1385  0.2506
 6805TIP3    H141830   5.992   6.774  14.170 -0.1519  1.0955  0.2190
 6805TIP3    H241831   5.860   6.712  14.210  0.9718 -0.7483  1.1744
 6806TIP3   OH241832   1.174   1.870   2.078  0.3506 -0.0606  0.1060
 6806TIP3    H141833   1.235   1.940   2.099  1.3660 -0.8037 -0.3233
 6806TIP3    H241834   1.226   1.806   2.030 -1.3847  0.7053 -3.1193
 6807TIP3   OH241835   5.482   2.452  14.375 -0.2181 -0.0526 -0.7626
 6807TIP3    H141836   5.444   2.369  14.348  1.3791 -1.4330  0.9404
 6807TIP3    H241837   5.430   2.480  14.450  0.1531 -0.3081 -0.4048
 6808TIP3   OH241838   0.844   2.537   1.466 -0.3141  0.3719 -0.0524
 6808TIP3    H141839   0.867   2.482   1.541 -0.2297 -0.5828 -0.7617
 6808TIP3    H241840   0.759   2.505   1.437 -0.3423  0.7266 -0.3771
 6809TIP3   OH241841   5.086   6.127  13.392 -0.6631 -0.1578 -0.0757
 6809TIP3    H141842   5.040   6.209  13.376  0.8960  1.0755  1.4313
 6809TIP3    H241843   5.063   6.102  13.481 -0.8753 -1.2204 -0.4071
 6810TIP3   OH241844   1.159   0.607   4.404 -0.8968 -0.8810  0.0220
 6810TIP3    H141845   1.136   0.614   4.497 -1.9030  0.4774 -0.2911
 6810TIP3    H241846   1.077   0.624   4.358 -0.4342 -1.6417 -1.1317
 6811TIP3   OH241847   5.148   6.712  12.863  0.0015 -0.2335  0.0937
 6811TIP3    H141848   5.179   6.798  12.836  0.7555 -0.1202  1.2129
 6811TIP3    H241849   5.198   6.693  12.943 -0.2792 -1.6287 -0.0379
 6812TIP3   OH241850   1.694   1.787   1.320  0.4444  0.5374 -0.0582
 6812TIP3    H141851   1.614   1.822   1.282  0.8321  0.5887 -0.8440
 6812TIP3    H241852   1.696   1.822   1.409 -1.3454 -0.9616  0.6393
 6813TIP3   OH241853   1.258   6.041   4.672 -0.4183  0.0476 -0.0355
 6813TIP3    H141854   1.261   6.127   4.631 -1.1988 -1.3840 -3.4059
 6813TIP3    H241855   1.183   5.997   4.631 -2.5405 -1.0541  4.3288
 6814TIP3   OH241856   5.445   5.745   6.221  0.0836  0.0285  0.0372
 6814TIP3    H141857   5.428   5.792   6.140 -3.1620 -2.1628 -0.7420
 6814TIP3    H241858   5.383   5.781   6.284  0.8638 -0.0118  0.8638
 6815TIP3   OH241859   1.481   5.187  16.482  0.2047  0.0076  0.1117
 6815TIP3    H141860   1.517   5.244  16.550 -0.2287 -0.5978  0.8615
 6815TIP3    H241861   1.471   5.244  16.406  0.4848  0.7551  0.6238
 6816TIP3   OH241862   1.005   0.662  16.829 -0.2945  0.2345  0.2559
 6816TIP3    H141863   1.025   0.709  16.748 -0.8326  0.1605  0.0820
 6816TIP3    H241864   1.074   0.689  16.890 -0.2495  0.7720 -0.0337
 6817TIP3   OH241865   6.469   2.843   5.640  0.1092  0.9355  0.7640
 6817TIP3    H141866   6.554   2.812   5.608 -0.7284 -1.1714  0.4342
 6817TIP3    H241867   6.450   2.786   5.715 -1.5517  0.5549  0.0813
 6818TIP3   OH241868   2.179   5.280  14.439 -0.3434  0.1361  0.3888
 6818TIP3    H141869   2.228   5.302  14.361  0.3384  1.5942  1.1868
 6818TIP3    H241870   2.127   5.359  14.458 -2.1111 -0.9424  0.2280
 6819TIP3   OH241871   2.692   2.358  16.856  0.5374  0.7701  0.4094
 6819TIP3    H141872   2.624   2.356  16.789 -0.1625  0.8081  1.1142
 6819TIP3    H241873   2.669   2.287  16.916  0.7400  1.2141  1.0193
 6820TIP3   OH241874   1.222   6.602  17.247 -0.5046  0.4449 -0.5414
 6820TIP3    H141875   1.176   6.686  17.255 -2.3354 -0.4742 -0.8308
 6820TIP3    H241876   1.158   6.544  17.205  1.0468 -0.8525 -1.1894
 6821TIP3   OH241877   0.524   6.222  16.181  0.1265 -0.3137  0.2050
 6821TIP3    H141878   0.461   6.152  16.197  0.5548 -0.5488  0.9415
 6821TIP3    H241879   0.592   6.209  16.248  0.7150  0.2133 -0.2751
 6822TIP3   OH241880   3.288   5.905  11.022 -0.1270  0.6655  0.2302
 6822TIP3    H141881   3.235   5.837  11.065  0.3597  0.5862  0.7054
 6822TIP3    H241882   3.240   5.986  11.038  0.8990  0.9007  2.4165
 6823TIP3   OH241883   1.070   4.652   5.241 -0.3968  0.6688  0.2747
 6823TIP3    H141884   1.002   4.593   5.274 -1.2224  0.3135 -1.8878
 6823TIP3    H241885   1.026   4.736   5.231  0.1703  1.0888  1.1667
 6824TIP3   OH241886   5.822   0.806   5.017 -0.5318 -0.7258  0.5146
 6824TIP3    H141887   5.898   0.833   4.966 -0.0231  0.9199  2.0259
 6824TIP3    H241888   5.749   0.855   4.978 -0.8119 -2.0687 -0.7363
 6825TIP3   OH241889   5.900   1.045  10.483  0.1140  0.5851  0.2276
 6825TIP3    H141890   5.937   0.966  10.522  0.2179  0.9736  0.9315
 6825TIP3    H241891   5.805   1.034  10.493  0.1039  0.3165 -0.1450
 6826TIP3   OH241892   0.480   5.005  14.188  0.3122  0.3755  0.5862
 6826TIP3    H141893   0.492   4.934  14.251 -0.5975 -0.2188  0.1147
 6826TIP3    H241894   0.551   5.066  14.206  2.2687 -1.5547 -0.2520
 6827TIP3   OH241895   5.562   4.440   5.452  0.1059 -0.3995 -0.2447
 6827TIP3    H141896   5.571   4.454   5.546 -0.0505 -2.0592  0.0521
 6827TIP3    H241897   5.634   4.380   5.430  0.0157 -0.1920 -1.1429
 6828TIP3   OH241898   5.309   4.393  11.058  0.0836  0.1800 -0.1508
 6828TIP3    H141899   5.222   4.360  11.039 -0.3449  0.9314  0.4526
 6828TIP3    H241900   5.308   4.484  11.028  0.4254  0.4098  0.5185
 6829TIP3   OH241901   1.249   4.419  13.133  0.2534 -0.3637  0.0329
 6829TIP3    H141902   1.301   4.471  13.073 -0.0443  0.0506  0.1215
 6829TIP3    H241903   1.245   4.472  13.213  0.2704 -0.7015  0.2603
 6830TIP3   OH241904   4.308   0.062  17.057  0.3546  0.2638 -0.5669
 6830TIP3    H141905   4.214   0.048  17.066  0.1787  0.3977 -1.9955
 6830TIP3    H241906   4.318   0.157  17.051  0.6824  0.3043  0.4629
 6831TIP3   OH241907   3.791   1.106  15.590  0.1780 -0.0427 -0.6209
 6831TIP3    H141908   3.876   1.136  15.624 -0.6193 -0.2028  1.6572
 6831TIP3    H241909   3.798   1.010  15.589  0.7578 -0.0325 -2.5965
 6832TIP3   OH241910   4.283   2.294   1.274  0.4865  0.2509  0.2180
 6832TIP3    H141911   4.311   2.316   1.185  0.6833  0.0167  0.2226
 6832TIP3    H241912   4.220   2.223   1.262 -0.3542  0.9793  0.1828
 6833TIP3   OH241913   3.058   4.478  16.472  0.4374  0.2973  0.2380
 6833TIP3    H141914   3.150   4.462  16.451  0.5191  0.5100  0.4328
 6833TIP3    H241915   3.015   4.488  16.387  0.6989  0.7782  0.1596
 6834TIP3   OH241916   4.444   2.566  15.802  0.4862  0.2351  0.3598
 6834TIP3    H141917   4.388   2.586  15.727 -0.1827  1.2897  1.0987
 6834TIP3    H241918   4.432   2.641  15.860  1.3375 -0.3522  1.3173
 6835TIP3   OH241919   1.940   2.098   5.132  0.2180  0.4202 -0.1860
 6835TIP3    H141920   1.895   2.177   5.103  0.2216  0.4851 -0.0109
 6835TIP3    H241921   2.033   2.117   5.120  0.1809  0.0721 -1.1106
 6836TIP3   OH241922   5.178   5.966  12.781 -0.0336  1.0150  0.3871
 6836TIP3    H141923   5.112   5.918  12.732  1.2177 -0.7571  0.3431
 6836TIP3    H241924   5.173   6.055  12.747 -1.0626  0.4583 -1.0081
 6837TIP3   OH241925   2.497   1.725   4.268 -0.1128 -0.6619  0.1375
 6837TIP3    H141926   2.593   1.731   4.274  0.0344 -0.6824 -1.7401
 6837TIP3    H241927   2.467   1.815   4.272 -0.1014 -0.6932  1.4702
 6838TIP3   OH241928   4.800   1.052   1.453  0.6394 -0.1407  0.9319
 6838TIP3    H141929   4.752   0.970   1.442  0.6730 -0.0512  0.0667
 6838TIP3    H241930   4.751   1.099   1.521 -2.5418  1.3725 -2.0926
 6839TIP3   OH241931   3.330   4.181  10.829  0.8417  0.2818  0.2997
 6839TIP3    H141932   3.306   4.267  10.797  1.0279  0.7791  1.4586
 6839TIP3    H241933   3.380   4.142  10.758  0.6589  1.0760 -0.2755
 6840TIP3   OH241934   2.510   5.261   2.161 -0.1848 -0.4328 -0.3392
 6840TIP3    H141935   2.418   5.287   2.156 -0.2148 -0.7004 -1.2120
 6840TIP3    H241936   2.552   5.307   2.088  0.1291 -1.3054 -0.7156
 6841TIP3   OH241937   5.753   2.589  13.652 -0.4649 -0.3988  0.4915
 6841TIP3    H141938   5.834   2.542  13.671  0.8361  1.6960  0.4854
 6841TIP3    H241939   5.696   2.524  13.610  1.9193 -1.4769 -1.2867
 6842TIP3   OH241940   0.740   0.627  11.018 -0.5572  0.3244 -0.2828
 6842TIP3    H141941   0.776   0.593  10.936  0.4602 -0.7769  0.5844
 6842TIP3    H241942   0.736   0.722  11.005  0.2952  0.2348 -1.3240
 6843TIP3   OH241943   4.173   6.406  11.619  0.1608 -0.3677 -0.3783
 6843TIP3    H141944   4.089   6.371  11.586  0.1736  0.6347 -1.5454
 6843TIP3    H241945   4.224   6.328  11.640 -0.8629 -1.0070 -0.1446
 6844TIP3   OH241946   6.065   5.319  14.085  0.4003 -0.0079  0.2134
 6844TIP3    H141947   5.986   5.273  14.111 -1.9577  3.1392 -0.7827
 6844TIP3    H241948   6.122   5.316  14.162 -1.2442 -1.2138  1.4410
 6845TIP3   OH241949   4.392   6.378  17.233 -0.0784 -0.2394 -0.1783
 6845TIP3    H141950   4.350   6.461  17.253  0.0321  0.2267 -1.7380
 6845TIP3    H241951   4.469   6.401  17.181  0.5696 -1.2566  0.2871
 6846TIP3   OH241952   5.950   3.315   3.558  0.0543  0.0885 -0.4974
 6846TIP3    H141953   5.944   3.400   3.515 -2.4047 -0.2458 -0.9624
 6846TIP3    H241954   5.984   3.335   3.646 -0.1634  1.5077 -0.7122
 6847TIP3   OH241955   4.162   3.341  13.752 -0.6637 -0.2825 -0.3183
 6847TIP3    H141956   4.100   3.412  13.763  0.6572  0.5095  4.4127
 6847TIP3    H241957   4.118   3.264  13.789 -0.4843 -0.8779 -1.3057
 6848TIP3   OH241958   4.685   5.117   0.905  0.6551 -0.4531 -0.5046
 6848TIP3    H141959   4.725   5.201   0.929  2.5801 -1.7083  0.9005
 6848TIP3    H241960   4.730   5.091   0.825 -0.5590  0.2105 -1.4420
 6849TIP3   OH241961   1.080   6.516  14.785 -0.0321 -0.0604  0.0111
 6849TIP3    H141962   1.103   6.556  14.869  1.5303  2.7496 -1.6129
 6849TIP3    H241963   1.062   6.424  14.806  0.7150  0.4308  3.3175
 6850TIP3   OH241964   1.735   1.271   0.160  0.2624  0.1806 -0.2694
 6850TIP3    H141965   1.803   1.229   0.214 -0.4356 -1.5892 -0.6939
 6850TIP3    H241966   1.736   1.221   0.078 -1.0448  0.5986 -0.5585
 6851TIP3   OH241967   1.282   5.130   4.875 -0.1445  0.2632 -0.3728
 6851TIP3    H141968   1.346   5.199   4.856 -0.1843  0.3174 -0.3115
 6851TIP3    H241969   1.246   5.154   4.961  0.0961 -0.0272 -0.1893
 6852TIP3   OH241970   3.908   6.473   4.496  0.1475  0.6969  0.0622
 6852TIP3    H141971   3.974   6.523   4.544 -0.5872  0.7197  1.0853
 6852TIP3    H241972   3.843   6.537   4.470  0.1903  0.5720 -0.3512
 6853TIP3   OH241973   2.404   1.466  15.915 -0.0488 -0.1506  0.6925
 6853TIP3    H141974   2.382   1.465  16.008  0.6881 -1.7637  0.8771
 6853TIP3    H241975   2.339   1.409  15.874  1.6303 -2.2295  0.7633
 6854TIP3   OH241976   6.242   2.636   2.083  0.4445 -0.1275 -0.7675
 6854TIP3    H141977   6.251   2.597   2.170  0.2201  0.0439 -0.6682
 6854TIP3    H241978   6.186   2.712   2.096  1.1416  0.4264 -0.8987
 6855TIP3   OH241979   4.964   2.260   0.673 -0.5072  0.4514  0.0073
 6855TIP3    H141980   4.989   2.246   0.581 -0.3902  1.6283 -0.1559
 6855TIP3    H241981   5.041   2.235   0.723 -0.4946  0.0063 -0.2312
 6856TIP3   OH241982   4.213   5.904   1.379 -0.0230 -0.4916 -0.2801
 6856TIP3    H141983   4.185   5.980   1.428  2.1740  1.4460 -1.7872
 6856TIP3    H241984   4.155   5.901   1.302 -0.6005 -0.8402  0.1612
 6857TIP3   OH241985   1.654   1.018   4.640  0.0888  0.1202 -0.2872
 6857TIP3    H141986   1.590   0.973   4.584  0.8364  0.7517 -1.6905
 6857TIP3    H241987   1.650   0.970   4.723 -2.6802  0.5494 -0.0802
 6858TIP3   OH241988   6.645   2.685   0.115 -0.9741 -0.4370 -0.4142
 6858TIP3    H141989   6.667   2.596   0.140  0.6186 -0.3288 -1.2695
 6858TIP3    H241990   6.554   2.681   0.085 -1.1469 -1.6042  0.2216
 6859TIP3   OH241991   0.202   0.037  16.845  0.0788  0.6889  0.9457
 6859TIP3    H141992   0.272   0.090  16.807  0.1690  0.4745  0.8084
 6859TIP3    H241993   0.140   0.101  16.881 -2.5150  1.2745 -3.7182
 6860TIP3   OH241994   5.998   3.471  14.808  0.3731  0.0012  0.0243
 6860TIP3    H141995   6.046   3.396  14.773  3.6404  2.0098 -0.2279
 6860TIP3    H241996   5.949   3.436  14.882  1.5752 -2.3943 -0.2024
 6861TIP3   OH241997   6.269   5.886   2.568  0.3217 -0.1636 -0.4580
 6861TIP3    H141998   6.259   5.806   2.620  0.0262  1.3164  1.9058
 6861TIP3    H241999   6.360   5.912   2.581  0.1714  0.3637 -0.4343
 6862TIP3   OH242000   2.993   3.692  15.057 -0.6002  0.0662 -0.6644
 6862TIP3    H142001   2.988   3.681  14.962  1.3562 -1.9875 -0.6115
 6862TIP3    H242002   2.967   3.607  15.093  0.7157  0.1198  0.5100
 6863TIP3   OH242003   1.691   0.009   0.095  0.1326  0.4282  0.5197
 6863TIP3    H142004   1.630  -0.031   0.158 -0.3883  0.3836  0.0006
 6863TIP3    H242005   1.686  -0.048   0.019  0.3814  0.7625  0.2545
 6864TIP3   OH242006   6.675   1.038  14.345 -0.4183  0.0293  0.4285
 6864TIP3    H142007   6.725   1.118  14.329  0.4040 -0.4528  0.5385
 6864TIP3    H242008   6.606   1.039  14.279 -0.4411  0.8428  0.4514
 6865TIP3   OH242009   0.999   3.705  13.733 -0.3467 -0.1871 -0.3076
 6865TIP3    H142010   1.029   3.641  13.797  0.4736 -0.2374 -0.7206
 6865TIP3    H242011   1.079   3.748  13.703 -0.9864  2.2190  1.1521
 6866TIP3   OH242012   5.913   0.903  16.253 -0.3781 -0.1874  0.6126
 6866TIP3    H142013   5.894   0.827  16.197  0.1689 -1.0290  1.5396
 6866TIP3    H242014   5.839   0.962  16.238 -0.3212 -0.4630 -0.8669
 6867TIP3   OH242015   5.535   5.783   2.764 -0.3456  0.2319 -0.2662
 6867TIP3    H142016   5.501   5.871   2.782  0.8093  0.2723  2.0446
 6867TIP3    H242017   5.482   5.725   2.818  1.3113 -0.0127  1.1693
 6868TIP3   OH242018   0.355   4.192  11.988  0.4132  0.0641  0.2118
 6868TIP3    H142019   0.425   4.216  11.927  0.9858 -0.6419  0.5741
 6868TIP3    H242020   0.298   4.268  11.990 -0.8843 -0.6475 -2.9744
 6869TIP3   OH242021   0.665   0.995   3.272 -0.5752 -0.4402  0.2997
 6869TIP3    H142022   0.687   1.005   3.365  0.8669 -0.8386  0.0236
 6869TIP3    H242023   0.617   1.075   3.250  0.3117  0.3256  1.0424
 6870TIP3   OH242024   5.259   5.449  11.083 -0.2476 -0.2104 -0.0141
 6870TIP3    H142025   5.324   5.443  11.013 -0.9221  0.9032 -0.7870
 6870TIP3    H242026   5.196   5.381  11.063 -0.2684 -0.1065 -0.3124
 6871TIP3   OH242027   6.095   6.585   0.436  0.1430 -0.2015 -0.4746
 6871TIP3    H142028   6.167   6.602   0.497 -0.6761  0.5193  0.3136
 6871TIP3    H242029   6.138   6.569   0.352  1.2714 -0.8694  0.2070
 6872TIP3   OH242030   3.215   5.493  14.208 -0.1635 -0.8255  0.5364
 6872TIP3    H142031   3.265   5.433  14.152  0.8488 -0.3294  0.8909
 6872TIP3    H242032   3.256   5.486  14.294  0.8039  1.3041  0.3029
 6873TIP3   OH242033   3.445   6.448  10.445 -0.2289 -0.8264  0.0054
 6873TIP3    H142034   3.398   6.407  10.518 -1.9252  0.9153 -0.0544
 6873TIP3    H242035   3.378   6.466  10.380  0.8193  0.1792 -0.8366
 6874TIP3   OH242036   3.966   1.738   2.949  0.2037  0.0692  0.0389
 6874TIP3    H142037   3.956   1.821   2.996  0.7012  0.0416  0.2017
 6874TIP3    H242038   4.055   1.742   2.913  1.0880 -1.3519  1.9394
 6875TIP3   OH242039   0.290   3.738  11.196  0.4193 -0.0595 -0.4356
 6875TIP3    H142040   0.202   3.705  11.183 -0.1097  0.9940  0.3104
 6875TIP3    H242041   0.325   3.685  11.268 -0.0852  0.3643  0.1354
 6876TIP3   OH242042   4.013   4.728   4.629  0.1885 -0.0604 -0.1403
 6876TIP3    H142043   3.979   4.668   4.564  0.8194 -2.0289  1.2432
 6876TIP3    H242044   3.940   4.742   4.690  0.1109  0.4048 -0.3365
 6877TIP3   OH242045   2.979   4.355   2.750  0.0516  0.8853 -0.0136
 6877TIP3    H142046   3.006   4.446   2.761  0.1863  0.7179  1.2276
 6877TIP3    H242047   3.003   4.313   2.833  0.5020 -0.4103 -0.7653
 6878TIP3   OH242048   1.513   4.872   3.283 -0.1029  0.1201 -0.3421
 6878TIP3    H142049   1.507   4.777   3.276  0.9142 -0.0283  0.5022
 6878TIP3    H242050   1.595   4.894   3.239 -1.4185  0.8979 -2.5794
 6879TIP3   OH242051   0.292   6.447  16.549 -0.1695  0.1486 -0.2603
 6879TIP3    H142052   0.239   6.519  16.516 -0.9514 -1.3877 -2.6650
 6879TIP3    H242053   0.381   6.466  16.518 -0.2849  0.3022 -0.4969
 6880TIP3   OH242054   4.192   0.469  14.354  0.3144  0.5883  0.3928
 6880TIP3    H142055   4.116   0.467  14.297  0.8310  0.2766 -0.3044
 6880TIP3    H242056   4.160   0.437  14.439 -0.2062 -0.0475 -0.0357
 6881TIP3   OH242057   2.679   4.013  12.101  0.3131  0.7588 -0.4614
 6881TIP3    H142058   2.743   4.049  12.040  0.4881 -2.2751 -2.3035
 6881TIP3    H242059   2.730   3.956  12.159 -0.4320 -0.3503 -0.8451
 6882TIP3   OH242060   1.387   3.562   4.342  0.1966  0.5255  0.3446
 6882TIP3    H142061   1.459   3.539   4.401  0.5414  1.5501  0.3346
 6882TIP3    H242062   1.351   3.643   4.377  0.4481  1.1961 -0.8833
 6883TIP3   OH242063   1.683   6.705  16.177  0.3950  0.0816 -0.2451
 6883TIP3    H142064   1.747   6.686  16.109  0.7581  2.5235 -0.6636
 6883TIP3    H242065   1.728   6.762  16.239 -1.2853  1.8619 -0.5426
 6884TIP3   OH242066   1.000   6.100   0.224  0.3089 -0.1853 -0.3932
 6884TIP3    H142067   0.981   6.136   0.311  0.5253 -1.4076  0.1714
 6884TIP3    H242068   1.050   6.169   0.181  0.0462  0.5129  0.3769
 6885TIP3   OH242069   3.256   5.764   4.713  0.0405  0.4285  0.4363
 6885TIP3    H142070   3.323   5.696   4.707 -0.7491 -0.4605  1.3677
 6885TIP3    H242071   3.263   5.797   4.802 -0.4704  0.6530  0.3968
 6886TIP3   OH242072   2.190   3.740   3.425  0.2227  0.0607  0.2057
 6886TIP3    H142073   2.210   3.669   3.487  0.9760  1.0625  1.1710
 6886TIP3    H242074   2.271   3.791   3.422 -0.3493  0.9490 -0.3726
 6887TIP3   OH242075   5.656   4.395   1.480  0.0206  0.3141 -0.0195
 6887TIP3    H142076   5.665   4.484   1.516  0.2287  0.2221  0.1557
 6887TIP3    H242077   5.583   4.402   1.418 -0.5946  0.3774  0.7063
 6888TIP3   OH242078   5.618   5.019   2.310  0.6054  0.6359  0.5001
 6888TIP3    H142079   5.632   4.942   2.366  1.4698  0.5207  0.1434
 6888TIP3    H242080   5.656   4.994   2.226 -0.6984  0.7980 -0.1553
 6889TIP3   OH242081   0.083   3.980   1.768 -0.0534 -1.0860 -0.2569
 6889TIP3    H142082   0.148   3.949   1.831  2.2490  0.6370 -1.6391
 6889TIP3    H242083   0.114   3.947   1.684  1.4909  3.0485 -1.5379
 6890TIP3   OH242084   0.150   2.535   3.360  0.2694 -0.0018  0.0580
 6890TIP3    H142085   0.103   2.548   3.442  2.5916  1.5409  1.2468
 6890TIP3    H242086   0.097   2.580   3.294  0.1758  1.9959  1.4083
 6891TIP3   OH242087   0.330   2.379  15.373  0.2340  0.4852 -0.2494
 6891TIP3    H142088   0.249   2.428  15.380 -0.3134 -0.5266  0.9890
 6891TIP3    H242089   0.387   2.415  15.442 -0.2044 -0.6282  0.7248
 6892TIP3   OH242090   6.092   0.253   5.023  0.2766 -0.2141 -0.7015
 6892TIP3    H142091   6.097   0.332   4.969  0.2043  0.9120  0.8913
 6892TIP3    H242092   6.011   0.211   4.996 -0.2202  0.8054 -0.8368
 6893TIP3   OH242093   6.737   1.286  11.923 -0.4815 -0.0145 -0.2135
 6893TIP3    H142094   6.779   1.291  12.009  0.1153  1.1630 -0.5637
 6893TIP3    H242095   6.688   1.368  11.916 -1.4465 -0.5952 -0.5480
 6894TIP3   OH242096   5.586   0.143   5.002  0.4688 -0.4743 -0.1659
 6894TIP3    H142097   5.543   0.066   4.965 -1.0049  0.4744 -0.5142
 6894TIP3    H242098   5.571   0.213   4.937  3.3457 -0.2788 -0.7410
 6895TIP3   OH242099   4.151   3.659  14.585 -0.3201 -0.1089 -0.6117
 6895TIP3    H142100   4.181   3.708  14.662  0.5238 -1.2619 -0.1765
 6895TIP3    H242101   4.231   3.627  14.544 -0.8242 -0.6924 -1.1649
 6896TIP3   OH242102   4.845   4.755   4.718  0.2027  0.2804 -0.7150
 6896TIP3    H142103   4.911   4.701   4.762 -0.3050  0.2167 -0.0147
 6896TIP3    H242104   4.827   4.825   4.780 -3.2672 -1.8253  0.9512
 6897TIP3   OH242105   4.669   1.162   0.346 -0.3123 -0.1729 -0.3387
 6897TIP3    H142106   4.698   1.097   0.411 -1.4749  1.5461  2.0515
 6897TIP3    H242107   4.574   1.149   0.341 -0.1968 -0.5583 -2.0969
 6898TIP3   OH242108   1.019   4.904   4.830 -0.0404  0.1830  0.1634
 6898TIP3    H142109   1.019   4.815   4.864 -0.2885  0.4275  0.8320
 6898TIP3    H242110   1.092   4.947   4.875 -0.8456  0.7221  0.9835
 6899TIP3   OH242111   5.900   1.823   1.449 -0.5101  0.5386 -0.1333
 6899TIP3    H142112   5.972   1.760   1.455  0.8997  2.1909  1.6869
 6899TIP3    H242113   5.929   1.887   1.384 -0.4208  1.0828  0.4329
 6900TIP3   OH242114   1.985   4.868   6.536  0.5584  0.3488 -0.2581
 6900TIP3    H142115   1.998   4.946   6.591 -0.0817  0.9673 -0.9563
 6900TIP3    H242116   1.901   4.833   6.565  0.7894 -0.0161 -0.0287
 6901TIP3   OH242117   4.341   3.389   6.190  0.5026 -0.0884 -0.3037
 6901TIP3    H142118   4.332   3.295   6.207  0.8298  0.0161  0.4724
 6901TIP3    H242119   4.432   3.409   6.214 -0.3888  1.0251  2.5609
 6902TIP3   OH242120   2.792   3.360  16.529 -0.4818  0.4314 -0.1857
 6902TIP3    H142121   2.809   3.453  16.514  2.4334  0.1125  0.5864
 6902TIP3    H242122   2.830   3.316  16.453  0.3191 -0.2439  0.5824
 6903TIP3   OH242123   5.154   4.637  13.430 -0.2846  0.1048 -0.0601
 6903TIP3    H142124   5.088   4.637  13.500 -0.9574  2.0041 -0.6207
 6903TIP3    H242125   5.147   4.551  13.390 -1.7375 -0.0769  0.5345
 6904TIP3   OH242126   3.498   5.021   6.191 -0.6756  0.0010 -0.3301
 6904TIP3    H142127   3.512   5.116   6.187 -1.0263  0.0481 -0.4905
 6904TIP3    H242128   3.517   4.990   6.103 -1.2365  0.0215 -0.4638
 6905TIP3   OH242129   0.325   1.835  17.383 -0.0258  0.0273  0.4525
 6905TIP3    H142130   0.270   1.847  17.460  0.7473  1.5110  0.8095
 6905TIP3    H242131   0.415   1.835  17.417  0.3124  0.4675 -0.4070
 6906TIP3   OH242132   3.317   5.358  11.921  0.0002  0.5206  0.3006
 6906TIP3    H142133   3.407   5.333  11.902 -0.5011 -0.9228 -0.3060
 6906TIP3    H242134   3.305   5.441  11.873  0.4200 -0.2781 -1.2532
 6907TIP3   OH242135   5.097   2.711  14.453  0.0299 -0.7635 -0.1970
 6907TIP3    H142136   5.183   2.751  14.452 -0.0316 -0.3960  2.5086
 6907TIP3    H242137   5.090   2.666  14.368  2.5401 -0.1964 -0.7653
 6908TIP3   OH242138   5.914   4.469  13.206  0.1452 -0.4395  0.2155
 6908TIP3    H142139   5.939   4.451  13.115 -0.1621 -0.1863  0.0794
 6908TIP3    H242140   5.941   4.390  13.254 -0.1024 -0.7668 -0.1747
 6909TIP3   OH242141   0.218   1.212  11.736  0.3256  0.0780 -0.3373
 6909TIP3    H142142   0.251   1.248  11.654 -0.8517 -1.3637 -1.5304
 6909TIP3    H242143   0.280   1.143  11.759  0.9025  0.7854  0.2433
 6910TIP3   OH242144   4.699   5.427  14.003 -0.6891  0.7467 -0.4281
 6910TIP3    H142145   4.764   5.383  14.058  1.6305  1.9647 -2.0251
 6910TIP3    H242146   4.637   5.465  14.065 -1.9941 -3.2971  1.0977
 6911TIP3   OH242147   5.340   6.235  13.310  0.1320  0.0344  0.0191
 6911TIP3    H142148   5.244   6.234  13.321 -0.3782  0.0718 -3.3033
 6911TIP3    H242149   5.358   6.152  13.264  1.8509 -0.3443  1.3105
 6912TIP3   OH242150   1.518   1.775  17.034  0.1096  0.2024 -0.1527
 6912TIP3    H142151   1.473   1.809  16.956  0.4618  1.1579  0.0531
 6912TIP3    H242152   1.611   1.784  17.014  0.2345 -1.5520 -0.4804
 6913TIP3   OH242153   0.595   5.879  12.666 -0.5362  0.0106 -0.5062
 6913TIP3    H142154   0.635   5.851  12.584 -1.0381  0.3977 -0.8871
 6913TIP3    H242155   0.592   5.799  12.719 -0.4103 -0.2894 -0.9444
 6914TIP3   OH242156   0.896   1.288  11.673  0.2158  0.1110 -0.5927
 6914TIP3    H142157   0.937   1.205  11.649  0.4872  0.3036 -0.8010
 6914TIP3    H242158   0.960   1.354  11.647  0.1426  0.3670 -0.1204
 6915TIP3   OH242159   2.693   1.254   4.768 -0.2976 -0.4455  0.1631
 6915TIP3    H142160   2.761   1.287   4.827  0.3576 -0.5304 -0.5138
 6915TIP3    H242161   2.613   1.297   4.796  0.3688  1.0663 -0.1340
 6916TIP3   OH242162   0.220   1.661  13.654 -0.5709 -0.2772 -0.3172
 6916TIP3    H142163   0.282   1.625  13.719 -0.7688  0.5212  0.3311
 6916TIP3    H242164   0.197   1.586  13.599 -0.9407 -1.1618  0.9773
 6917TIP3   OH242165   6.619   6.493  12.798 -0.2425  0.3271  0.1344
 6917TIP3    H142166   6.712   6.514  12.800 -0.0359 -0.1628 -1.9950
 6917TIP3    H242167   6.606   6.433  12.872  1.9780 -2.5915 -1.6053
 6918TIP3   OH242168   6.075   4.073  12.934  0.0387  0.4297  0.8752
 6918TIP3    H142169   6.000   4.054  12.991  0.1493  1.3520  1.3534
 6918TIP3    H242170   6.146   4.093  12.995 -0.2261  2.9397  0.4726
 6919TIP3   OH242171   3.883   2.142  11.403 -0.0222 -0.0305 -0.3015
 6919TIP3    H142172   3.848   2.055  11.421 -0.5118  0.3767  0.7549
 6919TIP3    H242173   3.861   2.194  11.480  3.3792  0.1290  0.6988
 6920TIP3   OH242174   6.077   0.730  11.873 -0.1979  0.2292 -0.3353
 6920TIP3    H142175   6.102   0.820  11.851  0.3903 -0.2709 -1.7923
 6920TIP3    H242176   5.990   0.719  11.836 -0.5996  0.4309  0.5255
 6921TIP3   OH242177   3.806   5.632   1.523 -0.1857 -0.2740 -0.0622
 6921TIP3    H142178   3.866   5.690   1.571 -0.3168  0.1637 -0.4208
 6921TIP3    H242179   3.863   5.579   1.468  0.2355 -2.6455  2.4263
 6922TIP3   OH242180   2.350   2.551  17.334 -0.3572  0.1072  0.4911
 6922TIP3    H142181   2.397   2.588  17.259 -1.7038  0.3439 -0.2673
 6922TIP3    H242182   2.260   2.581  17.323 -1.1075 -1.8373  0.8648
 6923TIP3   OH242183   0.022   4.455   5.444  0.4705 -0.0420  0.0223
 6923TIP3    H142184   0.077   4.411   5.378  1.0590 -0.2005  0.6086
 6923TIP3    H242185  -0.044   4.389   5.468  0.0188  0.1431 -0.6713
 6924TIP3   OH242186   3.647   2.910   6.315 -0.8453  0.0045 -0.1939
 6924TIP3    H142187   3.602   2.985   6.354 -0.7452  0.2169 -0.4826
 6924TIP3    H242188   3.606   2.833   6.355 -1.4059  0.1968 -0.3915
 6925TIP3   OH242189   4.069   6.146  11.120  0.6153  0.2426 -0.2065
 6925TIP3    H142190   4.062   6.051  11.111  0.2131  0.3198 -0.7440
 6925TIP3    H242191   4.150   6.169  11.075  0.8057  0.1405  0.0763
 6926TIP3   OH242192   1.340   2.090  13.426  0.3796 -0.7532  0.1029
 6926TIP3    H142193   1.302   2.133  13.502 -0.7862 -3.1179  0.9572
 6926TIP3    H242194   1.266   2.069  13.369  1.2798  1.4732 -2.0603
 6927TIP3   OH242195   1.099   4.579  10.915  0.4138  0.2536  0.4413
 6927TIP3    H142196   1.180   4.625  10.937  0.7450 -1.3259  2.8774
 6927TIP3    H242197   1.122   4.487  10.913 -1.2438 -0.2114  0.8453
 6928TIP3   OH242198   5.352   4.444  16.958  0.4266 -0.1844 -0.2259
 6928TIP3    H142199   5.408   4.471  16.886  0.3076 -1.2524 -0.7321
 6928TIP3    H242200   5.379   4.355  16.979 -1.1275 -0.7828 -0.5702
 6929TIP3   OH242201   1.208   6.129   5.283  0.8838 -0.4289 -0.0199
 6929TIP3    H142202   1.219   6.160   5.193  1.5237 -2.3092 -0.6254
 6929TIP3    H242203   1.296   6.105   5.311  0.4708 -1.2898  0.5592
 6930TIP3   OH242204   1.292   3.790   4.452  0.0605  0.2071 -0.7208
 6930TIP3    H142205   1.197   3.781   4.455  0.1427 -1.3600  3.0306
 6930TIP3    H242206   1.308   3.880   4.481 -0.2789  0.1179 -0.2431
 6931TIP3   OH242207   4.963   3.569   2.763 -0.9955  0.0138 -0.0562
 6931TIP3    H142208   5.054   3.598   2.758 -1.2605  0.9389  0.3568
 6931TIP3    H242209   4.920   3.632   2.820 -1.5312 -1.3774  1.1391
 6932TIP3   OH242210   6.605   1.505  15.845  0.1422  0.3163 -0.3940
 6932TIP3    H142211   6.611   1.461  15.760  1.0234  1.9882 -1.2469
 6932TIP3    H242212   6.623   1.597  15.825  0.5170  0.7211  1.6384
 6933TIP3   OH242213   1.359   1.009   5.692 -0.0355 -0.0506 -0.0452
 6933TIP3    H142214   1.313   0.985   5.772  0.4416  0.7175  0.4776
 6933TIP3    H242215   1.336   0.941   5.629 -1.0421 -0.2455  0.5110
 6934TIP3   OH242216   5.648   3.282   1.758 -0.0198 -0.0197 -0.4199
 6934TIP3    H142217   5.553   3.276   1.744 -0.2708  1.2096  0.5999
 6934TIP3    H242218   5.685   3.218   1.697 -1.6411 -2.2437  0.7797
 6935TIP3   OH242219   1.182   0.071   3.372 -0.2062  0.0661  0.3973
 6935TIP3    H142220   1.098   0.049   3.411 -1.1270 -0.1136 -1.5979
 6935TIP3    H242221   1.242   0.079   3.447 -1.8068 -0.5422  1.7917
 6936TIP3   OH242222   3.440   3.660   4.904  0.0224 -0.7949  0.3674
 6936TIP3    H142223   3.374   3.648   4.836 -0.0826 -0.9683  0.5008
 6936TIP3    H242224   3.457   3.755   4.904  2.2309 -1.0504 -1.9858
 6937TIP3   OH242225   5.046   5.175   2.832 -0.0803  0.3077 -0.0270
 6937TIP3    H142226   5.139   5.164   2.812 -0.5499 -0.4345 -2.0658
 6937TIP3    H242227   5.043   5.252   2.889  1.8595 -0.3739  1.1092
 6938TIP3   OH242228   5.122   5.867   3.178  0.1761 -0.2530 -0.3392
 6938TIP3    H142229   5.201   5.901   3.136  0.2424  0.5195  0.3804
 6938TIP3    H242230   5.151   5.839   3.265 -0.1587 -0.8486 -0.4161
 6939TIP3   OH242231   4.830   5.535   3.630  0.6844  0.1783  0.2663
 6939TIP3    H142232   4.741   5.520   3.661  0.7503 -0.2034  0.2808
 6939TIP3    H242233   4.855   5.452   3.589  0.9156  0.3917 -0.0209
 6940TIP3   OH242234   3.540   2.683   4.880 -0.8281  0.0480  0.3415
 6940TIP3    H142235   3.445   2.687   4.864 -0.9224 -2.7682 -0.4366
 6940TIP3    H242236   3.579   2.681   4.793 -0.0066  1.3574  0.6581
 6941TIP3   OH242237   3.257   1.152  14.918 -0.1542  0.2908  0.5441
 6941TIP3    H142238   3.277   1.068  14.877 -1.2546 -0.3837  1.3204
 6941TIP3    H242239   3.305   1.217  14.867  0.1006 -0.7300 -0.5367
 6942TIP3   OH242240   0.769   4.145   3.056  0.0415 -0.5628  0.0062
 6942TIP3    H142241   0.820   4.124   2.978 -0.1226 -0.1956 -0.2030
 6942TIP3    H242242   0.777   4.240   3.065 -2.8209 -0.0541 -1.6400
 6943TIP3   OH242243   6.085   4.150  16.808 -0.3185 -0.0090  0.6174
 6943TIP3    H142244   6.130   4.067  16.823 -1.6502 -1.2730 -1.8312
 6943TIP3    H242245   6.156   4.213  16.796  0.7743 -1.3440 -0.2392
 6944TIP3   OH242246   5.111   2.927  15.673  0.8327 -0.2226 -0.5978
 6944TIP3    H142247   5.043   2.898  15.614 -0.6411  2.2811 -0.2801
 6944TIP3    H242248   5.181   2.960  15.616  0.0911  0.7350 -0.9749
 6945TIP3   OH242249   1.716   6.423   4.127 -0.2917 -0.3018 -0.1047
 6945TIP3    H142250   1.690   6.511   4.100  1.0929  1.2105  2.9066
 6945TIP3    H242251   1.722   6.429   4.223  0.9972 -3.3528  0.1079
 6946TIP3   OH242252   0.020   5.394  16.501 -0.1393 -0.4682  0.2540
 6946TIP3    H142253   0.052   5.433  16.582 -0.5383  0.3759  0.0200
 6946TIP3    H242254  -0.020   5.466  16.454 -2.0971 -1.4040  0.3874
 6947TIP3   OH242255   2.975   3.250  11.441  0.4105 -0.7332 -0.3735
 6947TIP3    H142256   2.959   3.265  11.534  0.4250 -0.5636 -0.3978
 6947TIP3    H242257   3.028   3.170  11.438 -0.2134 -1.1658 -0.2774
 6948TIP3   OH242258   0.206   5.350  14.890  0.0699  0.1856 -0.4375
 6948TIP3    H142259   0.114   5.378  14.892 -0.0857 -0.2278 -1.3250
 6948TIP3    H242260   0.231   5.345  14.982 -0.2925  1.9307 -0.1995
 6949TIP3   OH242261   5.013   3.184   3.385 -0.8426  0.1222 -0.0527
 6949TIP3    H142262   4.987   3.118   3.320 -1.0238  0.8814 -0.7703
 6949TIP3    H242263   4.944   3.250   3.380 -1.4476 -0.3113  1.7086
 6950TIP3   OH242264   6.212   0.774  12.649  1.0922 -0.2483 -0.0856
 6950TIP3    H142265   6.289   0.740  12.602  0.0312  0.5366 -2.5826
 6950TIP3    H242266   6.140   0.718  12.619 -0.1495  2.1111 -1.8772
 6951TIP3   OH242267   3.867   1.887   5.776  0.0040  0.5433  0.2331
 6951TIP3    H142268   3.824   1.874   5.861 -1.6894  1.7533 -0.3706
 6951TIP3    H242269   3.838   1.813   5.723 -0.7509  0.9285  0.0803
 6952TIP3   OH242270   0.256   3.637  14.877 -0.0891  0.3090  0.2550
 6952TIP3    H142271   0.350   3.654  14.866  0.1683 -1.7112 -1.3369
 6952TIP3    H242272   0.214   3.699  14.817  0.3719  0.0611 -0.3424
 6953TIP3   OH242273   2.782   6.588   2.161 -0.3876 -0.2770 -0.2664
 6953TIP3    H142274   2.792   6.591   2.256 -2.7022 -0.4123  0.0392
 6953TIP3    H242275   2.867   6.618   2.127  0.2276  0.5616  1.8273
 6954TIP3   OH242276   2.152   1.772   0.486 -0.5680 -0.6625  0.2939
 6954TIP3    H142277   2.218   1.705   0.507 -1.1367 -1.0115  1.0155
 6954TIP3    H242278   2.121   1.802   0.571  0.5937  1.4804  0.0408
 6955TIP3   OH242279   2.670   5.110   1.768  0.2427 -0.9013 -0.6998
 6955TIP3    H142280   2.687   5.069   1.683  1.2254 -3.4959  0.6359
 6955TIP3    H242281   2.596   5.062   1.804  0.6243 -0.6945  0.4096
 6956TIP3   OH242282   5.745   4.327  14.990  0.4232  0.1266  0.3424
 6956TIP3    H142283   5.813   4.260  14.983  0.2369 -0.0751  0.4701
 6956TIP3    H242284   5.664   4.278  15.006  0.4426  0.4338  1.4699
 6957TIP3   OH242285   1.771   1.329  12.903 -0.5208  0.1778  0.3013
 6957TIP3    H142286   1.801   1.247  12.944  0.5625 -0.6291 -1.9282
 6957TIP3    H242287   1.851   1.367  12.867 -1.3624  0.9886 -0.7593
 6958TIP3   OH242288   3.429   5.161   4.733 -0.4277 -0.7261 -0.2358
 6958TIP3    H142289   3.386   5.148   4.648 -0.8217  3.3053 -0.8499
 6958TIP3    H242290   3.358   5.189   4.792  0.3365 -0.3371  0.5286
 6959TIP3   OH242291   4.099   5.513   0.623 -0.1055 -0.1768 -0.5756
 6959TIP3    H142292   4.129   5.599   0.651 -1.0792 -0.0835  0.2453
 6959TIP3    H242293   4.014   5.502   0.666 -0.4181 -1.1649 -1.3936
 6960TIP3   OH242294   2.249   1.298   0.358 -0.4042 -0.0430  0.1814
 6960TIP3    H142295   2.167   1.315   0.310 -0.2597 -2.3711 -1.0165
 6960TIP3    H242296   2.222   1.243   0.432 -0.1334  0.6628  0.8183
 6961TIP3   OH242297   5.198   3.411  17.199 -0.3761 -0.1405 -0.2066
 6961TIP3    H142298   5.226   3.499  17.221  1.5045 -0.5410 -0.8096
 6961TIP3    H242299   5.203   3.407  17.103 -0.7883 -0.7980 -0.2115
 6962TIP3   OH242300   5.845   4.134  16.962 -0.1187 -0.3133 -0.8098
 6962TIP3    H142301   5.923   4.130  16.907 -0.0833  0.2328 -0.8054
 6962TIP3    H242302   5.842   4.225  16.993  0.8956 -1.0170  1.5915
 6963TIP3   OH242303   1.726   2.420   1.364 -0.3208  1.1358 -0.0085
 6963TIP3    H142304   1.635   2.411   1.334 -0.0387  0.2873 -0.6568
 6963TIP3    H242305   1.746   2.336   1.404  0.7301  0.6508 -1.4511
 6964TIP3   OH242306   1.024   5.253  16.635  0.2120  0.2798 -0.4335
 6964TIP3    H142307   1.064   5.307  16.567  0.2824 -1.1687 -1.5886
 6964TIP3    H242308   0.948   5.213  16.593  0.0810 -0.4245  0.4212
 6965TIP3   OH242309   1.989   4.254   4.842  0.8166 -0.7684 -0.1233
 6965TIP3    H142310   1.933   4.249   4.765  1.0288  0.8507 -0.4285
 6965TIP3    H242311   1.967   4.176   4.893 -0.1754 -1.2584 -1.2495
 6966TIP3   OH242312   5.071   0.094   5.386 -0.6716 -0.2500 -0.3324
 6966TIP3    H142313   5.010   0.125   5.453 -2.2839 -2.1854 -0.8026
 6966TIP3    H242314   5.050   0.146   5.309 -1.2239 -0.3729 -0.2720
 6967TIP3   OH242315   4.050   4.738   1.336  0.7226  0.0120 -0.5306
 6967TIP3    H142316   3.976   4.700   1.288 -0.6676  0.7557  0.9357
 6967TIP3    H242317   4.057   4.827   1.302 -0.7187  0.7752  1.0532
 6968TIP3   OH242318   2.318   1.978  12.754 -0.4292  0.0853  0.0935
 6968TIP3    H142319   2.361   2.059  12.725  0.0626  0.5785  2.0565
 6968TIP3    H242320   2.339   1.914  12.687  3.0064  0.4303  0.6885
 6969TIP3   OH242321   5.356   1.128  14.952  0.4064 -0.1043 -0.0776
 6969TIP3    H142322   5.361   1.059  14.886  1.1186 -0.6100  0.4933
 6969TIP3    H242323   5.441   1.172  14.947 -0.2856  1.2248 -0.9323
 6970TIP3   OH242324   2.429   4.770  16.736 -0.4658 -0.1338 -0.4600
 6970TIP3    H142325   2.431   4.686  16.691  1.1344 -1.7758  2.3641
 6970TIP3    H242326   2.517   4.806  16.723 -0.6401  0.3532 -0.3194
 6971TIP3   OH242327   1.712   3.666   6.281 -0.4038  1.1454 -0.0768
 6971TIP3    H142328   1.727   3.582   6.324  1.2117 -0.1028 -2.7428
 6971TIP3    H242329   1.636   3.703   6.325 -1.3018 -1.7925  1.1056
 6972TIP3   OH242330   2.116   2.310   1.663 -0.4353 -0.1771  0.1154
 6972TIP3    H142331   2.025   2.339   1.669 -0.0854  0.7090  1.7417
 6972TIP3    H242332   2.121   2.265   1.579 -2.2830  0.0590 -0.1701
 6973TIP3   OH242333   4.952   5.456   2.665 -0.0427  0.7077  0.0459
 6973TIP3    H142334   4.933   5.374   2.620 -0.6406  1.4816 -1.1579
 6973TIP3    H242335   4.881   5.515   2.640  0.3865  1.6040  0.8687
 6974TIP3   OH242336   3.515   2.994  17.347 -0.2643  0.7354  0.1428
 6974TIP3    H142337   3.498   2.904  17.317  1.5058  0.3992  0.0566
 6974TIP3    H242338   3.506   3.048  17.269  1.8690  0.1789 -0.5460
 6975TIP3   OH242339   1.558   5.346   1.851  0.4239  0.0753 -0.5648
 6975TIP3    H142340   1.552   5.442   1.848  0.5948  0.0716 -1.4883
 6975TIP3    H242341   1.534   5.323   1.941  1.4527  1.0581 -0.0137
 6976TIP3   OH242342   2.783   6.569  11.824  0.3906  0.0560 -0.1069
 6976TIP3    H142343   2.779   6.581  11.919 -2.4109  0.4919 -0.1896
 6976TIP3    H242344   2.745   6.482  11.810  1.5036 -0.3384 -0.8122
 6977TIP3   OH242345   0.195   6.327   3.042 -0.0296 -0.7809 -0.2827
 6977TIP3    H142346   0.221   6.255   3.100 -0.9788 -1.3438 -0.5379
 6977TIP3    H242347   0.153   6.284   2.967 -0.9411  0.0452 -0.2679
 6978TIP3   OH242348   6.158   2.558  17.273 -0.9048  0.2634  0.5331
 6978TIP3    H142349   6.163   2.575  17.367  2.0543  1.0372  0.3538
 6978TIP3    H242350   6.091   2.618  17.241 -3.4339 -1.3960  2.3218
 6979TIP3   OH242351   1.015   1.662  14.487  0.1014 -0.5878 -0.0835
 6979TIP3    H142352   1.107   1.672  14.509 -0.1155  1.8441 -0.0011
 6979TIP3    H242353   1.008   1.693  14.397 -0.9973  2.1528  0.8199
 6980TIP3   OH242354   5.272   0.469   3.624  0.2176 -0.4822 -0.1336
 6980TIP3    H142355   5.345   0.444   3.681 -0.7470  1.3017  1.9945
 6980TIP3    H242356   5.215   0.392   3.622 -0.3260 -0.2233  2.3627
 6981TIP3   OH242357   5.973   5.577   1.003 -0.2348  0.1274  0.1221
 6981TIP3    H142358   5.893   5.550   1.047  0.5436  0.3693  1.7471
 6981TIP3    H242359   6.034   5.598   1.074  1.3478 -0.2741 -1.0536
 6982TIP3   OH242360   4.425   4.675  12.260  0.9662  0.4365  0.4138
 6982TIP3    H142361   4.402   4.767  12.245 -0.0582 -0.0260 -0.9861
 6982TIP3    H242362   4.364   4.645  12.327  1.7076  0.9063  1.3394
 6983TIP3   OH242363   6.325   2.539  14.662  0.4884 -0.4798 -0.0003
 6983TIP3    H142364   6.372   2.614  14.700 -0.1074 -0.1917  0.1853
 6983TIP3    H242365   6.276   2.502  14.736  0.0059 -0.4487 -0.3015
 6984TIP3   OH242366   3.607   4.456  15.592 -0.6314 -0.4754 -0.7381
 6984TIP3    H142367   3.522   4.441  15.633 -0.6450  0.3538 -0.4434
 6984TIP3    H242368   3.612   4.391  15.523 -1.4104 -0.6766 -0.6169
 6985TIP3   OH242369   4.923   3.272   4.028 -0.4905 -0.0971 -0.2039
 6985TIP3    H142370   4.896   3.358   3.996  0.2154 -0.1789 -1.0645
 6985TIP3    H242371   4.856   3.247   4.092  0.2536  1.8772  1.4475
 6986TIP3   OH242372   3.877   0.080  13.542 -0.1251  0.2867 -0.0181
 6986TIP3    H142373   3.784   0.085  13.524  0.0862 -0.6196 -1.4529
 6986TIP3    H242374   3.896  -0.013  13.550  0.5609  0.4804  0.9091
 6987TIP3   OH242375   1.113   1.312   6.646 -0.1929  0.5190 -0.0271
 6987TIP3    H142376   1.020   1.293   6.650  0.1356 -1.7684 -1.1995
 6987TIP3    H242377   1.128   1.341   6.556  0.3774 -0.2221 -0.1840
 6988TIP3   OH242378   1.468   6.728  11.441  0.0732  0.4157  0.3963
 6988TIP3    H142379   1.542   6.750  11.385  1.2858 -0.1317  1.7332
 6988TIP3    H242380   1.495   6.649  11.486 -1.0695  0.5694  1.3879
 6989TIP3   OH242381   1.395   4.488   1.162 -0.4311 -0.0155  0.5471
 6989TIP3    H142382   1.319   4.499   1.219 -0.9310  0.7173 -0.2403
 6989TIP3    H242383   1.408   4.574   1.122 -1.1522 -0.9255 -1.7485
 6990TIP3   OH242384   0.166   5.463  13.751 -0.8422  0.1620  0.6093
 6990TIP3    H142385   0.189   5.521  13.679  1.4490 -2.1180 -0.6582
 6990TIP3    H242386   0.106   5.398  13.712 -0.2677 -0.5884  0.9439
 6991TIP3   OH242387   0.670   0.660  12.904 -0.1719  0.2504 -0.1492
 6991TIP3    H142388   0.607   0.588  12.911  0.5275 -0.4384 -0.7807
 6991TIP3    H242389   0.755   0.617  12.898  0.5285  1.1952  2.0878
 6992TIP3   OH242390   6.079   6.695  16.900  0.0497  0.2351 -0.1156
 6992TIP3    H142391   6.138   6.758  16.860  0.4647  0.3649  0.6693
 6992TIP3    H242392   6.024   6.747  16.959 -0.9415  0.1312 -0.9109
 6993TIP3   OH242393   6.580   6.354  14.069  0.4405  0.8457  0.0633
 6993TIP3    H142394   6.648   6.316  14.125  1.0919  0.6892 -0.8061
 6993TIP3    H242395   6.570   6.444  14.101 -0.7683  0.1375  1.8240
 6994TIP3   OH242396   0.935   4.006   2.171  0.5888  0.0499  0.1513
 6994TIP3    H142397   1.012   3.951   2.157 -0.6563 -1.3511 -1.7492
 6994TIP3    H242398   0.908   4.031   2.082 -0.4045  1.5741  0.8507
 6995TIP3   OH242399   1.569   0.234  12.975  0.1675  0.9642 -0.0003
 6995TIP3    H142400   1.615   0.316  12.959  0.3098  0.8714 -0.0682
 6995TIP3    H242401   1.509   0.225  12.901 -0.2672  1.2970  0.3047
 6996TIP3   OH242402   0.782   4.145  15.517  0.0820 -0.7825 -0.3700
 6996TIP3    H142403   0.833   4.076  15.559  0.6165 -0.8288 -1.0857
 6996TIP3    H242404   0.763   4.111  15.430 -0.5941 -0.4777 -0.3493
 6997TIP3   OH242405   1.111   6.543   1.889 -0.2381  0.0499 -0.0556
 6997TIP3    H142406   1.203   6.535   1.864  0.0756 -0.7803  1.2581
 6997TIP3    H242407   1.114   6.575   1.980 -1.2132 -0.7857  0.2852
 6998TIP3   OH242408   4.069   1.670   3.949  0.0085  0.8140  0.6226
 6998TIP3    H142409   4.071   1.623   3.866 -0.3410  0.4117  0.8408
 6998TIP3    H242410   4.137   1.737   3.940 -1.1046  1.8064 -0.5905
 6999TIP3   OH242411   5.282   3.059   4.253 -0.4435 -0.1167  0.4866
 6999TIP3    H142412   5.188   3.047   4.237 -0.3593 -0.1808  0.0177
 6999TIP3    H242413   5.319   2.972   4.245  0.0589  0.2418 -2.1848
 7000TIP3   OH242414   2.360   4.609  15.340 -0.0028  0.3801  0.2185
 7000TIP3    H142415   2.315   4.558  15.273  0.2938 -1.0447  1.0597
 7000TIP3    H242416   2.450   4.613  15.311  0.2190 -0.6201  0.7128
 7001TIP3   OH242417   2.437   3.638  14.864 -0.8142  0.3988  0.0131
 7001TIP3    H142418   2.413   3.593  14.945  0.3312 -2.3469 -1.0442
 7001TIP3    H242419   2.365   3.618  14.804 -0.4159  0.1932 -0.3961
 7002TIP3   OH242420   4.340   3.733   4.130  0.5617 -0.2010 -0.5692
 7002TIP3    H142421   4.285   3.783   4.190  2.1848 -0.7971  1.5159
 7002TIP3    H242422   4.422   3.781   4.126  0.2764  0.2440 -3.0169
 7003TIP3   OH242423   2.260   6.177   1.902  0.4200  0.0674 -0.0993
 7003TIP3    H142424   2.297   6.143   1.821 -0.2554  0.6043 -0.6403
 7003TIP3    H242425   2.214   6.102   1.941  1.9920 -0.6013  0.5677
 7004TIP3   OH242426   3.011   1.827   4.078 -0.3716 -0.3773 -0.2922
 7004TIP3    H142427   3.045   1.914   4.061  0.0189 -0.5248 -0.2700
 7004TIP3    H242428   3.040   1.774   4.004 -1.5838 -0.2327 -0.9001
 7005TIP3   OH242429   6.156   5.028  12.945  0.2140  0.4073 -0.5993
 7005TIP3    H142430   6.099   5.079  13.003  1.3126  1.3484 -0.3037
 7005TIP3    H242431   6.172   5.086  12.871 -0.3752 -0.4112 -1.3857
 7006TIP3   OH242432   6.561   4.850  16.425  0.2023 -0.2514  0.3138
 7006TIP3    H142433   6.475   4.881  16.395 -0.2948 -0.4205  1.5116
 7006TIP3    H242434   6.619   4.925  16.414 -0.2728  0.1129  0.2336
 7007TIP3   OH242435   3.704   5.104  12.996  0.3667  0.7398 -0.1208
 7007TIP3    H142436   3.789   5.147  12.988  1.5490 -1.5884 -0.9605
 7007TIP3    H242437   3.708   5.059  13.079 -0.5460  1.5293  0.3749
 7008TIP3   OH242438   4.492   0.432  10.716 -0.0873 -0.4760 -0.6289
 7008TIP3    H142439   4.537   0.348  10.716 -0.0837 -0.5538 -3.1583
 7008TIP3    H242440   4.500   0.464  10.626 -4.2165 -0.0263 -1.0437
 7009TIP3   OH242441   4.857   5.377  14.234 -0.5694 -0.3528  0.8959
 7009TIP3    H142442   4.875   5.288  14.267  0.4638  0.4263  2.5907
 7009TIP3    H242443   4.941   5.422  14.242 -1.0509  0.7385 -0.1015
 7010TIP3   OH242444   5.725   6.568   1.443  0.2952  0.1414 -0.9074
 7010TIP3    H142445   5.773   6.625   1.503 -0.6091  1.7480 -1.6606
 7010TIP3    H242446   5.780   6.562   1.365  0.1755  0.3790 -1.0108
 7011TIP3   OH242447   5.441   6.051  16.658 -0.5942  0.0848  0.2455
 7011TIP3    H142448   5.523   6.100  16.654  0.2691 -1.3201  0.0497
 7011TIP3    H242449   5.423   6.028  16.567 -0.8318 -0.1981  0.3628
 7012TIP3   OH242450   5.699   1.850  10.803  0.1264  0.2045  0.3071
 7012TIP3    H142451   5.689   1.928  10.858  0.6281 -0.2471  1.0613
 7012TIP3    H242452   5.617   1.844  10.753 -0.5352  0.3708  1.3459
 7013TIP3   OH242453   4.911   1.669   1.570 -0.8502  0.3862  0.3450
 7013TIP3    H142454   4.906   1.642   1.662 -0.7411  1.0281  0.5414
 7013TIP3    H242455   4.932   1.762   1.573  1.5349 -0.0749 -0.3489
 7014TIP3   OH242456   0.817   3.365  13.282  0.6121  0.2055  0.2912
 7014TIP3    H142457   0.900   3.316  13.275  0.3123 -0.2415 -0.1788
 7014TIP3    H242458   0.844   3.456  13.291  1.2233 -0.1153  2.3488
 7015TIP3   OH242459   2.406   1.936  12.266  0.2372  0.1961 -0.4372
 7015TIP3    H142460   2.470   1.964  12.201 -0.7826  1.6443 -0.8751
 7015TIP3    H242461   2.347   2.011  12.275  0.5330  0.1765  2.4099
 7016TIP3   OH242462   6.552   4.290   3.965 -0.0257  0.2546  0.2032
 7016TIP3    H142463   6.461   4.310   3.943  0.1800  1.6605  0.5539
 7016TIP3    H242464   6.576   4.355   4.031  1.2466 -0.0705  0.0862
 7017TIP3   OH242465   3.272   2.285  15.243  0.3860 -0.1590 -0.3910
 7017TIP3    H142466   3.206   2.219  15.264 -0.0453  1.1109  2.7713
 7017TIP3    H242467   3.225   2.347  15.186 -0.7382 -0.0401  0.6244
 7018TIP3   OH242468   0.883   2.313  12.244  0.1082 -0.3890  0.4149
 7018TIP3    H142469   0.978   2.304  12.237  0.2969 -1.3776  3.0524
 7018TIP3    H242470   0.853   2.229  12.277 -1.7067 -0.0780 -0.3040
 7019TIP3   OH242471   5.877   4.436   2.416  0.5453 -0.4067 -0.4973
 7019TIP3    H142472   5.876   4.365   2.482  0.2140  1.1917  1.3175
 7019TIP3    H242473   5.895   4.515   2.467 -1.9067  1.2317 -1.9950
 7020TIP3   OH242474   4.567   2.158   4.376 -0.1453 -0.4687 -0.1112
 7020TIP3    H142475   4.549   2.181   4.284 -0.9586 -2.5899 -0.5339
 7020TIP3    H242476   4.518   2.223   4.426 -0.7155 -0.0327 -1.1804
 7021TIP3   OH242477   0.113   5.017   2.405  0.0783  0.4237 -0.1493
 7021TIP3    H142478   0.163   4.938   2.383 -0.1175  0.4518 -0.6976
 7021TIP3    H242479   0.021   4.990   2.397 -0.0341  0.1285  1.7018
 7022TIP3   OH242480   2.264   6.673   5.293  0.0176 -0.0921  0.2561
 7022TIP3    H142481   2.269   6.592   5.343 -2.2134 -1.2111 -1.1761
 7022TIP3    H242482   2.352   6.685   5.258  0.4329 -1.7846  0.6457
 7023TIP3   OH242483   6.607   0.415  13.557 -0.1269 -0.5571  0.5211
 7023TIP3    H142484   6.532   0.417  13.615 -0.0063 -1.7274  0.7262
 7023TIP3    H242485   6.579   0.364  13.481  0.1345 -0.1246  0.1192
 7024TIP3   OH242486   5.890   0.649  13.902  0.1090  1.0975 -0.2446
 7024TIP3    H142487   5.922   0.642  13.812 -0.2054  2.2450 -0.4543
 7024TIP3    H242488   5.969   0.668  13.953  0.6058 -1.3069  0.0246
 7025TIP3   OH242489   0.527   3.861  17.005 -0.0261 -0.1542  0.1298
 7025TIP3    H142490   0.447   3.846  17.054  0.5329 -0.5437  0.9464
 7025TIP3    H242491   0.562   3.773  16.988  0.1998  0.0085 -0.2776
 7026TIP3   OH242492   3.341   1.238   3.577 -0.3327 -0.0991 -0.3521
 7026TIP3    H142493   3.255   1.204   3.603  0.4363 -1.1536  0.9790
 7026TIP3    H242494   3.379   1.269   3.659  0.1725  1.2790 -1.0919
 7027TIP3   OH242495   0.009   5.588   5.208 -0.1765  0.0758 -0.2731
 7027TIP3    H142496   0.059   5.578   5.289 -1.3483 -0.1017  0.4432
 7027TIP3    H242497   0.009   5.682   5.192 -0.8902  0.2350  0.5679
 7028TIP3   OH242498   3.642   6.175   1.031  0.0050  0.0213  0.6536
 7028TIP3    H142499   3.666   6.211   0.946 -0.1063 -1.3300  0.0205
 7028TIP3    H242500   3.548   6.161   1.026 -0.0287  0.0797  1.0636
 7029TIP3   OH242501   1.055   5.905  14.367 -0.2735  0.1256 -0.1808
 7029TIP3    H142502   1.009   5.823  14.350  0.3816  0.0261 -1.6000
 7029TIP3    H242503   1.096   5.893  14.452  0.0281 -1.1270 -0.4822
 7030TIP3   OH242504   1.280   6.466   0.225  0.0588  0.1177  0.4187
 7030TIP3    H142505   1.324   6.381   0.230  1.1111  0.7037  2.3642
 7030TIP3    H242506   1.258   6.477   0.133  0.9007 -1.7657 -0.0463
 7031TIP3   OH242507   0.143   3.863   2.001 -0.1724  0.0259 -0.3006
 7031TIP3    H142508   0.151   3.889   2.093 -0.0678  2.1453 -0.8688
 7031TIP3    H242509   0.096   3.780   2.004  1.5247 -0.9670  1.7649
 7032TIP3   OH242510   1.201   2.639  17.129  0.3968 -0.5129  0.3489
 7032TIP3    H142511   1.227   2.730  17.116 -0.3413 -0.2557  0.5884
 7032TIP3    H242512   1.222   2.596  17.047 -0.0687  0.0753 -0.0864
 7033TIP3   OH242513   3.389   1.941  13.066 -0.3583 -0.3636 -0.5135
 7033TIP3    H142514   3.303   1.969  13.035 -0.4505 -0.9958 -0.8212
 7033TIP3    H242515   3.372   1.903  13.152 -0.3919 -0.5256 -0.5916
 7034TIP3   OH242516   4.896   0.014  16.597 -0.7545 -0.1706 -0.4786
 7034TIP3    H142517   4.954   0.087  16.576 -2.3202  1.4344  0.4271
 7034TIP3    H242518   4.832   0.014  16.525 -0.1768 -1.3552 -1.0169
 7035TIP3   OH242519   5.761   2.492  14.681  0.2290  0.2555  0.1573
 7035TIP3    H142520   5.804   2.424  14.734  0.8873 -0.0229 -0.7048
 7035TIP3    H242521   5.677   2.455  14.657  0.0075  0.3064  0.8435
 7036TIP3   OH242522   2.953   4.613   3.148  0.3465 -0.1940 -0.1870
 7036TIP3    H142523   2.970   4.642   3.237 -0.7326  1.2530 -0.4038
 7036TIP3    H242524   2.900   4.534   3.158  1.8551 -1.1819  0.4217
 7037TIP3   OH242525   4.813   3.949   5.615  0.2942 -0.1028  0.2614
 7037TIP3    H142526   4.733   3.896   5.617 -1.0514  1.8284  0.9099
 7037TIP3    H242527   4.859   3.925   5.695  0.8003 -1.8051 -0.5024
 7038TIP3   OH242528   2.818   1.014   2.848 -0.4923 -0.5702 -0.3576
 7038TIP3    H142529   2.727   0.985   2.857 -0.1048 -1.5075  0.9567
 7038TIP3    H242530   2.837   1.057   2.931  1.2004 -3.2993  0.8025
 7039TIP3   OH242531   3.808   1.711   1.961  0.0726 -0.0678 -0.2690
 7039TIP3    H142532   3.848   1.771   1.898  1.0248  0.0824  0.4405
 7039TIP3    H242533   3.883   1.674   2.008 -0.6125 -0.1557  0.7770
 7040TIP3   OH242534   6.399   0.506   4.760  0.2957  0.6617  0.1318
 7040TIP3    H142535   6.486   0.475   4.733  0.5097  0.6299  0.8436
 7040TIP3    H242536   6.343   0.487   4.684  0.6906 -0.2856  0.0546
 7041TIP3   OH242537   0.135   4.678   4.228 -0.6135  0.1779 -0.5964
 7041TIP3    H142538   0.062   4.697   4.169 -1.5229 -1.2334  0.0292
 7041TIP3    H242539   0.105   4.708   4.314 -1.3634 -2.1960  0.0657
 7042TIP3   OH242540   4.316   2.444   1.500  0.2661 -0.5806 -0.2177
 7042TIP3    H142541   4.282   2.413   1.416 -1.6203 -1.7563  0.8878
 7042TIP3    H242542   4.346   2.533   1.483 -0.5160 -0.6197 -2.0207
 7043TIP3   OH242543   5.614   5.418  13.591 -0.0035 -0.0246  0.2976
 7043TIP3    H142544   5.527   5.430  13.629 -0.0627 -2.3595  1.0632
 7043TIP3    H242545   5.618   5.324  13.569  0.9436  0.6959 -3.2864
 7044TIP3   OH242546   4.410   0.441   2.827 -0.0352 -0.0125  0.4932
 7044TIP3    H142547   4.449   0.397   2.902  1.3924  0.4261  0.0297
 7044TIP3    H242548   4.323   0.400   2.818 -0.1243 -0.2707  2.1852
 7045TIP3   OH242549   0.189   0.594   3.034 -0.5171 -0.0630  0.2445
 7045TIP3    H142550   0.276   0.585   2.994  0.7060  1.8267  2.2457
 7045TIP3    H242551   0.128   0.577   2.962  1.4987 -0.9320 -1.3637
 7046TIP3   OH242552   5.362   1.077   2.272 -0.1167 -0.3438 -0.5858
 7046TIP3    H142553   5.412   1.094   2.192 -0.8886  1.8033 -0.6989
 7046TIP3    H242554   5.328   0.988   2.261  1.5685 -0.8936 -1.6322
 7047TIP3   OH242555   5.859   5.827   5.303  0.6384 -0.1807  0.5681
 7047TIP3    H142556   5.929   5.849   5.242  1.3601 -0.3153  1.3328
 7047TIP3    H242557   5.872   5.886   5.377  0.2922 -0.5894  0.9647
 7048TIP3   OH242558   2.067   4.073   1.265 -0.5022 -0.7784  1.0802
 7048TIP3    H142559   2.068   4.130   1.188  0.2444 -0.0838  1.5908
 7048TIP3    H242560   1.977   4.039   1.268 -0.3235 -1.5362 -0.6026
 7049TIP3   OH242561   2.702   1.746  13.737  0.4237  0.7036 -0.0633
 7049TIP3    H142562   2.689   1.801  13.660 -1.6792  0.3172 -0.0461
 7049TIP3    H242563   2.624   1.691  13.741  0.2151  1.0467  2.6154
 7050TIP3   OH242564   2.682   1.822   4.977 -0.4333  0.4418  0.5903
 7050TIP3    H142565   2.741   1.758   5.017  1.3609  1.6264 -0.0520
 7050TIP3    H242566   2.597   1.803   5.015  0.7999  0.2460  3.4651
 7051TIP3   OH242567   4.088   3.103  11.427 -0.5388 -0.2046 -0.7064
 7051TIP3    H142568   4.002   3.092  11.386 -0.4603 -2.5982 -0.3707
 7051TIP3    H242569   4.125   3.015  11.430  1.7541  0.6877 -0.4040
 7052TIP3   OH242570   2.478   5.600   4.725 -0.6580  0.0790 -0.3602
 7052TIP3    H142571   2.478   5.688   4.688 -0.7599 -1.1204 -3.5239
 7052TIP3    H242572   2.400   5.559   4.688 -0.4411 -1.4516  0.7899
 7053TIP3   OH242573   4.649   6.707  15.035 -0.2878  1.1176 -0.0540
 7053TIP3    H142574   4.684   6.618  15.024 -1.6603 -0.0347  3.4239
 7053TIP3    H242575   4.724   6.764  15.021  1.2897 -0.7855  0.1741
 7054TIP3   OH242576   4.294   4.396  16.824 -0.1018  0.4941 -0.0418
 7054TIP3    H142577   4.347   4.399  16.745  1.6240 -0.7634  0.9825
 7054TIP3    H242578   4.333   4.462  16.882 -0.5204  0.5122  0.2283
 7055TIP3   OH242579   2.170   1.686  13.667  0.0136 -0.2135 -0.2030
 7055TIP3    H142580   2.077   1.661  13.663  0.1492 -0.8321  0.3255
 7055TIP3    H242581   2.198   1.684  13.575 -0.5668  0.2635 -0.3969
 7056TIP3   OH242582   5.767   1.305  17.034  0.5388  0.2391 -0.0616
 7056TIP3    H142583   5.784   1.395  17.064 -0.0574  0.0700  0.7975
 7056TIP3    H242584   5.844   1.256  17.062  0.5807  0.3501  0.0182
 7057TIP3   OH242585   5.461   2.459   3.479  0.0303  0.5668  0.3458
 7057TIP3    H142586   5.375   2.492   3.505  0.0695  1.1304 -0.2327
 7057TIP3    H242587   5.442   2.391   3.415  0.0523  2.6336 -2.0061
 7058TIP3   OH242588   4.613   2.127   2.812  0.0708  0.3475  0.0367
 7058TIP3    H142589   4.576   2.209   2.846 -1.3495 -0.6983  1.0990
 7058TIP3    H242590   4.691   2.155   2.763 -0.5506  2.3579  0.1011
 7059TIP3   OH242591   1.645   2.563  13.154 -0.3286  0.5495 -0.6194
 7059TIP3    H142592   1.605   2.513  13.083 -0.7770 -0.1483  0.1027
 7059TIP3    H242593   1.629   2.654  13.132 -3.4482  0.3200  0.2115
 7060TIP3   OH242594   0.982   5.050  16.830  0.2072  0.7395  0.5397
 7060TIP3    H142595   1.067   5.013  16.852  0.1154  0.7023  0.8497
 7060TIP3    H242596   1.001   5.125  16.774  0.4493  0.8060  0.7109
 7061TIP3   OH242597   1.908   0.401   2.370  0.0679 -0.1383  0.0205
 7061TIP3    H142598   1.837   0.374   2.427 -1.0552  1.1854 -0.6886
 7061TIP3    H242599   1.908   0.337   2.299  0.5812 -0.9963  0.7709
 7062TIP3   OH242600   0.694   0.182   4.124 -0.0011 -0.0773  0.7628
 7062TIP3    H142601   0.763   0.218   4.070 -0.6624  1.6726  1.0271
 7062TIP3    H242602   0.739   0.121   4.183  1.3247  1.0594  0.9757
 7063TIP3   OH242603   6.227   2.631  12.542  0.3794 -0.0804  0.4295
 7063TIP3    H142604   6.137   2.638  12.574  0.9176  0.4696  1.9046
 7063TIP3    H242605   6.218   2.605  12.450 -1.2562 -0.9665  0.8062
 7064TIP3   OH242606   4.910   2.311  15.714 -0.2972 -0.0569  0.0189
 7064TIP3    H142607   4.846   2.354  15.771 -1.2860  0.7042 -1.5693
 7064TIP3    H242608   4.869   2.313  15.627  2.5793  2.1131 -1.4894
 7065TIP3   OH242609   2.678   1.160   1.382 -0.1528 -0.1826  0.1551
 7065TIP3    H142610   2.699   1.162   1.475  1.4139 -0.5196 -0.1611
 7065TIP3    H242611   2.671   1.253   1.358  0.9021 -0.0397  0.3269
 7066TIP3   OH242612   4.583   5.167   1.586  0.2975  0.2598 -0.4997
 7066TIP3    H142613   4.596   5.259   1.605  1.5026  0.0544 -0.2106
 7066TIP3    H242614   4.580   5.162   1.490 -0.0650  0.6213 -0.5092
 7067TIP3   OH242615   5.947   1.003  16.576 -0.5132 -0.5847  0.6251
 7067TIP3    H142616   6.034   0.995  16.616 -0.0022  0.8340 -0.1233
 7067TIP3    H242617   5.960   0.979  16.484 -0.1558  2.5318 -0.2635
 7068TIP3   OH242618   5.094   6.439  13.046  0.6105  0.2737 -0.0106
 7068TIP3    H142619   5.107   6.349  13.016  1.8159  0.5151 -0.2770
 7068TIP3    H242620   4.999   6.452  13.044  0.4335 -0.9582 -0.0491
 7069TIP3   OH242621   2.328   2.621  14.304 -0.2491 -0.1757  0.5829
 7069TIP3    H142622   2.408   2.568  14.311 -0.2938 -0.1527  1.3372
 7069TIP3    H242623   2.338   2.669  14.222  1.8573  1.9908  1.9715
 7070TIP3   OH242624   4.783   4.927  12.778  0.5670 -0.1720 -0.1273
 7070TIP3    H142625   4.854   4.867  12.802  0.7787 -0.2474 -0.9250
 7070TIP3    H242626   4.748   4.891  12.696  0.5849  0.6903 -0.5197
 7071TIP3   OH242627   1.079   0.177   0.706  0.2315  0.1267  0.3616
 7071TIP3    H142628   1.154   0.134   0.746  1.3139 -1.0238 -2.6337
 7071TIP3    H242629   1.048   0.115   0.640 -0.7978  2.2226 -1.2435
 7072TIP3   OH242630   1.604   5.463   3.870 -0.3204  0.2542 -0.4814
 7072TIP3    H142631   1.578   5.386   3.920 -1.4934  1.1222  0.2892
 7072TIP3    H242632   1.603   5.535   3.933 -1.5485  1.3206 -1.6489
 7073TIP3   OH242633   2.187   5.993  13.245  0.3981  0.0079 -0.0156
 7073TIP3    H142634   2.174   6.071  13.191  2.4607 -0.4217 -1.2367
 7073TIP3    H242635   2.193   5.921  13.183  1.8429 -0.6457  0.8304
 7074TIP3   OH242636   5.932   0.893  13.160  0.2598  0.2869  0.4095
 7074TIP3    H142637   5.887   0.813  13.133 -0.3908  0.2847  1.4676
 7074TIP3    H242638   5.896   0.961  13.103  1.3556 -0.2588 -1.0135
 7075TIP3   OH242639   0.759   3.099   4.688 -0.3069 -0.3342  0.0041
 7075TIP3    H142640   0.672   3.134   4.669 -0.6034 -0.8889  0.2904
 7075TIP3    H242641   0.813   3.176   4.707 -0.9136 -0.0217  0.5166
 7076TIP3   OH242642   6.078   0.858   4.933  0.2622 -0.5179  0.2289
 7076TIP3    H142643   6.143   0.793   4.905 -0.6573 -1.0399 -0.7661
 7076TIP3    H242644   6.125   0.941   4.929  1.6164 -1.1189  2.0021
 7077TIP3   OH242645   4.467   3.192  11.797  0.2472 -0.3299  0.1010
 7077TIP3    H142646   4.541   3.179  11.738 -0.7146 -0.0178 -1.2374
 7077TIP3    H242647   4.482   3.278  11.837  1.2180 -0.8129  0.8035
 7078TIP3   OH242648   0.477   2.408   1.600  0.2826 -0.1297  0.2108
 7078TIP3    H142649   0.383   2.425   1.595 -0.2047 -2.4729  0.1440
 7078TIP3    H242650   0.513   2.450   1.522 -1.1744 -1.5660 -1.3246
 7079TIP3   OH242651   2.770   5.846   1.382  0.1666  0.5719 -0.5391
 7079TIP3    H142652   2.753   5.752   1.393 -2.8016  1.1835  0.8925
 7079TIP3    H242653   2.736   5.867   1.295  1.0485  0.3323 -0.9599
 7080TIP3   OH242654   4.308   5.344   0.658  0.3061 -0.3691  0.2097
 7080TIP3    H142655   4.378   5.404   0.633  0.9469 -0.2022  2.1989
 7080TIP3    H242656   4.228   5.388   0.631  0.9076 -0.2253 -1.4420
 7081TIP3   OH242657   4.526   2.632  13.721  0.0687 -0.0088 -0.4121
 7081TIP3    H142658   4.440   2.639  13.761  0.6848 -0.3762  1.0253
 7081TIP3    H242659   4.537   2.715  13.675 -1.6371 -0.5406 -1.8974
 7082TIP3   OH242660   1.604   5.414   5.903  0.0518 -0.3419  0.0251
 7082TIP3    H142661   1.607   5.320   5.888 -0.6358 -0.5430  1.0162
 7082TIP3    H242662   1.610   5.423   5.999 -1.2813  0.5247  0.0597
 7083TIP3   OH242663   6.028   2.758  13.440 -0.1471  0.1099  0.4893
 7083TIP3    H142664   6.066   2.791  13.358 -1.8412  0.0557 -0.3774
 7083TIP3    H242665   6.094   2.697  13.474  0.3528 -0.3675 -1.1900
 7084TIP3   OH242666   4.321   0.947   4.726 -0.5598  0.0434  0.2906
 7084TIP3    H142667   4.292   0.923   4.638 -0.2543 -1.6891  0.6319
 7084TIP3    H242668   4.413   0.970   4.715 -0.7980  0.8843 -0.0063
 7085TIP3   OH242669   0.377   2.229   6.210 -0.2749  0.4011  0.1182
 7085TIP3    H142670   0.463   2.270   6.201 -0.7403  1.3039 -0.3043
 7085TIP3    H242671   0.394   2.136   6.197  0.5636  0.6171 -0.4323
 7086TIP3   OH242672   1.158   3.754   0.861  0.1604 -0.6489  0.2271
 7086TIP3    H142673   1.081   3.741   0.916  1.5144 -1.6486  1.9993
 7086TIP3    H242674   1.135   3.829   0.805 -2.2057 -1.1510  0.4102
 7087TIP3   OH242675   2.136   5.415  11.924 -0.3315  0.8718  0.2228
 7087TIP3    H142676   2.210   5.444  11.979 -0.0037  0.8087 -0.1773
 7087TIP3    H242677   2.171   5.418  11.835 -0.6810  0.4282  0.0685
 7088TIP3   OH242678   5.990   2.966  11.967 -0.0736 -0.7335 -0.6529
 7088TIP3    H142679   5.918   2.904  11.954  0.6195 -2.6468  3.2364
 7088TIP3    H242680   5.967   3.014  12.046  1.1914  1.4430 -1.5141
 7089TIP3   OH242681   6.192   5.897   0.214  0.5505 -0.1574  0.3175
 7089TIP3    H142682   6.198   5.880   0.120  1.3529 -0.8955  0.4870
 7089TIP3    H242683   6.134   5.973   0.221  0.6462  0.0364 -0.7830
 7090TIP3   OH242684   0.952   4.210   4.986  0.0209 -0.1176  0.0373
 7090TIP3    H142685   0.906   4.145   4.932 -0.0892 -0.4203  0.4921
 7090TIP3    H242686   0.987   4.273   4.922 -0.9200  0.0554 -0.3229
 7091TIP3   OH242687   2.591   5.448   2.695 -0.2873  0.7296 -0.5874
 7091TIP3    H142688   2.545   5.367   2.716  0.3131  0.4828 -0.1850
 7091TIP3    H242689   2.681   5.420   2.674 -0.7608  0.9796 -3.2776
 7092TIP3   OH242690   0.540   2.386   2.034  0.3195  0.1759 -0.6044
 7092TIP3    H142691   0.476   2.317   2.051 -0.8589  1.2538 -0.5300
 7092TIP3    H242692   0.532   2.444   2.109  0.8644  0.7135 -0.9612
 7093TIP3   OH242693   1.257   0.783   4.178 -0.6461  0.4217 -0.3062
 7093TIP3    H142694   1.327   0.748   4.233  0.9421  2.5623 -0.7890
 7093TIP3    H242695   1.199   0.829   4.238 -0.7969 -0.0716 -0.0707
 7094TIP3   OH242696   0.143   3.275  17.127 -0.3291  0.4351  0.1401
 7094TIP3    H142697   0.180   3.349  17.177  0.5595 -0.6624  1.1806
 7094TIP3    H242698   0.071   3.243  17.181  0.6129 -0.7382  0.7502
 7095TIP3   OH242699   3.069   2.424  13.328  0.0171 -0.5484 -0.2010
 7095TIP3    H142700   2.982   2.453  13.355  0.0249 -0.5727 -0.1502
 7095TIP3    H242701   3.128   2.455  13.397  0.2321  0.6253 -0.8855
 7096TIP3   OH242702   2.948   1.440  11.329  0.1523  0.1117  0.1197
 7096TIP3    H142703   2.924   1.384  11.255 -0.2913 -0.4797  0.6922
 7096TIP3    H242704   2.996   1.381  11.387 -2.9340 -0.6006  2.2055
 7097TIP3   OH242705   3.768   4.246  13.998  0.4967  0.3335 -0.2292
 7097TIP3    H142706   3.697   4.267  13.937 -0.0763 -0.2208  0.2323
 7097TIP3    H242707   3.777   4.151  13.992  1.0851  0.3777 -0.1443
 7098TIP3   OH242708   3.916   4.681  16.267  0.1402 -0.2132  0.0417
 7098TIP3    H142709   3.906   4.633  16.349  0.4639 -1.3030 -0.5431
 7098TIP3    H242710   3.829   4.677  16.226  0.4435 -1.3086 -0.5318
 7099TIP3   OH242711   2.400   6.155  16.884  0.0456 -0.2117  0.0916
 7099TIP3    H142712   2.428   6.075  16.840  1.3395  0.7021 -0.8032
 7099TIP3    H242713   2.380   6.216  16.814 -1.6364  0.0521  0.7543
 7100TIP3   OH242714   5.310   5.765   4.767 -0.5275  0.1767 -0.0437
 7100TIP3    H142715   5.382   5.806   4.719 -0.2050  0.0520  0.3273
 7100TIP3    H242716   5.352   5.699   4.821 -1.0307 -0.5522 -0.5327
 7101TIP3   OH242717   5.169   3.321  16.675 -0.4449 -0.0324  0.0209
 7101TIP3    H142718   5.211   3.312  16.590  0.7987  0.7870  0.5126
 7101TIP3    H242719   5.093   3.264  16.671 -0.0507 -0.4887 -1.4111
 7102TIP3   OH242720   3.550   6.005  14.438  0.3195 -0.0319  0.5754
 7102TIP3    H142721   3.504   6.088  14.451  1.8606  0.8700  0.4697
 7102TIP3    H242722   3.642   6.026  14.454  0.6542 -1.9007  1.3425
 7103TIP3   OH242723   2.532   2.123   1.769 -0.1723  0.1251  0.0744
 7103TIP3    H142724   2.482   2.197   1.802 -1.7889 -0.4291 -1.0273
 7103TIP3    H242725   2.524   2.130   1.674  1.1953 -0.4447 -0.0996
 7104TIP3   OH242726   0.742   3.272   2.358 -0.4864  0.1736  0.0390
 7104TIP3    H142727   0.675   3.219   2.314 -1.3520  2.1288 -1.0978
 7104TIP3    H242728   0.694   3.330   2.416  0.3626  0.4501  0.4894
 7105TIP3   OH242729   5.741   4.599  15.063  0.4935 -0.3721 -0.0696
 7105TIP3    H142730   5.741   4.506  15.038  1.7756 -0.3931 -0.0421
 7105TIP3    H242731   5.750   4.598  15.158 -2.4495 -0.2448  0.3165
 7106TIP3   OH242732   3.978   5.052   3.666 -0.1932 -0.0901  0.4470
 7106TIP3    H142733   3.899   4.999   3.654 -0.7302  0.9022 -0.7271
 7106TIP3    H242734   3.947   5.142   3.660  1.0301  0.3224 -0.0595
 7107TIP3   OH242735   5.845   5.709   4.486 -0.1628  0.2603  0.0960
 7107TIP3    H142736   5.858   5.752   4.402 -0.1394 -0.3795 -0.2391
 7107TIP3    H242737   5.799   5.628   4.464 -0.5672  0.3075  0.7539
 7108TIP3   OH242738   5.182   1.320  14.053 -0.0465  0.1580  0.2538
 7108TIP3    H142739   5.194   1.358  13.966 -2.0164 -1.2110 -0.6841
 7108TIP3    H242740   5.261   1.346  14.102  0.3178  2.3778 -1.3823
 7109TIP3   OH242741   1.173   5.833  16.601  0.5681 -0.3422  0.4521
 7109TIP3    H142742   1.188   5.766  16.667 -0.7167 -1.3590 -0.2144
 7109TIP3    H242743   1.079   5.825  16.580  0.5994  1.0097 -0.3459
 7110TIP3   OH242744   5.554   5.343  14.770 -0.5114 -0.4409 -0.3131
 7110TIP3    H142745   5.633   5.395  14.785 -1.4967  1.4982 -1.4038
 7110TIP3    H242746   5.575   5.290  14.693 -0.0178 -0.5159 -0.1311
 7111TIP3   OH242747   0.807   5.771  15.133  0.4434 -0.4282 -0.7159
 7111TIP3    H142748   0.724   5.807  15.105  0.6840  0.0194 -0.8573
 7111TIP3    H242749   0.857   5.759  15.051  0.5979 -0.4970 -0.6124
 7112TIP3   OH242750   2.802   1.408   2.939  0.0298  0.1341  0.5884
 7112TIP3    H142751   2.717   1.408   2.893 -0.9381  1.2522  2.2629
 7112TIP3    H242752   2.787   1.356   3.018  0.9506  0.2548  0.8520
 7113TIP3   OH242753   3.313   5.336   5.093 -0.3156  0.3563  0.0444
 7113TIP3    H142754   3.370   5.259   5.086 -0.3480  0.2926  0.4469
 7113TIP3    H242755   3.232   5.311   5.049 -1.3283 -0.8114  2.3822
 7114TIP3   OH242756   2.975   1.701  13.452 -0.2006 -0.3651  0.2490
 7114TIP3    H142757   2.891   1.655  13.451 -2.4632  3.2580  1.2934
 7114TIP3    H242758   3.028   1.656  13.386 -1.4676 -5.1438  2.0801
 7115TIP3   OH242759   1.616   4.100  12.361 -0.4621  0.3456  0.2720
 7115TIP3    H142760   1.592   4.059  12.278 -1.1539  1.5690 -0.1595
 7115TIP3    H242761   1.550   4.067  12.423  0.6064 -1.3009  0.5883
 7116TIP3   OH242762   1.362   1.067  11.583 -0.3134 -0.4769 -0.3108
 7116TIP3    H142763   1.450   1.029  11.579 -0.4035 -0.6198 -0.9871
 7116TIP3    H242764   1.319   1.037  11.504 -0.2991  1.2646 -1.0208
 7117TIP3   OH242765   6.245   1.904   3.647  0.4823  0.1288  0.0793
 7117TIP3    H142766   6.287   1.920   3.732  0.5667 -1.5261  0.3685
 7117TIP3    H242767   6.152   1.921   3.663  0.4372 -0.6177  0.6229
 7118TIP3   OH242768   4.429   1.347   1.299  0.1343 -0.2028 -0.5329
 7118TIP3    H142769   4.445   1.401   1.222 -1.5252 -0.9698 -1.4656
 7118TIP3    H242770   4.362   1.395   1.348  0.2508 -0.3407 -0.2383
 7119TIP3   OH242771   0.729   0.965   0.461 -0.3542  0.2993 -0.2177
 7119TIP3    H142772   0.736   1.037   0.523  1.7016  1.2394 -1.4371
 7119TIP3    H242773   0.815   0.923   0.462 -1.0797 -1.2960 -0.5548
 7120TIP3   OH242774   6.596   6.437  15.559 -0.2317  0.0188 -0.3914
 7120TIP3    H142775   6.689   6.443  15.581  0.0122 -0.5771 -1.2183
 7120TIP3    H242776   6.557   6.389  15.631  0.4405 -1.3540 -0.9003
 7121TIP3   OH242777   5.622   4.690   4.228 -0.4151  0.0525 -0.1805
 7121TIP3    H142778   5.617   4.597   4.247  0.7390 -0.0662 -0.4132
 7121TIP3    H242779   5.655   4.730   4.308 -1.5679  0.3727  0.1602
 7122TIP3   OH242780   0.020   2.259  16.790 -0.4902  0.2030 -0.2475
 7122TIP3    H142781   0.003   2.243  16.697 -1.3368 -1.1856  0.1056
 7122TIP3    H242782   0.059   2.177  16.821  0.2025  0.8195  0.5316
 7123TIP3   OH242783   3.943   3.688  17.195 -0.3551 -0.1305 -0.4771
 7123TIP3    H142784   3.949   3.777  17.159 -0.0308 -0.1756 -0.5352
 7123TIP3    H242785   3.863   3.689  17.248 -0.6925  0.0123 -0.9886
 7124TIP3   OH242786   3.147   0.268   3.684  0.3698 -0.0187 -0.9630
 7124TIP3    H142787   3.170   0.258   3.592  0.8067  0.4138 -0.9060
 7124TIP3    H242788   3.052   0.284   3.683  0.0789 -1.6354 -1.2064
 7125TIP3   OH242789   5.463   5.952  10.477  0.0440  0.2409 -0.4018
 7125TIP3    H142790   5.415   6.030  10.504 -1.8872 -0.7639 -0.8066
 7125TIP3    H242791   5.435   5.884  10.538  1.0538 -0.3699 -0.5850
 7126TIP3   OH242792   2.797   6.082  10.793  0.0023  0.4673 -0.3255
 7126TIP3    H142793   2.870   6.130  10.754 -0.0887 -0.1356 -1.2741
 7126TIP3    H242794   2.742   6.150  10.833  1.0767  0.9216  0.4156
 7127TIP3   OH242795   1.105   4.758   1.418  0.0136  0.5791  0.1102
 7127TIP3    H142796   1.010   4.768   1.421  0.1559  1.9144  2.0876
 7127TIP3    H242797   1.120   4.664   1.426 -1.1305 -0.0068 -3.1656
 7128TIP3   OH242798   4.807   6.329  14.202  0.2896 -0.0131  0.0872
 7128TIP3    H142799   4.795   6.267  14.130 -2.7936 -2.2395  2.2891
 7128TIP3    H242800   4.851   6.279  14.270  1.1153  1.3884  0.6409
 7129TIP3   OH242801   5.205   5.676  15.411 -0.3721  0.0060  0.0205
 7129TIP3    H142802   5.221   5.620  15.335 -1.2165  1.0907 -0.9871
 7129TIP3    H242803   5.291   5.684  15.453  0.6528  1.2200 -2.1312
 7130TIP3   OH242804   6.181   0.142  16.047 -0.1793  0.1649 -0.6511
 7130TIP3    H142805   6.236   0.066  16.070 -0.3829 -0.1307 -1.1224
 7130TIP3    H242806   6.232   0.218  16.077 -0.6328 -0.2089  1.2048
 7131TIP3   OH242807   6.575   6.085   0.548  0.6321 -0.2380  0.5164
 7131TIP3    H142808   6.510   6.155   0.550 -2.0925 -2.5906  1.5353
 7131TIP3    H242809   6.568   6.048   0.460  0.3438 -0.7039  0.7334
 7132TIP3   OH242810   6.540   6.091   5.273 -0.6212 -0.4140 -0.2003
 7132TIP3    H142811   6.473   6.156   5.292  0.0055  0.0173  0.5838
 7132TIP3    H242812   6.623   6.138   5.285 -0.1757 -1.1057 -0.5347
 7133TIP3   OH242813   5.674   5.486   1.953 -0.2781  0.0206  0.4689
 7133TIP3    H142814   5.744   5.465   1.891 -0.4618  0.2066  0.1971
 7133TIP3    H242815   5.641   5.571   1.924 -0.6666 -0.1004  0.5523
 7134TIP3   OH242816   1.629   4.856   1.519 -0.0084 -0.1993 -0.1695
 7134TIP3    H142817   1.586   4.790   1.465 -1.2208 -0.3043  0.8836
 7134TIP3    H242818   1.674   4.912   1.456 -1.7402 -0.0580 -1.3535
 7135TIP3   OH242819   6.087   6.560  14.580 -0.2284 -0.2998  0.4511
 7135TIP3    H142820   6.045   6.633  14.626 -0.6498 -0.1026 -0.2355
 7135TIP3    H242821   6.017   6.495  14.569 -0.0502 -0.4795  0.3692
 7136TIP3   OH242822   3.583   5.316  13.758 -0.0173 -0.2379 -0.2221
 7136TIP3    H142823   3.497   5.356  13.744  0.1826 -0.1156 -1.1764
 7136TIP3    H242824   3.644   5.369  13.707  0.5368 -0.6712 -0.0289
 7137TIP3   OH242825   0.105   4.530  15.757 -0.2089 -0.8859  0.3388
 7137TIP3    H142826   0.179   4.545  15.816  0.7271 -0.3157 -0.9394
 7137TIP3    H242827   0.053   4.610  15.763  0.2533 -0.5467 -0.1168
 7138TIP3   OH242828   2.674   5.376   1.554  0.2021 -0.0222 -0.4521
 7138TIP3    H142829   2.705   5.464   1.534  0.0288  0.7253  2.1922
 7138TIP3    H242830   2.753   5.327   1.577  0.0636  0.2692  0.7372
 7139TIP3   OH242831   0.720   0.022  14.853 -0.5918 -0.4458  0.0575
 7139TIP3    H142832   0.653  -0.013  14.912 -1.2817 -2.4633 -1.7824
 7139TIP3    H242833   0.723  -0.041  14.781  1.4829  0.9682 -1.1818
 7140TIP3   OH242834   3.848   3.034  11.026 -0.8872 -0.1340 -0.1135
 7140TIP3    H142835   3.921   2.972  11.023  0.0377  0.8801  0.4079
 7140TIP3    H242836   3.784   2.999  10.964  0.6111 -0.3691 -1.6035
 7141TIP3   OH242837   6.002   0.266   2.148 -0.0818 -0.0187  0.1472
 7141TIP3    H142838   5.988   0.214   2.068 -0.3960  0.0764  0.1368
 7141TIP3    H242839   6.088   0.306   2.136 -0.2952  0.3168 -0.3324
 7142TIP3   OH242840   5.113   5.486  12.076  0.3765 -0.2446 -0.3378
 7142TIP3    H142841   5.162   5.411  12.043  0.4145 -1.3738  2.0373
 7142TIP3    H242842   5.027   5.479  12.033  0.7209 -1.0477 -0.9257
 7143TIP3   OH242843   3.481   2.612  16.134 -0.1813 -0.1158  0.4750
 7143TIP3    H142844   3.474   2.668  16.058  1.1775 -0.6921 -0.1047
 7143TIP3    H242845   3.392   2.581  16.149 -0.9023  1.8609  0.5962
 7144TIP3   OH242846   0.900   0.608  14.057  1.0296 -0.1506 -0.0893
 7144TIP3    H142847   0.924   0.597  14.149  0.5619 -0.8840 -0.0464
 7144TIP3    H242848   0.893   0.518  14.024  1.4910  0.1076 -0.9209
 7145TIP3   OH242849   2.825   5.009  16.130 -0.1189  0.4431  0.1278
 7145TIP3    H142850   2.778   4.987  16.211 -0.1264 -1.1693 -0.2694
 7145TIP3    H242851   2.910   4.967  16.140  0.6754  2.0169  0.1661
 7146TIP3   OH242852   5.928   5.461   5.236  0.5876 -0.5677  0.3276
 7146TIP3    H142853   5.894   5.410   5.309  0.8871 -1.9280 -0.4487
 7146TIP3    H242854   5.851   5.503   5.198  0.4390  0.2309  1.4466
 7147TIP3   OH242855   6.029   0.140   3.033  0.3352  0.3063  0.1910
 7147TIP3    H142856   5.962   0.201   3.062 -0.5089 -0.0134 -1.0193
 7147TIP3    H242857   6.072   0.185   2.960  2.2291  0.9836  1.6398
 7148TIP3   OH242858   4.249   1.491  11.608 -0.3069  0.0752  0.0227
 7148TIP3    H142859   4.316   1.536  11.556 -0.5359  0.1076 -0.2423
 7148TIP3    H242860   4.188   1.559  11.634 -0.1136  0.0854  0.4672
 7149TIP3   OH242861   0.690   6.553  14.660 -0.0179 -0.1570 -0.2360
 7149TIP3    H142862   0.720   6.553  14.569  2.9342  0.8655  0.6001
 7149TIP3    H242863   0.595   6.545  14.655 -0.0451  0.9197 -3.4423
 7150TIP3   OH242864   1.345   0.722   0.392 -0.3688 -0.2068 -0.1600
 7150TIP3    H142865   1.291   0.756   0.320  1.6470 -1.5475 -2.4957
 7150TIP3    H242866   1.353   0.794   0.453 -0.8197  1.6237 -2.1410
 7151TIP3   OH242867   1.080   1.912  13.943  0.6684  0.6558  0.3113
 7151TIP3    H142868   1.131   1.983  13.982 -0.0740  0.8856  0.9223
 7151TIP3    H242869   0.997   1.954  13.919  0.9914  0.4341 -1.2469
 7152TIP3   OH242870   0.373   4.028   6.352 -0.1732 -0.1269  0.0163
 7152TIP3    H142871   0.375   4.095   6.421 -0.3974 -1.0171  0.9088
 7152TIP3    H242872   0.312   4.063   6.287  0.4155  0.9509  0.0274
 7153TIP3   OH242873   2.915   6.031   0.456 -0.3676  0.1251 -0.4511
 7153TIP3    H142874   2.822   6.027   0.435 -0.5416 -2.1678  0.4214
 7153TIP3    H242875   2.918   6.019   0.551  0.8175  0.0922 -0.4773
 7154TIP3   OH242876   2.489   0.643   1.771 -0.0831 -0.6162 -0.5844
 7154TIP3    H142877   2.493   0.613   1.680  0.1895  0.6704 -1.0159
 7154TIP3    H242878   2.532   0.728   1.770 -1.5691  0.1842  0.4324
 7155TIP3   OH242879   3.029   3.231  11.152  0.2420  0.1205 -0.4765
 7155TIP3    H142880   3.019   3.298  11.220  2.3038 -0.1522  0.1638
 7155TIP3    H242881   3.045   3.150  11.200 -1.8882 -0.8184 -1.2595
 7156TIP3   OH242882   1.080   0.557   1.245  0.4007  0.0446 -0.2909
 7156TIP3    H142883   1.137   0.573   1.321  1.0341  0.2628 -0.8076
 7156TIP3    H242884   1.139   0.559   1.170  0.1438 -2.3148 -0.6286
 7157TIP3   OH242885   5.992   4.016  13.293  0.0840  0.1257  0.5140
 7157TIP3    H142886   5.958   4.100  13.325  0.9846 -0.3299  2.9020
 7157TIP3    H242887   6.087   4.025  13.300  0.1701 -1.3441  1.6121
 7158TIP3   OH242888   0.506   2.778   1.332 -0.2539 -0.2811 -0.0237
 7158TIP3    H142889   0.558   2.796   1.253 -0.8802  4.6204  0.3441
 7158TIP3    H242890   0.566   2.793   1.404 -1.1789  2.1170  0.3560
 7159TIP3   OH242891   3.393   1.937   0.726  0.2550  0.3734 -0.6977
 7159TIP3    H142892   3.311   1.890   0.739  1.3455 -1.5562 -0.2992
 7159TIP3    H242893   3.401   1.994   0.802 -1.1776  1.3677 -1.2611
 7160TIP3   OH242894   2.262   3.402  10.554 -0.5312  0.0730  0.2328
 7160TIP3    H142895   2.220   3.403  10.468 -0.1564 -0.8120  0.0201
 7160TIP3    H242896   2.309   3.319  10.556  0.1478  0.4635  0.9719
 7161TIP3   OH242897   0.958   1.397  10.794 -0.6405  0.0033  0.0839
 7161TIP3    H142898   1.046   1.365  10.816 -1.2152 -3.3045 -1.8107
 7161TIP3    H242899   0.974   1.468  10.732  0.8335 -2.1495 -2.1888
 7162TIP3   OH242900   2.834   6.721  13.640  0.2796  0.4063  0.0283
 7162TIP3    H142901   2.912   6.677  13.604  0.9369  1.0653  0.6186
 7162TIP3    H242902   2.762   6.689  13.586  0.9310 -0.3626 -0.4156
 7163TIP3   OH242903   2.323   5.151  13.978 -0.1465  0.5557  0.1731
 7163TIP3    H142904   2.240   5.141  13.932  0.1840  0.2453 -0.3656
 7163TIP3    H242905   2.368   5.068  13.966  1.4574  1.6105 -2.0355
 7164TIP3   OH242906   1.320   1.209   0.797 -0.4674  0.0130  0.1217
 7164TIP3    H142907   1.246   1.231   0.855 -0.5074  3.3803 -0.9545
 7164TIP3    H242908   1.294   1.244   0.712  1.1075 -1.5808 -1.0634
 7165TIP3   OH242909   4.061   5.413  17.187 -0.4954  0.2728  0.5404
 7165TIP3    H142910   3.978   5.366  17.175 -1.1257  0.6359  2.9435
 7165TIP3    H242911   4.072   5.419  17.282  2.2930  0.2820  0.3009
 7166TIP3   OH242912   6.407   0.978  14.514 -0.3082  0.1323  0.8185
 7166TIP3    H142913   6.354   0.943  14.586 -2.7057 -0.4974 -1.1215
 7166TIP3    H242914   6.352   1.046  14.474  0.8978  0.3818 -0.4989
 7167TIP3   OH242915   2.800   3.284  14.073  0.1281 -0.2158  0.5445
 7167TIP3    H142916   2.783   3.315  13.984  0.0714 -2.0647 -0.1221
 7167TIP3    H242917   2.892   3.258  14.073  0.6808  1.5443  1.6233
 7168TIP3   OH242918   4.593   2.875  13.631 -0.2732 -0.1479  0.6379
 7168TIP3    H142919   4.619   2.966  13.646 -3.5762  0.8588  1.0944
 7168TIP3    H242920   4.611   2.860  13.539 -1.9793  1.9112 -0.1144
 7169TIP3   OH242921   1.211   1.099  14.070 -0.4144 -0.1637 -0.2162
 7169TIP3    H142922   1.126   1.141  14.060 -0.1099  0.8067  1.0563
 7169TIP3    H242923   1.268   1.146  14.009 -0.4902  0.0836 -0.0984
 7170TIP3   OH242924   1.457   2.462  14.306 -0.2713 -0.1463 -0.3310
 7170TIP3    H142925   1.545   2.491  14.281 -0.6943  0.6312 -0.9563
 7170TIP3    H242926   1.401   2.490  14.234 -1.4337  1.6102  1.1574
 7171TIP3   OH242927   0.781   1.913   2.358  0.1226  0.3341 -0.7668
 7171TIP3    H142928   0.831   1.886   2.281 -0.0971 -3.0309  0.1358
 7171TIP3    H242929   0.843   1.966   2.408  0.0318  3.3188 -3.4509
 7172TIP3   OH242930   3.856   4.708  17.208 -0.2427 -0.0505 -0.1511
 7172TIP3    H142931   3.769   4.685  17.176 -0.1245 -0.1091 -0.4360
 7172TIP3    H242932   3.902   4.741  17.131 -0.2451  0.6781  0.1507
 7173TIP3   OH242933   1.941   4.545   0.397  0.0400 -0.2587 -0.8325
 7173TIP3    H142934   1.994   4.623   0.413 -1.3782  0.9497 -1.7789
 7173TIP3    H242935   1.858   4.563   0.441  0.7884 -2.7824  2.0211
 7174TIP3   OH242936   4.411   5.496  14.103  0.6108  0.2852 -0.4684
 7174TIP3    H142937   4.394   5.578  14.057 -0.5347  0.1592 -0.2790
 7174TIP3    H242938   4.426   5.432  14.033  0.1390  0.3611 -0.6365
 7175TIP3   OH242939   3.119   6.535  15.586 -0.2415  0.1104  0.0600
 7175TIP3    H142940   3.092   6.624  15.608 -1.5824 -0.5037  1.1123
 7175TIP3    H242941   3.102   6.484  15.666  1.8916 -0.8364 -0.0185
 7176TIP3   OH242942   6.261   6.052   1.709  0.4996 -0.3263  0.0458
 7176TIP3    H142943   6.298   6.015   1.789 -1.2112 -1.4760  0.3617
 7176TIP3    H242944   6.240   6.143   1.733  0.7440 -0.4225  0.6521
 7177TIP3   OH242945   2.257   2.791  15.426 -0.4583  0.0938 -0.0951
 7177TIP3    H142946   2.244   2.702  15.391  0.0963 -1.4825  3.2753
 7177TIP3    H242947   2.175   2.812  15.469 -0.4397  1.0961 -0.5191
 7178TIP3   OH242948   1.831   4.994  16.317  0.5278 -0.4041  0.2441
 7178TIP3    H142949   1.740   4.965  16.312 -0.5872  2.7552  0.1950
 7178TIP3    H242950   1.867   4.947  16.392 -1.1069 -1.6997  0.2771
 7179TIP3   OH242951   1.546   0.531   2.573 -0.2436 -0.6895 -0.0454
 7179TIP3    H142952   1.486   0.543   2.647 -0.6685 -0.9500 -0.3438
 7179TIP3    H242953   1.505   0.463   2.520  0.4280 -1.0183 -0.1479
 7180TIP3   OH242954   4.438   5.970   3.642 -0.7357  0.1017  0.1445
 7180TIP3    H142955   4.399   5.883   3.637 -0.6799  0.0149  0.9457
 7180TIP3    H242956   4.388   6.024   3.580  0.0859 -0.8018 -1.3424
 7181TIP3   OH242957   4.757   2.386  15.309  0.2905 -0.2731  0.5712
 7181TIP3    H142958   4.684   2.382  15.370  0.7751  1.3131  1.3045
 7181TIP3    H242959   4.730   2.332  15.235 -1.1398 -0.6102  1.3108
 7182TIP3   OH242960   1.564   4.023   1.231 -0.1902  0.0317  0.2585
 7182TIP3    H142961   1.515   3.991   1.307 -2.5627 -0.1349 -1.2288
 7182TIP3    H242962   1.517   3.986   1.156  0.9015  1.7554 -1.3350
 7183TIP3   OH242963   4.561   0.333   4.221 -0.0357 -0.3555 -0.3151
 7183TIP3    H142964   4.491   0.277   4.187 -0.4638 -0.3489  0.5382
 7183TIP3    H242965   4.628   0.271   4.251  0.0566 -0.3751 -0.5584
 7184TIP3   OH242966   3.463   4.814  16.824 -0.2087 -0.6809 -0.1813
 7184TIP3    H142967   3.463   4.906  16.849  0.2063 -1.0317  1.2166
 7184TIP3    H242968   3.394   4.806  16.758 -1.6848  0.2459  1.1905
 7185TIP3   OH242969   4.018   6.623  11.199  0.2990 -0.0924  0.1219
 7185TIP3    H142970   3.995   6.658  11.285  0.5439  0.7728 -0.1522
 7185TIP3    H242971   3.935   6.619  11.151  0.1116 -0.8895  0.5021
 7186TIP3   OH242972   6.012   2.760   2.162 -0.1140  0.1339 -0.4688
 7186TIP3    H142973   5.963   2.727   2.237 -0.1460 -0.0026 -0.5484
 7186TIP3    H242974   5.982   2.850   2.151  0.8853  0.5988  0.5140
 7187TIP3   OH242975   3.958   2.574   5.937  0.0323  0.0778 -0.4755
 7187TIP3    H142976   3.991   2.506   5.996 -0.3547  0.1740 -0.1412
 7187TIP3    H242977   3.876   2.538   5.903 -1.1548  1.0885  1.1168
 7188TIP3   OH242978   1.398   1.889  16.812 -0.6182  0.0440  0.1008
 7188TIP3    H142979   1.440   1.876  16.727 -1.0803  0.0397 -0.1283
 7188TIP3    H242980   1.356   1.975  16.804  0.2788  0.5518  0.7182
 7189TIP3   OH242981   6.625   2.045  13.430  0.5240 -0.1006  0.4131
 7189TIP3    H142982   6.547   2.066  13.482 -0.7160 -2.5615 -0.2890
 7189TIP3    H242983   6.679   1.992  13.488  0.6245 -0.2454  0.1883
 7190TIP3   OH242984   3.198   2.449  16.909 -0.0208  0.6278  0.3544
 7190TIP3    H142985   3.106   2.462  16.885 -0.4961 -1.6749  0.7319
 7190TIP3    H242986   3.199   2.455  17.004  0.3380  1.1806  0.3215
 7191TIP3   OH242987   4.460   5.971  11.264 -0.2424 -0.1739  0.0601
 7191TIP3    H142988   4.534   5.969  11.204 -1.5244 -0.6659 -1.6086
 7191TIP3    H242989   4.384   5.951  11.209 -1.5537 -0.2700  1.7952
 7192TIP3   OH242990   4.464   2.468   1.750  0.6874  0.5510  0.3190
 7192TIP3    H142991   4.408   2.533   1.791 -0.0561  0.3559 -0.3616
 7192TIP3    H242992   4.422   2.450   1.666  1.2112 -0.3683  0.2430
 7193TIP3   OH242993   1.393   3.592  12.079  0.1895  0.6390  0.2574
 7193TIP3    H142994   1.332   3.664  12.065  0.1563  0.8388  1.3142
 7193TIP3    H242995   1.429   3.608  12.166  2.6986  1.2245 -0.7937
 7194TIP3   OH242996   0.465   0.830  14.290  0.9724 -0.5117  0.0016
 7194TIP3    H142997   0.499   0.919  14.292  1.6282 -0.7514 -0.1887
 7194TIP3    H242998   0.395   0.829  14.355  0.3015  0.3999 -0.6970
 7195TIP3   OH242999   0.018   0.898   3.706 -0.1581 -0.2498 -0.3082
 7195TIP3    H143000   0.046   0.982   3.742 -0.9791 -0.2058  0.2648
 7195TIP3    H243001  -0.075   0.892   3.730  0.0853 -1.6848  0.3912
 7196TIP3   OH243002   2.253   6.158   4.052 -0.0450 -0.1038 -0.1150
 7196TIP3    H143003   2.280   6.127   4.138  0.4088  0.9941  0.1552
 7196TIP3    H243004   2.333   6.188   4.011  0.1296 -2.6068 -1.8277
 7197TIP3   OH243005   2.802   0.458   0.712  0.4540 -0.1917  0.2649
 7197TIP3    H143006   2.833   0.470   0.622  0.7657 -2.4919  0.0025
 7197TIP3    H243007   2.748   0.535   0.729 -0.5899 -0.2356 -2.3281
 7198TIP3   OH243008   6.331   4.167   5.374 -0.3439  0.1897 -0.2992
 7198TIP3    H143009   6.292   4.228   5.438  3.3321  0.1458  2.2663
 7198TIP3    H243010   6.268   4.094   5.370 -0.6462  0.0019  3.6956
 7199TIP3   OH243011   3.948   0.272  12.620 -0.4360  0.1673  0.0416
 7199TIP3    H143012   3.987   0.298  12.703  0.6983  0.5814 -0.6030
 7199TIP3    H243013   4.000   0.197  12.591  0.8516  1.6108 -1.5191
 7200TIP3   OH243014   1.528   4.809  16.608 -0.0838 -0.2743  0.1033
 7200TIP3    H143015   1.556   4.842  16.693 -0.1081 -0.7773  0.3048
 7200TIP3    H243016   1.570   4.868  16.545 -2.0375  1.6617  0.4885
 7201TIP3   OH243017   4.443   3.342  13.767 -0.0502 -0.5465 -0.0382
 7201TIP3    H143018   4.471   3.291  13.842 -0.7846 -0.3147  0.4026
 7201TIP3    H243019   4.348   3.333  13.765 -0.0367 -0.6173 -0.9904
 7202TIP3   OH243020   6.618   6.675   2.196  0.2379  0.2614  0.3699
 7202TIP3    H143021   6.586   6.726   2.270  0.7637  0.5131  0.4264
 7202TIP3    H243022   6.668   6.604   2.235  0.7633  0.5626  0.2557
 7203TIP3   OH243023   0.582   0.379   0.911 -0.1055  0.7390 -0.0108
 7203TIP3    H143024   0.532   0.454   0.942 -0.1228  0.5394  0.4646
 7203TIP3    H243025   0.515   0.317   0.881 -0.0326  1.5190 -1.8550
 7204TIP3   OH243026   0.048   6.705  14.988 -0.4336 -0.2796 -0.2674
 7204TIP3    H143027   0.135   6.713  14.949 -0.6543  2.1865 -0.4193
 7204TIP3    H243028   0.019   6.617  14.965  0.7059 -0.0368 -3.0752
 7205TIP3   OH243029   5.675   3.514  13.479  0.1895 -0.1145  0.8113
 7205TIP3    H143030   5.669   3.419  13.485  0.6175 -0.2910 -1.0132
 7205TIP3    H243031   5.766   3.531  13.455  0.1961  0.7774  1.4437
 7206TIP3   OH243032   3.848   4.926  12.159  0.6670  0.0764  0.0447
 7206TIP3    H143033   3.824   4.864  12.090  0.1993 -0.6153  0.8080
 7206TIP3    H243034   3.767   4.938  12.209  1.4522 -1.0220  1.6761
 7207TIP3   OH243035   3.258   5.332   1.966 -0.3812  0.0907 -0.0829
 7207TIP3    H143036   3.323   5.360   1.901 -0.3586  0.3324  0.0417
 7207TIP3    H243037   3.293   5.364   2.049 -0.3250 -0.3643  0.0720
 7208TIP3   OH243038   5.726   4.390  11.944 -0.4070  0.1669  0.3020
 7208TIP3    H143039   5.699   4.470  11.899  0.5312  0.5554  0.4023
 7208TIP3    H243040   5.781   4.420  12.016  0.5974 -0.5904 -0.1149
 7209TIP3   OH243041   1.954   1.543  15.476 -0.7574 -0.1297 -0.1515
 7209TIP3    H143042   1.935   1.456  15.513 -0.9474  0.0903  0.2740
 7209TIP3    H243043   2.047   1.541  15.458 -1.0373 -0.9937 -1.6445
 7210TIP3   OH243044   5.399   4.669  13.551  0.0428  0.1489  0.4192
 7210TIP3    H143045   5.307   4.677  13.527 -0.1875 -0.9188  0.8572
 7210TIP3    H243046   5.420   4.577  13.533  0.7485  0.1413  1.2392
 7211TIP3   OH243047   1.504   0.953  14.159  0.4453  0.0284  0.3598
 7211TIP3    H143048   1.473   1.037  14.193 -0.3959 -0.4606  0.8543
 7211TIP3    H243049   1.583   0.974  14.110 -0.3733  1.2737 -0.4988
 7212TIP3   OH243050   6.357   4.599  10.858 -0.7697 -0.5194 -0.1270
 7212TIP3    H143051   6.280   4.650  10.833 -1.4653 -1.9224 -0.9589
 7212TIP3    H243052   6.418   4.611  10.786 -0.1800  0.5877  0.5291
 7213TIP3   OH243053   2.806   4.252   5.202  0.4823  0.1256  0.5384
 7213TIP3    H143054   2.789   4.258   5.108  1.0741 -0.5184  0.3837
 7213TIP3    H243055   2.900   4.264   5.210  0.2727  1.5596  1.1892
 7214TIP3   OH243056   1.563   4.288   1.030 -1.1194  0.3442 -0.3885
 7214TIP3    H143057   1.510   4.357   1.071  0.4087  1.9752 -1.0340
 7214TIP3    H243058   1.652   4.304   1.063 -0.2676  0.3187 -2.5467
 7215TIP3   OH243059   6.045   1.199  17.046 -0.0132 -0.0183 -0.2305
 7215TIP3    H143060   6.051   1.285  17.004 -0.9457  1.0727  1.7080
 7215TIP3    H243061   6.068   1.137  16.978 -1.5058  1.6183 -2.3545
 7216TIP3   OH243062   1.601   1.900  14.640  0.5125 -0.0766  0.3814
 7216TIP3    H143063   1.565   1.916  14.553  0.1184 -0.5278  0.4594
 7216TIP3    H243064   1.658   1.976  14.657  3.7092 -1.7543 -1.8405
 7217TIP3   OH243065   1.877   3.872  11.689  0.1301  0.3428  0.4323
 7217TIP3    H143066   1.909   3.868  11.599  1.8147 -0.9273  1.0255
 7217TIP3    H243067   1.795   3.823  11.689  0.0547  0.4624 -0.4171
 7218TIP3   OH243068   2.832   0.259  13.642  0.2006  0.0496  0.0995
 7218TIP3    H143069   2.781   0.272  13.562 -2.5988 -2.2107  1.3490
 7218TIP3    H243070   2.813   0.169  13.668  2.6119  0.0672  2.2668
 7219TIP3   OH243071   2.252   6.649   4.426  0.1140 -0.4291  0.5280
 7219TIP3    H143072   2.291   6.623   4.343 -0.1712  0.1695  0.2010
 7219TIP3    H243073   2.317   6.626   4.492  0.6458 -0.2433  0.0733
 7220TIP3   OH243074   2.222   3.987  16.267 -0.1730  0.2690  0.0343
 7220TIP3    H143075   2.127   3.984  16.257 -0.2005  0.6505  0.1824
 7220TIP3    H243076   2.255   3.924  16.202 -0.4993  0.5279 -0.3829
 7221TIP3   OH243077   6.532   4.026   3.737  0.4865 -0.2003 -0.2846
 7221TIP3    H143078   6.581   4.105   3.714  0.9347 -0.1957  0.6437
 7221TIP3    H243079   6.600   3.961   3.755  0.1220 -0.6794 -0.6288
 7222TIP3   OH243080   1.489   0.839   3.133 -0.3209 -0.0782  0.4870
 7222TIP3    H143081   1.571   0.810   3.173 -1.0997 -1.4201  1.1718
 7222TIP3    H243082   1.507   0.928   3.104  0.8509  0.2658  2.1352
 7223TIP3   OH243083   5.270   5.107   2.395 -0.0119  0.0960  0.6760
 7223TIP3    H143084   5.291   5.063   2.477  0.3074 -1.1364 -0.0560
 7223TIP3    H243085   5.325   5.185   2.395  1.1497 -0.7003  0.9198
 7224TIP3   OH243086   3.108   0.788  12.857 -0.3831 -0.1462 -0.1184
 7224TIP3    H143087   3.109   0.759  12.948 -1.1141  1.0336  0.2752
 7224TIP3    H243088   3.078   0.879  12.860  2.7498  1.0677 -1.2219
 7225TIP3   OH243089   0.735   6.703   0.227  0.5308 -0.1311 -0.6071
 7225TIP3    H143090   0.829   6.712   0.213  0.5718  0.9137  0.2744
 7225TIP3    H243091   0.697   6.771   0.171  0.2855 -0.6341 -1.0575
 7226TIP3   OH243092   1.231   1.395   0.558 -0.2821  0.1756  0.3101
 7226TIP3    H143093   1.195   1.312   0.529  0.8059  0.1922 -1.2097
 7226TIP3    H243094   1.186   1.461   0.506  2.2399  0.1528 -2.1497
 7227TIP3   OH243095   4.861   6.153  14.928 -0.0777 -0.2770  0.2379
 7227TIP3    H143096   4.909   6.120  15.004  1.8815 -1.9600 -1.6055
 7227TIP3    H243097   4.780   6.101  14.926  0.2300 -0.7856  0.7374
 7228TIP3   OH243098   4.896   5.811   5.309  0.2769  1.2828 -0.7942
 7228TIP3    H143099   4.991   5.824   5.307  0.1306  2.7615  0.3262
 7228TIP3    H243100   4.865   5.847   5.226  0.7257  0.2050 -1.4609
 7229TIP3   OH243101   0.589   3.230  13.158  0.2927  0.4779 -0.8954
 7229TIP3    H143102   0.545   3.187  13.231  2.1360 -2.3133 -1.2769
 7229TIP3    H243103   0.646   3.295  13.200 -1.8739  2.0457 -0.2349
 7230TIP3   OH243104   5.863   2.742   0.124  0.7623  0.0146 -0.5019
 7230TIP3    H143105   5.855   2.705   0.213 -1.3270  0.0075 -0.6308
 7230TIP3    H243106   5.921   2.817   0.135  0.2642  0.2311  0.9540
 7231TIP3   OH243107   5.410   0.490   0.005 -0.8063  0.6684  0.4695
 7231TIP3    H143108   5.459   0.569  -0.020  0.2999 -0.6286 -1.7982
 7231TIP3    H243109   5.477   0.429   0.034 -1.2253 -0.5580 -1.0283
 7232TIP3   OH243110   4.131   5.602   6.135  0.4164 -0.4183  0.0281
 7232TIP3    H143111   4.150   5.619   6.227 -0.5544 -1.2187  0.3885
 7232TIP3    H243112   4.203   5.544   6.106  0.1036 -1.1052  0.6012
 7233TIP3   OH243113   5.170   0.830  13.144  0.6236  0.9644 -0.1560
 7233TIP3    H143114   5.207   0.867  13.224  0.4979  0.1647  0.2853
 7233TIP3    H243115   5.139   0.905  13.094  0.6899  1.4721  0.5585
 7234TIP3   OH243116   5.291   6.235  11.051 -0.5055 -0.4340  0.7921
 7234TIP3    H143117   5.330   6.260  10.968  2.0827 -0.0129  2.0364
 7234TIP3    H243118   5.218   6.296  11.063 -2.2091 -1.7465 -1.9915
 7235TIP3   OH243119   4.522   3.966  15.501 -0.5732 -0.5822  0.2954
 7235TIP3    H143120   4.462   3.906  15.457 -0.3698 -0.3848 -0.2681
 7235TIP3    H243121   4.609   3.934  15.477 -0.4622 -0.3414  0.3781
 7236TIP3   OH243122   1.538   1.547   3.541  0.9881 -0.2024  0.3860
 7236TIP3    H143123   1.499   1.571   3.625 -0.2872 -0.9799  0.0562
 7236TIP3    H243124   1.607   1.612   3.527  1.0616  0.0901  1.9011
 7237TIP3   OH243125   4.641   3.429  17.388 -0.5464  0.0195 -0.2704
 7237TIP3    H143126   4.626   3.380  17.307  0.9642 -0.1244 -0.4869
 7237TIP3    H243127   4.707   3.494  17.364 -1.8914  1.6340  0.2288
 7238TIP3   OH243128   3.553   5.559   2.669  0.5136  0.1005 -0.0696
 7238TIP3    H143129   3.468   5.576   2.709  0.5966  3.4983 -1.0768
 7238TIP3    H243130   3.617   5.588   2.734  0.7898  0.6099 -0.5616
 7239TIP3   OH243131   5.333   3.859  15.872 -0.0574  0.1698  0.0583
 7239TIP3    H143132   5.393   3.784  15.867 -0.2517 -0.2209  2.5397
 7239TIP3    H243133   5.390   3.933  15.894  0.0288  0.6652 -1.6679
 7240TIP3   OH243134   1.648   2.693   0.818  0.1486 -0.6693  0.2135
 7240TIP3    H143135   1.701   2.768   0.791  0.4799 -1.1380 -0.4703
 7240TIP3    H243136   1.704   2.646   0.881  1.3626 -2.1714 -1.8616
 7241TIP3   OH243137   2.896   4.778  12.337  0.0600 -0.0106 -0.9604
 7241TIP3    H143138   2.965   4.798  12.274 -0.5971  1.4981 -1.2444
 7241TIP3    H243139   2.897   4.682  12.345  1.4972 -0.0780 -1.7127
 7242TIP3   OH243140   1.353   2.629   2.529  0.0073 -0.0808 -0.4554
 7242TIP3    H143141   1.441   2.596   2.547  0.4185  0.2726 -1.7039
 7242TIP3    H243142   1.324   2.667   2.612  1.1091 -0.0369 -0.0735
 7243TIP3   OH243143   2.090   2.451  11.980  0.3232  0.2006 -0.0374
 7243TIP3    H143144   2.015   2.393  11.964 -0.1793  0.5186  1.0623
 7243TIP3    H243145   2.054   2.539  11.970  0.5886  0.3539  0.3526
 7244TIP3   OH243146   4.078   0.672  15.226 -0.5325  0.0594  1.0106
 7244TIP3    H143147   4.148   0.711  15.279  2.0334 -1.2280 -1.2124
 7244TIP3    H243148   4.065   0.734  15.154  0.4136 -1.0166 -0.1262
 7245TIP3   OH243149   3.343   4.535   1.436  0.3566  0.1736 -0.2206
 7245TIP3    H143150   3.270   4.480   1.464  1.2582 -1.0533 -0.1983
 7245TIP3    H243151   3.378   4.572   1.517 -0.6186  1.3057 -0.2842
 7246TIP3   OH243152   1.820   4.099  15.613 -0.8375  0.0589  0.2107
 7246TIP3    H143153   1.764   4.118  15.538 -0.1204  1.0424 -0.1049
 7246TIP3    H243154   1.902   4.146  15.594 -0.9583  1.1287  2.0342
 7247TIP3   OH243155   2.751   6.335   0.230  0.3925  0.2785 -0.6188
 7247TIP3    H143156   2.685   6.360   0.166 -1.0787 -1.4136  0.1431
 7247TIP3    H243157   2.784   6.251   0.198  1.3811  0.5733 -0.3972
 7248TIP3   OH243158   4.406   2.752   1.502 -0.2452 -0.3540 -0.1071
 7248TIP3    H143159   4.426   2.796   1.584  0.4118 -0.0807 -0.4082
 7248TIP3    H243160   4.357   2.816   1.451  0.1372 -0.2024 -0.2852
 7249TIP3   OH243161   6.223   3.211  12.254 -0.6829  0.1573  0.6591
 7249TIP3    H143162   6.237   3.205  12.348  0.7596  1.0644  0.5209
 7249TIP3    H243163   6.222   3.305  12.235 -2.2902  0.0309 -0.0660
 7250TIP3   OH243164   5.365   6.539  13.069 -0.5772 -0.0083  0.0895
 7250TIP3    H143165   5.282   6.503  13.039  0.2671 -0.6235 -1.6628
 7250TIP3    H243166   5.358   6.539  13.165 -3.3848  1.9672  0.0098
 7251TIP3   OH243167   2.524   5.014  17.068  0.4893  0.3929 -0.3345
 7251TIP3    H143168   2.501   4.924  17.092 -1.1543  1.3614  2.0085
 7251TIP3    H243169   2.515   5.016  16.973 -0.1826 -1.7091 -0.3675
 7252TIP3   OH243170   2.146   0.374  16.899  0.1168  0.0860 -0.4942
 7252TIP3    H143171   2.086   0.424  16.955  0.8582  1.2104 -0.6658
 7252TIP3    H243172   2.102   0.369  16.815 -1.1902 -1.9606  0.2419
 7253TIP3   OH243173   1.759   3.488  10.603  1.2904  0.3827 -0.2567
 7253TIP3    H143174   1.843   3.535  10.607  0.8396  1.2558 -0.8780
 7253TIP3    H243175   1.711   3.530  10.532 -0.2996  0.9400  1.0787
 7254TIP3   OH243176   4.618   1.384  15.637 -0.4062 -0.3609 -0.1475
 7254TIP3    H143177   4.686   1.387  15.570 -0.2857 -1.5403 -0.0988
 7254TIP3    H243178   4.644   1.450  15.701  0.7119 -0.8154 -0.1200
 7255TIP3   OH243179   5.636   4.843  13.061  0.1240  0.6154  0.4237
 7255TIP3    H143180   5.592   4.846  13.146 -0.5398  0.0265  0.1015
 7255TIP3    H243181   5.641   4.750  13.039 -1.9960  0.8211 -1.3369
 7256TIP3   OH243182   3.497   0.549  15.279  0.0764  0.0361 -0.4290
 7256TIP3    H143183   3.529   0.563  15.368  1.5092 -1.1223 -0.7237
 7256TIP3    H243184   3.497   0.636  15.239 -1.6033  0.7482  0.9762
 7257TIP3   OH243185   4.053   6.229   4.469 -0.0600  0.3155  0.6419
 7257TIP3    H143186   4.000   6.308   4.471 -1.2352 -0.1283 -3.2916
 7257TIP3    H243187   4.074   6.210   4.560 -3.0378  2.9372  2.0168
 7258TIP3   OH243188   6.270   2.118   6.308 -0.2767  0.4828 -0.2119
 7258TIP3    H143189   6.276   2.062   6.386  0.1707 -0.8533 -1.1722
 7258TIP3    H243190   6.271   2.207   6.343 -0.1726 -0.0833  1.3180
 7259TIP3   OH243191   3.248   3.972  16.137 -0.0294  0.4745  0.1394
 7259TIP3    H143192   3.243   3.891  16.086  0.1253  0.1812  0.5856
 7259TIP3    H243193   3.187   3.960  16.209 -0.3037  0.9205 -0.0095
 7260TIP3   OH243194   3.352   6.328   5.412 -0.0713  0.3899 -0.1387
 7260TIP3    H143195   3.384   6.407   5.457 -0.8739  0.5553  0.1614
 7260TIP3    H243196   3.371   6.256   5.472 -1.3757  0.6394  0.6323
 7261TIP3   OH243197   3.417   5.933  16.269 -0.3395 -0.5130 -0.0921
 7261TIP3    H143198   3.507   5.950  16.298 -0.8476  0.1210  1.1583
 7261TIP3    H243199   3.386   5.864  16.327 -0.3071 -1.5169 -1.2439
 7262TIP3   OH243200   1.775   1.963  16.140 -0.4618 -0.0013 -0.5150
 7262TIP3    H143201   1.761   1.907  16.216 -1.6226  2.0314  0.8702
 7262TIP3    H243202   1.867   1.987  16.144 -0.3213 -0.5594 -0.2422
 7263TIP3   OH243203   1.185   2.242  15.129  0.6197  0.0320  0.1918
 7263TIP3    H143204   1.227   2.204  15.207  0.0952 -0.8173  0.0686
 7263TIP3    H243205   1.220   2.192  15.056  1.5786  1.2263 -0.2085
 7264TIP3   OH243206   0.857   4.562  14.144 -0.4664 -0.1242 -0.0799
 7264TIP3    H143207   0.939   4.611  14.144  0.1672 -1.1129 -1.6042
 7264TIP3    H243208   0.852   4.524  14.056 -1.6732 -1.5551  0.5732
 7265TIP3   OH243209   5.609   3.446  15.227 -0.3798 -0.0476  0.3932
 7265TIP3    H143210   5.538   3.418  15.169  0.3071  0.0711 -0.5331
 7265TIP3    H243211   5.590   3.538  15.246  0.1751  0.3685 -0.9028
 7266TIP3   OH243212   3.873   1.247   5.779 -0.3904  0.4590  0.0582
 7266TIP3    H143213   3.781   1.234   5.758 -0.3666 -0.2826  0.3791
 7266TIP3    H243214   3.912   1.276   5.697 -0.7304 -0.1867 -0.3468
 7267TIP3   OH243215   5.026   3.455  13.813  0.0866  0.8128 -0.2846
 7267TIP3    H143216   4.985   3.521  13.758 -0.5693 -0.2679 -1.1542
 7267TIP3    H243217   5.037   3.497  13.898 -2.7388  1.2464 -0.0283
 7268TIP3   OH243218   2.498   3.517   5.507 -0.3486 -0.3947 -0.4480
 7268TIP3    H143219   2.551   3.533   5.585 -0.4954  0.7691 -0.5653
 7268TIP3    H243220   2.541   3.568   5.438 -1.3175  0.1682 -0.6639
 7269TIP3   OH243221   4.048   0.799  15.977 -0.0346  0.2020 -0.4026
 7269TIP3    H143222   4.058   0.887  16.013 -0.0272  0.8223 -1.8303
 7269TIP3    H243223   4.075   0.741  16.048  1.3581  1.3995  0.1093
 7270TIP3   OH243224   0.372   3.917   4.940  0.9974  0.0232  0.2939
 7270TIP3    H143225   0.376   3.854   5.012  2.1193 -0.7578 -0.4310
 7270TIP3    H243226   0.317   3.875   4.874 -0.5699  1.0067  0.8978
 7271TIP3   OH243227   0.379   6.179  15.471  0.2024 -0.6539  0.5668
 7271TIP3    H143228   0.334   6.196  15.554 -0.5691 -1.2793  0.2895
 7271TIP3    H243229   0.386   6.265  15.430  2.1531 -0.0471  2.0207
 7272TIP3   OH243230   0.653   3.848   4.888 -0.2112 -0.1991 -0.0991
 7272TIP3    H143231   0.560   3.872   4.880 -0.2064  0.3516  1.2943
 7272TIP3    H243232   0.672   3.799   4.808 -0.8671  2.3952 -1.9555
 7273TIP3   OH243233   3.300   3.387  10.410 -0.0872 -0.1122  0.3813
 7273TIP3    H143234   3.265   3.431  10.487  1.2958 -0.3812  1.2099
 7273TIP3    H243235   3.387   3.425  10.398  0.0587 -0.6940 -0.5175
 7274TIP3   OH243236   5.195   3.282   4.657 -0.7508  0.0040  0.3415
 7274TIP3    H143237   5.117   3.336   4.670 -1.7568 -1.3733  0.1356
 7274TIP3    H243238   5.266   3.334   4.697 -1.6711  1.4579  0.1764
 7275TIP3   OH243239   0.362   1.486   5.602 -0.5753 -0.2265 -0.4870
 7275TIP3    H143240   0.418   1.558   5.632  0.4337 -1.3518  0.4622
 7275TIP3    H243241   0.288   1.529   5.559 -0.1277  1.3692  0.2567
 7276TIP3   OH243242   4.278   3.059  12.477 -0.0726  0.4179  0.5133
 7276TIP3    H143243   4.300   2.971  12.444 -0.3426  1.0299 -1.4346
 7276TIP3    H243244   4.303   3.057  12.569  1.1006 -1.2969  0.2053
 7277TIP3   OH243245   3.471   3.964  16.749 -0.2633  0.1672 -0.3058
 7277TIP3    H143246   3.418   4.016  16.809  1.3379 -0.3893  1.7094
 7277TIP3    H243247   3.561   3.983  16.775  0.4746 -0.6191 -2.1355
 7278TIP3   OH243248   0.452   5.368  13.681  0.7074 -0.7125  0.5593
 7278TIP3    H143249   0.449   5.459  13.652  1.1012 -0.4672  1.2567
 7278TIP3    H243250   0.366   5.352  13.720  0.6732 -0.6121  0.5251
 7279TIP3   OH243251   2.203   3.549  16.043  0.1075 -0.1330 -0.5617
 7279TIP3    H143252   2.132   3.537  15.981 -0.9828 -0.4239  0.7058
 7279TIP3    H243253   2.267   3.481  16.020 -0.5894 -0.6694 -0.9383
 7280TIP3   OH243254   0.621   0.818   1.114  0.2812  0.3427 -0.1987
 7280TIP3    H143255   0.707   0.848   1.087 -0.2872  1.4978 -0.8070
 7280TIP3    H243256   0.560   0.875   1.068 -0.8039 -0.1179  0.6142
 7281TIP3   OH243257   0.752   2.974  12.134  0.2228 -0.3505  0.5458
 7281TIP3    H143258   0.732   2.882  12.115  0.7568 -0.5549  0.9596
 7281TIP3    H243259   0.666   3.016  12.142 -0.0317 -0.5845 -0.6947
 7282TIP3   OH243260   1.728   4.915  13.268 -0.6136  0.5191  0.7492
 7282TIP3    H143261   1.644   4.870  13.257 -0.7943  0.9908  0.2087
 7282TIP3    H243262   1.793   4.844  13.271 -1.0271  0.1523  1.2074
 7283TIP3   OH243263   4.173   4.681   4.871 -0.2935 -0.0280 -0.2751
 7283TIP3    H143264   4.131   4.757   4.832 -1.3054  0.0714  0.9514
 7283TIP3    H243265   4.116   4.607   4.849 -1.7114  0.2293  2.1212
 7284TIP3   OH243266   4.571   4.505  14.375 -0.2659  0.4418  0.5349
 7284TIP3    H143267   4.483   4.487  14.407 -0.7367  0.9165 -0.4548
 7284TIP3    H243268   4.623   4.429  14.403 -0.7879  0.5417  1.8269
 7285TIP3   OH243269   3.149   1.819   5.397  0.0877  0.5925 -0.2282
 7285TIP3    H143270   3.138   1.804   5.491  0.9493  1.8815  0.1137
 7285TIP3    H243271   3.199   1.744   5.366 -2.2826 -1.0897 -0.1745
 7286TIP3   OH243272   3.088   1.735  14.105 -0.3135  0.4007 -0.1423
 7286TIP3    H143273   3.166   1.732  14.160  1.2825 -1.3770 -2.3038
 7286TIP3    H243274   3.100   1.813  14.050  0.3955 -0.3083 -1.0224
 7287TIP3   OH243275   6.119   0.095   3.761 -0.1316  0.1456 -0.5033
 7287TIP3    H143276   6.145   0.187   3.758  0.6450  0.0768  2.1813
 7287TIP3    H243277   6.072   0.081   3.678  1.4644  2.3885 -1.8867
 7288TIP3   OH243278   3.646   5.938   0.415  0.9992  0.1883 -0.0310
 7288TIP3    H143279   3.728   5.940   0.463  1.1631  1.0766 -0.3345
 7288TIP3    H243280   3.599   6.017   0.442  0.3719 -0.1574 -0.0810
 7289TIP3   OH243281   2.144   0.122   3.657 -0.9014 -0.6681 -0.5240
 7289TIP3    H143282   2.089   0.044   3.647 -0.3791 -0.8471 -2.3885
 7289TIP3    H243283   2.155   0.132   3.751 -3.7239 -0.9004 -0.0963
 7290TIP3   OH243284   3.299   3.694  13.741  0.1007 -0.3747  0.3144
 7290TIP3    H143285   3.260   3.622  13.791  1.6537 -1.6913 -0.2908
 7290TIP3    H243286   3.230   3.720  13.679 -0.5252 -1.2905  0.5999
 7291TIP3   OH243287   4.701   5.012  11.756  0.0248  0.2085  0.3958
 7291TIP3    H143288   4.681   4.934  11.704 -0.1319 -0.4344  1.4018
 7291TIP3    H243289   4.797   5.012  11.761 -0.0112 -0.5701  1.3430
 7292TIP3   OH243290   5.884   4.438  12.596  0.0359 -0.5214  0.4313
 7292TIP3    H143291   5.891   4.350  12.634  2.3000  0.3992  2.4311
 7292TIP3    H243292   5.817   4.482  12.649 -0.6602 -0.8302 -0.1768
 7293TIP3   OH243293   6.592   6.403  14.493 -0.3382 -0.4335  0.3193
 7293TIP3    H143294   6.549   6.317  14.500 -1.7631  0.1964 -0.2899
 7293TIP3    H243295   6.592   6.437  14.582 -2.0216 -0.0593  0.2169
 7294TIP3   OH243296   4.530   5.713  17.055 -0.0597  0.1297 -0.4665
 7294TIP3    H143297   4.473   5.668  16.993 -0.0765  0.9183 -1.0373
 7294TIP3    H243298   4.496   5.689  17.141 -1.4457  0.8152 -0.7942
 7295TIP3   OH243299   5.023   0.500  16.271 -0.0734  0.0093 -0.5422
 7295TIP3    H143300   5.065   0.420  16.303 -0.6876  0.2703  1.0261
 7295TIP3    H243301   4.944   0.469  16.226  0.5814 -0.3472 -1.4729
 7296TIP3   OH243302   1.156   4.742  13.894 -0.0370  0.0837 -0.1334
 7296TIP3    H143303   1.171   4.789  13.976 -1.7926  2.4968 -1.0588
 7296TIP3    H243304   1.067   4.767  13.869 -0.1129 -1.8476 -1.9964
 7297TIP3   OH243305   3.585   0.986  12.826 -0.1716  0.2446 -0.0984
 7297TIP3    H143306   3.583   0.894  12.801  0.0883  0.4183 -0.7968
 7297TIP3    H243307   3.527   0.992  12.902  0.9338 -0.7473  0.8641
 7298TIP3   OH243308   3.587   1.471   5.012  0.0555  0.2254 -0.5152
 7298TIP3    H143309   3.671   1.446   5.052  0.3843  1.1484 -0.6190
 7298TIP3    H243310   3.571   1.403   4.947  0.4923 -0.2119 -0.1759
 7299TIP3   OH243311   5.345   5.299  14.222 -0.6111  0.2388 -0.2822
 7299TIP3    H143312   5.414   5.254  14.173 -1.3505 -0.8891 -0.3365
 7299TIP3    H243313   5.279   5.231  14.238 -0.9982  0.9170  1.1112
 7300TIP3   OH243314   5.011   5.824   2.428 -0.5187 -0.6265  0.0320
 7300TIP3    H143315   5.014   5.869   2.513 -0.4964 -1.5314  0.5284
 7300TIP3    H243316   5.093   5.774   2.425  0.0389  0.3114 -1.0571
 7301TIP3   OH243317   5.565   0.356   0.384 -0.4868 -0.7502 -0.0250
 7301TIP3    H143318   5.507   0.422   0.424 -1.4743 -1.9578  0.6130
 7301TIP3    H243319   5.505   0.293   0.344  0.4535 -1.0439 -1.0245
 7302TIP3   OH243320   0.423   3.937   4.180 -0.4189  0.9011  0.3212
 7302TIP3    H143321   0.498   3.989   4.149 -1.3661  2.2767  0.2522
 7302TIP3    H243322   0.400   3.881   4.106  0.8550  0.0498  0.5220
 7303TIP3   OH243323   2.350   0.482  16.622 -0.2210  0.5319  0.2072
 7303TIP3    H143324   2.413   0.543  16.584 -1.0390  0.8066 -0.7431
 7303TIP3    H243325   2.346   0.507  16.715  2.7538 -0.9721  0.8705
 7304TIP3   OH243326   3.603   1.562   3.306  0.5225  0.8420 -0.1053
 7304TIP3    H143327   3.536   1.499   3.278 -0.5441  1.2661  1.3456
 7304TIP3    H243328   3.565   1.647   3.286  0.8825  1.0780  0.2022
 7305TIP3   OH243329   0.788   2.024   3.145 -0.1737 -0.0556  0.3545
 7305TIP3    H143330   0.711   1.986   3.188 -0.3876  0.8446  0.8007
 7305TIP3    H243331   0.862   1.996   3.198 -0.3675  0.4309  0.9016
 7306TIP3   OH243332   2.376   0.782   0.242 -0.3823  0.6029  0.5436
 7306TIP3    H143333   2.438   0.854   0.249  1.6123 -0.9769  0.2364
 7306TIP3    H243334   2.364   0.752   0.332  0.6167 -0.0900  0.4652
 7307TIP3   OH243335   5.860   4.418   3.810  0.4810 -0.0989 -0.3469
 7307TIP3    H143336   5.772   4.383   3.796 -0.8722  1.9225  2.1374
 7307TIP3    H243337   5.895   4.368   3.883 -0.9075  2.4467  2.2825
 7308TIP3   OH243338   3.556   2.183   0.306  0.1391 -0.3616  0.7030
 7308TIP3    H143339   3.480   2.149   0.353 -0.4527  0.0243  0.0518
 7308TIP3    H243340   3.594   2.107   0.263 -0.3319 -0.4317  0.4087
 7309TIP3   OH243341   6.618   6.369  17.285  0.7191 -0.5278  0.0758
 7309TIP3    H143342   6.547   6.306  17.276  0.7172 -0.4531 -0.4335
 7309TIP3    H243343   6.696   6.315  17.299  0.6552 -0.6251  0.0593
 7310TIP3   OH243344   0.307   1.982   1.496 -0.5664  0.9065 -0.1898
 7310TIP3    H143345   0.347   2.017   1.575 -0.2888  0.5860 -0.1895
 7310TIP3    H243346   0.289   2.060   1.442 -1.5166  1.2045  0.5303
 7311TIP3   OH243347   5.679   1.136   5.310  0.4988  0.0026 -0.2644
 7311TIP3    H143348   5.597   1.159   5.353  0.3451  0.6587 -0.8879
 7311TIP3    H243349   5.702   1.214   5.259  0.9683 -0.5447 -0.9103
 7312TIP3   OH243350   0.161   0.966   5.704 -0.1637  0.0783  0.3499
 7312TIP3    H143351   0.162   1.049   5.753 -0.2719 -0.1021  0.6647
 7312TIP3    H243352   0.105   0.909   5.756 -1.7423  0.4209 -0.9234
 7313TIP3   OH243353   4.337   0.389  11.131  0.5584  0.4135  0.3053
 7313TIP3    H143354   4.282   0.371  11.208  0.4095 -3.1483 -0.4410
 7313TIP3    H243355   4.277   0.430  11.068 -0.3603 -0.2211  0.7357
 7314TIP3   OH243356   6.130   1.446   0.071 -0.1697  0.5322  0.8391
 7314TIP3    H143357   6.048   1.413   0.033  2.0095 -2.7139 -1.5159
 7314TIP3    H243358   6.167   1.372   0.118  1.6010  1.8189  1.5804
 7315TIP3   OH243359   3.154   4.204   4.335  0.2353 -0.2386  0.2112
 7315TIP3    H143360   3.170   4.281   4.281 -0.3656 -0.0232  0.3305
 7315TIP3    H243361   3.192   4.132   4.286 -0.6884 -0.1089 -0.7131
 7316TIP3   OH243362   2.573   5.860  10.624 -0.0826  0.0288 -0.3725
 7316TIP3    H143363   2.660   5.827  10.648 -0.0604 -0.2803 -0.8680
 7316TIP3    H243364   2.557   5.825  10.537 -0.3778  0.7292 -0.6111
 7317TIP3   OH243365   1.281   3.316   0.905 -0.2071 -0.2429 -0.1880
 7317TIP3    H143366   1.194   3.321   0.944 -0.7402  0.7655 -1.4170
 7317TIP3    H243367   1.328   3.392   0.939 -0.7721  0.8070 -1.6642
 7318TIP3   OH243368   5.971   4.036  10.939  0.2332 -0.4194  0.5878
 7318TIP3    H143369   6.061   4.067  10.939 -0.0063  0.3227 -0.2897
 7318TIP3    H243370   5.941   4.048  10.849 -0.2816 -2.0574  0.5090
 7319TIP3   OH243371   4.125   4.032  15.456 -0.1961 -0.1728  0.1194
 7319TIP3    H143372   4.134   3.956  15.514 -0.2953  0.2925  0.7502
 7319TIP3    H243373   4.161   4.002  15.373 -0.4879 -1.0055  0.2771
 7320TIP3   OH243374   4.607   3.309  15.609  0.7347  0.5456  0.0614
 7320TIP3    H143375   4.683   3.276  15.657 -0.4925  0.2606  1.8829
 7320TIP3    H243376   4.570   3.231  15.568  0.8783  0.5338 -0.0492
 7321TIP3   OH243377   1.628   5.890   4.275  0.3792 -0.2084  0.3120
 7321TIP3    H143378   1.666   5.848   4.199 -0.1890 -2.4474  1.1925
 7321TIP3    H243379   1.598   5.818   4.330  1.0815  1.2850  2.8270
 7322TIP3   OH243380   2.281   3.651   5.263 -0.1194  0.1843  0.3520
 7322TIP3    H143381   2.293   3.618   5.174  0.6174 -1.9196  1.1791
 7322TIP3    H243382   2.350   3.717   5.273 -0.2738  0.5180 -0.6391
 7323TIP3   OH243383   4.050   5.845   5.530  0.0453 -0.3094  0.6675
 7323TIP3    H143384   4.073   5.854   5.622 -0.1909  0.9453  0.6196
 7323TIP3    H243385   4.035   5.934   5.500  2.1510 -0.4497 -1.1245
 7324TIP3   OH243386   6.142   6.211   3.880 -0.2005  0.1390  0.0389
 7324TIP3    H143387   6.060   6.184   3.920 -0.6144  0.4796 -0.5561
 7324TIP3    H243388   6.196   6.242   3.952  0.2710 -2.1514  0.7695
 7325TIP3   OH243389   4.616   1.063   0.747 -0.0271  0.0282 -0.0803
 7325TIP3    H143390   4.640   1.011   0.670  1.5371  1.3084 -0.5151
 7325TIP3    H243391   4.591   0.999   0.813 -0.2527 -1.1563 -1.2761
 7326TIP3   OH243392   2.516   1.391   3.098 -0.5203 -0.3296  0.2572
 7326TIP3    H143393   2.520   1.470   3.151 -1.1504  1.4085 -2.0910
 7326TIP3    H243394   2.454   1.334   3.143  0.0419  0.4307  2.0668
 7327TIP3   OH243395   1.181   5.053   3.796 -0.2579 -0.3258  0.0440
 7327TIP3    H143396   1.168   5.015   3.709 -2.9460  0.7983 -0.1263
 7327TIP3    H243397   1.111   5.015   3.850 -0.8546  1.6707  0.7586
 7328TIP3   OH243398   6.305   3.141   3.488  0.6570 -0.1852  0.1438
 7328TIP3    H143399   6.305   3.049   3.514 -0.3012 -0.9293 -2.2571
 7328TIP3    H243400   6.351   3.143   3.404 -0.3003  1.3458 -0.3879
 7329TIP3   OH243401   0.297   2.964   6.420  0.1051 -0.2325  0.4651
 7329TIP3    H143402   0.380   2.974   6.375  0.0792  0.7210  0.5998
 7329TIP3    H243403   0.256   3.051   6.415 -1.4829 -1.0024 -0.7748
 7330TIP3   OH243404   2.909   1.152  13.616  0.9570 -0.1278  0.3174
 7330TIP3    H143405   2.964   1.226  13.589  0.7307 -0.3027 -0.6634
 7330TIP3    H243406   2.872   1.179  13.700 -0.1999  1.4636 -0.6433
 7331TIP3   OH243407   3.979   2.134  11.133  0.3227 -0.5507 -0.3066
 7331TIP3    H143408   4.000   2.227  11.142  0.7945 -0.6900  0.1298
 7331TIP3    H243409   3.945   2.109  11.219 -1.7685 -0.3165 -1.0208
 7332TIP3   OH243410   0.634   1.280   0.438 -0.9311 -0.5553 -0.6712
 7332TIP3    H143411   0.645   1.268   0.344 -1.4381 -1.7836 -0.5860
 7332TIP3    H243412   0.716   1.323   0.466 -0.7148 -0.3184 -1.6333
 7333TIP3   OH243413   1.930   6.517  16.281  0.2478 -0.4008  0.0019
 7333TIP3    H143414   2.009   6.569  16.267  0.0585 -0.1662 -0.2083
 7333TIP3    H243415   1.906   6.487  16.194 -0.0528 -0.2402  0.0287
 7334TIP3   OH243416   0.139   3.888  13.601  0.2150 -0.4896 -0.0252
 7334TIP3    H143417   0.196   3.914  13.673 -1.8950 -0.6312  1.7972
 7334TIP3    H243418   0.055   3.931  13.619 -0.3334 -0.2777 -2.5920
 7335TIP3   OH243419   0.381   2.056   1.136  0.1727  0.3194  0.4176
 7335TIP3    H143420   0.341   2.065   1.049  2.6685 -2.2181 -1.1750
 7335TIP3    H243421   0.387   1.961   1.149  2.6890  0.6200  1.9560
 7336TIP3   OH243422   1.390   3.221   0.262 -0.0862 -0.5050 -0.1220
 7336TIP3    H143423   1.323   3.218   0.330 -2.0145  1.3479 -1.7836
 7336TIP3    H243424   1.426   3.310   0.267  0.4665 -0.6740 -0.8548
 7337TIP3   OH243425   4.708   1.620   2.657 -0.0586  0.6450 -0.7891
 7337TIP3    H143426   4.792   1.612   2.703 -1.7528 -0.0280  2.4849
 7337TIP3    H243427   4.718   1.564   2.580  1.7434 -1.3380  0.7440
 7338TIP3   OH243428   0.622   4.516  11.852 -0.4913  0.1412  0.1091
 7338TIP3    H143429   0.683   4.570  11.802  0.1825  0.1971  0.9624
 7338TIP3    H243430   0.620   4.557  11.939 -1.7119  0.1085  0.1098
 7339TIP3   OH243431   3.674   2.386  12.273 -0.0334  0.1689  0.0084
 7339TIP3    H143432   3.745   2.376  12.335 -0.1481 -3.8479 -0.2530
 7339TIP3    H243433   3.717   2.391  12.187 -0.0265  1.7897  0.0663
 7340TIP3   OH243434   1.908   5.586   2.150 -0.1808  0.2553 -0.3846
 7340TIP3    H143435   1.870   5.507   2.112 -0.5374  0.4501 -0.4333
 7340TIP3    H243436   1.931   5.561   2.239 -0.0306  0.0157 -0.4895
 7341TIP3   OH243437   3.401   1.151  13.708  0.1215  0.3396 -0.1677
 7341TIP3    H143438   3.429   1.114  13.791  1.3267  0.3029 -0.5673
 7341TIP3    H243439   3.338   1.220  13.732  0.1144  0.0307  0.7311
 7342TIP3   OH243440   4.123   3.732   3.399  0.2087 -0.1410 -0.0884
 7342TIP3    H143441   4.148   3.705   3.487  0.3420  0.7079  0.1396
 7342TIP3    H243442   4.113   3.649   3.351  2.3913 -0.5914  0.0908
 7343TIP3   OH243443   4.477   1.956  13.642 -0.0716 -0.0281  0.3367
 7343TIP3    H143444   4.534   1.889  13.681  0.8576  0.9735  0.7639
 7343TIP3    H243445   4.538   2.019  13.604 -0.9249 -0.7428 -2.4709
 7344TIP3   OH243446   2.853   1.650  11.189  0.0397  0.4302 -0.1760
 7344TIP3    H143447   2.911   1.704  11.134  1.7775 -0.8532  0.2811
 7344TIP3    H243448   2.912   1.586  11.228 -1.5093 -0.0281  1.5132
 7345TIP3   OH243449   3.290   1.286  12.415 -0.1233  0.1505  0.1632
 7345TIP3    H143450   3.351   1.219  12.445 -0.2857  0.9044  2.3464
 7345TIP3    H243451   3.332   1.369  12.438 -1.7998  0.6908  1.4785
 7346TIP3   OH243452   3.292   0.511   3.218  0.1395 -0.4890 -0.1686
 7346TIP3    H143453   3.360   0.472   3.273 -0.7835  0.8674  2.0470
 7346TIP3    H243454   3.275   0.445   3.151  1.7907 -1.9379  0.7504
 7347TIP3   OH243455   1.299   5.773   2.603  0.3037  0.0850 -0.5817
 7347TIP3    H143456   1.388   5.788   2.637  0.0887 -0.6631  0.3624
 7347TIP3    H243457   1.309   5.702   2.541  0.6483  1.2464 -1.9036
 7348TIP3   OH243458   3.680   2.941  14.580  0.0836 -0.2553  0.0183
 7348TIP3    H143459   3.624   2.919  14.654  1.5291 -2.5385  0.5485
 7348TIP3    H243460   3.760   2.975  14.619  0.0744  0.4996 -0.6024
 7349TIP3   OH243461   3.067   5.508  12.494 -0.3756  0.5480  0.1514
 7349TIP3    H143462   3.009   5.557  12.552 -1.0075 -0.4044  0.3519
 7349TIP3    H243463   3.145   5.562  12.488  0.8691 -0.4408  4.0613
 7350TIP3   OH243464   0.174   6.253   2.023  0.0964 -0.3037  0.5137
 7350TIP3    H143465   0.093   6.268   2.073  0.2273 -1.9481  1.2735
 7350TIP3    H243466   0.160   6.301   1.941 -1.6284 -0.4776  0.6538
 7351TIP3   OH243467   5.732   2.226   5.383 -0.2870 -0.1377  0.2743
 7351TIP3    H143468   5.668   2.279   5.336 -0.1255  0.0972  0.3165
 7351TIP3    H243469   5.752   2.276   5.462  1.6345  0.9473 -0.7927
 7352TIP3   OH243470   0.342   6.151   0.250  0.1051 -0.0394  0.4818
 7352TIP3    H143471   0.282   6.109   0.311 -1.1471 -0.6392 -1.1079
 7352TIP3    H243472   0.334   6.245   0.271 -1.8869 -0.0338 -0.0777
 7353TIP3   OH243473   0.820   0.481   1.093 -0.3341 -0.0088 -0.4880
 7353TIP3    H143474   0.740   0.497   1.144 -0.4389 -0.6222 -0.4579
 7353TIP3    H243475   0.878   0.436   1.154 -0.3411 -0.4631 -0.8113
 7354TIP3   OH243476   4.065   3.356   3.714  0.4677  0.0919 -0.0560
 7354TIP3    H143477   4.019   3.302   3.651  1.7038 -1.3455  0.2121
 7354TIP3    H243478   3.997   3.407   3.757 -0.4441  0.8879 -2.2930
 7355TIP3   OH243479   1.672   3.008  16.403 -0.0388 -0.0069  0.2023
 7355TIP3    H143480   1.765   2.983  16.397 -0.2216 -1.0830  1.4623
 7355TIP3    H243481   1.627   2.944  16.348  0.1265  1.9591 -2.4240
 7356TIP3   OH243482   4.149   4.860  11.106 -0.0276  0.2432 -0.1613
 7356TIP3    H143483   4.184   4.916  11.175  0.9804  1.4523 -1.6007
 7356TIP3    H243484   4.212   4.868  11.034 -0.2282 -2.1890 -0.6999
 7357TIP3   OH243485   4.354   2.456  11.576 -0.3960 -0.2790  0.3715
 7357TIP3    H143486   4.317   2.522  11.517  0.5483  0.4611  0.5843
 7357TIP3    H243487   4.426   2.418  11.527  0.6005  0.5634  1.1423
 7358TIP3   OH243488   6.388   1.017  15.227 -0.0671 -0.1401 -0.5528
 7358TIP3    H143489   6.452   1.047  15.292 -0.6473 -1.1080  0.5040
 7358TIP3    H243490   6.303   1.029  15.270 -0.8276  2.7439 -2.5638
 7359TIP3   OH243491   2.693   3.918   2.317  0.9609  0.5252 -0.3287
 7359TIP3    H143492   2.769   3.900   2.373  1.4986  1.6552 -0.6770
 7359TIP3    H243493   2.638   3.841   2.328  1.2012  0.5620  1.5085
 7360TIP3   OH243494   1.925   0.815  17.171  0.5854  0.2620  0.6684
 7360TIP3    H143495   1.843   0.777  17.140  0.2948  1.7307 -0.5123
 7360TIP3    H243496   1.993   0.765  17.126  0.3188 -0.5097  1.1105
 7361TIP3   OH243497   5.065   3.012   4.691  0.1119 -0.0824 -0.1269
 7361TIP3    H143498   5.089   3.081   4.629  0.7163  0.5676  0.8013
 7361TIP3    H243499   5.007   3.056   4.754 -1.7992 -1.1115 -1.0948
 7362TIP3   OH243500   0.763   1.084  11.839  0.5673  0.3547 -0.6345
 7362TIP3    H143501   0.686   1.132  11.869  0.5284 -0.2761  0.3230
 7362TIP3    H243502   0.801   1.139  11.771 -0.1077  1.1972 -0.3440
 7363TIP3   OH243503   6.141   0.401  16.666  0.1447 -0.0989 -0.1940
 7363TIP3    H143504   6.050   0.405  16.695  0.1880  0.1562 -0.0938
 7363TIP3    H243505   6.140   0.436  16.577 -0.2093 -2.1074 -1.0479
 7364TIP3   OH243506   5.858   1.969  17.134 -0.3731  0.5081 -0.0510
 7364TIP3    H143507   5.811   1.949  17.215 -1.9353 -1.5412 -1.3546
 7364TIP3    H243508   5.936   2.017  17.162 -0.1639 -1.2752  2.7945
 7365TIP3   OH243509   2.119   4.567  11.687  0.7810  0.5135  0.1947
 7365TIP3    H143510   2.075   4.612  11.759  1.6200  1.0286  0.4033
 7365TIP3    H243511   2.212   4.585  11.701  0.9593  0.5722 -0.9743
 7366TIP3   OH243512   3.551   3.471  15.901 -0.0210  0.0281  0.7119
 7366TIP3    H143513   3.589   3.510  15.823 -2.5918  0.3345 -0.5090
 7366TIP3    H243514   3.596   3.387  15.911  0.4856  0.0674 -0.9954
 7367TIP3   OH243515   3.649   2.634  15.037 -0.0182 -0.1725  0.1443
 7367TIP3    H143516   3.642   2.623  14.943  0.4051 -2.0248  0.2970
 7367TIP3    H243517   3.643   2.729  15.051 -0.3057  0.1065 -1.7036
 7368TIP3   OH243518   4.914   3.022   6.020 -0.3654 -0.2945 -0.3385
 7368TIP3    H143519   4.897   3.090   5.955  0.2355 -2.4119 -2.9085
 7368TIP3    H243520   4.976   3.061   6.081 -1.6048  2.0819 -0.4849
 7369TIP3   OH243521   4.817   3.920  10.706  0.3711  0.0317 -0.2665
 7369TIP3    H143522   4.906   3.953  10.699  0.4689 -0.1888 -0.0681
 7369TIP3    H243523   4.771   3.959  10.632  0.9383 -0.8235 -1.1059
 7370TIP3   OH243524   0.831   5.266  12.029  0.2108 -0.1240 -0.4847
 7370TIP3    H143525   0.866   5.185  11.991 -2.0765 -1.6168  0.4074
 7370TIP3    H243526   0.831   5.328  11.956 -0.2412 -1.6750 -1.8795
 7371TIP3   OH243527   6.207   1.852   5.948 -0.0660  0.7985  0.0224
 7371TIP3    H143528   6.167   1.909   5.882 -1.6424  0.2003  0.4153
 7371TIP3    H243529   6.285   1.817   5.906 -0.5004  1.2135 -1.1597
 7372TIP3   OH243530   2.052   0.971  14.129  0.2518  0.2652 -0.0230
 7372TIP3    H143531   2.030   1.047  14.076 -2.2281 -1.4653 -1.7531
 7372TIP3    H243532   2.103   0.915  14.071  0.4374 -0.2028  0.5808
 7373TIP3   OH243533   1.277   2.760   5.573  0.1424 -0.3532 -0.5670
 7373TIP3    H143534   1.326   2.682   5.549  1.3073  0.3726 -0.6292
 7373TIP3    H243535   1.343   2.829   5.581 -0.7283  0.4062  0.4960
 7374TIP3   OH243536   0.424   0.322  12.326 -0.1346 -0.3344 -0.1679
 7374TIP3    H143537   0.346   0.334  12.381 -0.8925  1.8535 -1.5579
 7374TIP3    H243538   0.494   0.368  12.374 -0.1809 -0.5958  0.1518
 7375TIP3   OH243539   4.325   0.354   4.982 -0.1915  0.4658 -0.1604
 7375TIP3    H143540   4.366   0.434   5.015  0.9393  0.9169 -2.4717
 7375TIP3    H243541   4.246   0.384   4.938  0.1819  0.2980 -0.9477
 7376TIP3   OH243542   4.073   1.560  12.047  0.0555 -0.2795 -0.0933
 7376TIP3    H143543   4.013   1.510  12.104 -0.3799  1.5393  1.1314
 7376TIP3    H243544   4.160   1.531  12.074 -0.2009 -1.2896 -0.2942
 7377TIP3   OH243545   1.711   6.229   2.790 -0.1922 -0.0183 -0.4175
 7377TIP3    H143546   1.661   6.195   2.716  0.2472 -0.1272 -0.6667
 7377TIP3    H243547   1.662   6.306   2.818 -1.0406 -0.6849 -0.0265
 7378TIP3   OH243548   0.711   5.109  16.381 -0.3531  0.1662  0.1628
 7378TIP3    H143549   0.798   5.083  16.351  0.8238  2.2162  1.5291
 7378TIP3    H243550   0.666   5.136  16.301  0.9020  0.7005 -0.4030
 7379TIP3   OH243551   5.708   2.108   1.128 -0.1385  0.2355 -0.3559
 7379TIP3    H143552   5.634   2.099   1.189 -0.1480  0.5668 -0.3142
 7379TIP3    H243553   5.777   2.054   1.166 -0.4928 -0.4102 -0.6132
 7380TIP3   OH243554   0.757   1.896  12.548  0.0769 -0.3872  0.6738
 7380TIP3    H143555   0.828   1.883  12.611  2.6014 -0.4072 -1.9363
 7380TIP3    H243556   0.685   1.843  12.581  0.4563  1.2323  4.5259
 7381TIP3   OH243557   3.380   3.471   1.705  0.4627  0.3776 -0.1936
 7381TIP3    H143558   3.338   3.388   1.725  2.1112 -0.4228  0.0924
 7381TIP3    H243559   3.322   3.512   1.640 -1.1570 -0.2728  0.7704
 7382TIP3   OH243560   3.089   1.655   3.864 -0.3874 -0.4224 -0.2873
 7382TIP3    H143561   3.168   1.615   3.829  0.8144  0.3740  1.3686
 7382TIP3    H243562   3.038   1.680   3.787  1.2114 -0.5003 -1.4161
 7383TIP3   OH243563   3.265   4.948  10.710  0.4406 -0.1657  0.3500
 7383TIP3    H143564   3.335   5.010  10.727  0.7310 -0.1132 -0.9047
 7383TIP3    H243565   3.195   5.001  10.670  0.2277 -0.4422  0.3481
 7384TIP3   OH243566   4.040   3.032   2.129  0.2224 -0.1337 -0.4539
 7384TIP3    H143567   3.993   3.112   2.151  1.5489  1.0840 -1.8615
 7384TIP3    H243568   4.030   3.023   2.034  1.8783 -0.4570 -0.6181
 7385TIP3   OH243569   4.607   1.211   3.360 -0.4756  0.0592  0.5228
 7385TIP3    H143570   4.541   1.209   3.291  0.6342 -2.5308 -0.5999
 7385TIP3    H243571   4.597   1.126   3.404  1.6612 -0.1362  0.7234
 7386TIP3   OH243572   5.837   4.871  16.989  1.0998  0.4581 -0.5645
 7386TIP3    H143573   5.873   4.904  17.071 -1.6286 -0.7456  1.2679
 7386TIP3    H243574   5.807   4.949  16.943 -1.6217  1.0444  1.8639
 7387TIP3   OH243575   0.181   2.779   3.599 -0.1729 -0.1083 -0.5177
 7387TIP3    H143576   0.168   2.873   3.608 -0.2830 -0.2314  0.7758
 7387TIP3    H243577   0.101   2.748   3.557 -0.8954  0.1604  0.6040
 7388TIP3   OH243578   5.923   1.788  15.728 -0.2024  0.0475 -0.0877
 7388TIP3    H143579   5.899   1.880  15.725  1.9850  0.6483 -1.4810
 7388TIP3    H243580   5.932   1.762  15.636 -1.6822 -1.8740  0.2257
 7389TIP3   OH243581   3.291   3.261  11.490  0.7160  0.0247  0.3231
 7389TIP3    H143582   3.296   3.309  11.408  1.5629 -1.8977 -0.8178
 7389TIP3    H243583   3.197   3.247  11.505  0.5414  0.7425 -0.0827
 7390TIP3   OH243584   6.214   2.249  11.291 -0.1565 -0.4940 -0.1253
 7390TIP3    H143585   6.175   2.165  11.316 -1.1340  0.2956  1.0936
 7390TIP3    H243586   6.186   2.262  11.200 -0.0642 -1.4307 -0.2996
 7391TIP3   OH243587   1.290   1.756   3.469  0.4069 -0.1091  0.2185
 7391TIP3    H143588   1.324   1.762   3.380  0.0178 -0.9527 -0.0040
 7391TIP3    H243589   1.220   1.690   3.463  1.2919 -1.2066  1.4172
 7392TIP3   OH243590   4.050   4.377  16.011  0.2356  0.0850 -0.4242
 7392TIP3    H143591   4.003   4.305  15.969  1.4719 -1.0891  0.1446
 7392TIP3    H243592   4.021   4.373  16.103  0.0794  0.5031 -0.4556
 7393TIP3   OH243593   2.396   0.253   2.070 -0.4625  0.2110  0.6473
 7393TIP3    H143594   2.445   0.322   2.024  3.0136 -1.2492  1.8594
 7393TIP3    H243595   2.452   0.176   2.066 -2.5755 -1.5793  2.4927
 7394TIP3   OH243596   3.189   2.934  16.336 -0.0339  0.6435  0.0542
 7394TIP3    H143597   3.098   2.938  16.308  0.0100  1.9425  0.0377
 7394TIP3    H243598   3.203   3.016  16.384  0.7431 -0.1443  1.2439
 7395TIP3   OH243599   3.863   5.850   3.314 -0.1604 -0.2199 -0.2621
 7395TIP3    H143600   3.794   5.843   3.247 -1.2622  0.8233  0.7222
 7395TIP3    H243601   3.842   5.930   3.362 -0.6260 -1.9428  2.6513
 7396TIP3   OH243602   6.048   3.410  16.905  0.7754 -0.5036 -0.0709
 7396TIP3    H143603   5.998   3.353  16.963 -0.9860  0.5804 -0.4586
 7396TIP3    H243604   6.118   3.445  16.961 -0.8171  0.4475  1.4270
 7397TIP3   OH243605   4.519   0.648   2.380  0.1486 -1.1102 -0.0325
 7397TIP3    H143606   4.583   0.601   2.327  2.7829  1.0007  1.0410
 7397TIP3    H243607   4.511   0.596   2.460  2.0472 -0.4724  0.6131
 7398TIP3   OH243608   0.055   2.198   2.894  0.1225 -0.4260 -0.0966
 7398TIP3    H143609   0.140   2.168   2.926 -0.3599 -1.6377  0.1025
 7398TIP3    H243610   0.023   2.126   2.839 -0.8106 -0.0400 -0.0789
 7399TIP3   OH243611   2.997   0.013  13.899 -0.3583  0.2159 -0.3890
 7399TIP3    H143612   3.080   0.035  13.856  0.8991 -0.4773  1.5184
 7399TIP3    H243613   2.941  -0.021  13.829  0.7496  1.2338 -1.8248
 7400TIP3   OH243614   3.450   3.739   1.238 -0.1263 -0.5488 -0.7900
 7400TIP3    H143615   3.475   3.725   1.329 -1.3790 -1.5307 -0.5606
 7400TIP3    H243616   3.452   3.652   1.199  0.1437 -0.1709 -1.6357
 7401TIP3   OH243617   3.035   2.566   2.766 -0.2357  0.3838 -0.1488
 7401TIP3    H143618   3.118   2.590   2.726 -0.7008  0.7234 -0.9458
 7401TIP3    H243619   3.054   2.488   2.819  0.4058 -0.0614 -1.0177
 7402TIP3   OH243620   1.837   4.813   2.264  0.3110 -0.3402 -0.1444
 7402TIP3    H143621   1.851   4.738   2.321 -0.8426 -1.7350 -1.5984
 7402TIP3    H243622   1.920   4.860   2.265  0.3286 -0.2385  2.6909
 7403TIP3   OH243623   0.579   6.471  13.541 -0.5824 -0.0965  0.1418
 7403TIP3    H143624   0.618   6.550  13.578 -1.4382  0.3498  0.1309
 7403TIP3    H243625   0.487   6.494  13.529 -1.4799 -1.9411  2.6380
 7404TIP3   OH243626   5.982   6.327   3.096 -0.2934 -0.1633  0.2071
 7404TIP3    H143627   5.949   6.364   3.014 -2.7872 -1.6441  0.4522
 7404TIP3    H243628   6.054   6.269   3.068 -1.2084 -0.7696 -0.9834
 7405TIP3   OH243629   2.596   5.811  14.664 -0.5031  0.4076  0.2766
 7405TIP3    H143630   2.657   5.798  14.592 -1.1828  2.3577 -0.7094
 7405TIP3    H243631   2.635   5.880  14.717 -0.4910 -0.3291  1.2726
 7406TIP3   OH243632   6.554   1.395  15.606  0.0637  0.1768  0.1217
 7406TIP3    H143633   6.463   1.379  15.580  0.5678 -2.3260 -0.3764
 7406TIP3    H243634   6.590   1.448  15.534 -0.6015 -0.1528 -0.4722
 7407TIP3   OH243635   2.223   2.150  17.254  0.0131 -0.1451 -0.4089
 7407TIP3    H143636   2.218   2.175  17.346  0.8477 -2.7483  0.4418
 7407TIP3    H243637   2.311   2.115  17.243  0.0695  0.5007 -2.3236
 7408TIP3   OH243638   5.708   4.676  16.349 -0.0649 -0.0116 -0.2552
 7408TIP3    H143639   5.750   4.617  16.412 -1.2832 -0.9008 -0.2348
 7408TIP3    H243640   5.676   4.749  16.402 -0.0026 -0.1414 -0.0375
 7409TIP3   OH243641   1.164   3.701   1.261  0.0487  0.0453  0.2062
 7409TIP3    H143642   1.196   3.735   1.344  1.3534  0.2730 -0.3710
 7409TIP3    H243643   1.109   3.627   1.286 -0.7691  0.9904  1.3402
 7410TIP3   OH243644   5.022   6.450   2.271  0.2357 -0.1648 -0.2642
 7410TIP3    H143645   4.934   6.414   2.281  0.6343 -0.8989  0.8542
 7410TIP3    H243646   5.030   6.513   2.343  0.5232  0.1286 -0.5472
 7411TIP3   OH243647   2.291   0.539   5.546 -0.4368  0.1990  0.1726
 7411TIP3    H143648   2.242   0.618   5.524  0.2546  1.0682  1.6176
 7411TIP3    H243649   2.307   0.545   5.640 -1.1416 -2.1173  0.5231
 7412TIP3   OH243650   5.425   4.276  16.399 -0.1646 -0.3263 -0.1380
 7412TIP3    H143651   5.513   4.237  16.399 -0.0354 -0.0425  0.6805
 7412TIP3    H243652   5.389   4.253  16.313  0.9967  0.2141 -0.7833
 7413TIP3   OH243653   1.239   0.598   3.971 -0.3313 -0.3841 -0.2182
 7413TIP3    H143654   1.330   0.611   3.945 -0.3209 -0.5667 -0.2704
 7413TIP3    H243655   1.227   0.657   4.046 -0.3674  0.1610 -0.6455
 7414TIP3   OH243656   4.086   2.199   2.808  0.1458  1.0480  0.1501
 7414TIP3    H143657   4.084   2.149   2.727 -2.7692  0.5800  0.3999
 7414TIP3    H243658   4.109   2.288   2.781 -0.6752  0.8811 -1.1897
 7415TIP3   OH243659   5.672   1.026  15.085 -0.0139 -0.0855 -0.6018
 7415TIP3    H143660   5.613   1.099  15.065  1.0846  1.2228  0.6959
 7415TIP3    H243661   5.678   0.977  15.003 -1.4068  0.8139 -1.2846
 7416TIP3   OH243662   4.226   1.542   2.205 -0.2818 -0.0155 -0.7669
 7416TIP3    H143663   4.203   1.619   2.258  0.9298  1.0749 -1.7530
 7416TIP3    H243664   4.225   1.469   2.267 -0.4517  0.9601  0.4217
 7417TIP3   OH243665   3.880   6.254  14.409  0.7210 -0.4550 -0.2990
 7417TIP3    H143666   3.849   6.194  14.476 -2.0950  0.6986 -0.4315
 7417TIP3    H243667   3.975   6.243  14.409  0.5553 -2.6638  1.7395
 7418TIP3   OH243668   1.320   4.546  16.085 -0.5069  0.2779 -0.6804
 7418TIP3    H143669   1.367   4.472  16.046 -0.1430 -0.6717  1.4659
 7418TIP3    H243670   1.250   4.507  16.136 -1.3415  1.5257 -0.8181
 7419TIP3   OH243671   0.990   1.595  15.226 -0.2598 -0.2704 -0.2786
 7419TIP3    H143672   0.933   1.623  15.153  0.6664  3.7117  0.3032
 7419TIP3    H243673   1.063   1.551  15.183 -0.9391 -0.2131 -1.5533
 7420TIP3   OH243674   6.597   5.442  12.425  0.1856 -0.6760  0.5097
 7420TIP3    H143675   6.538   5.397  12.485  0.0247 -1.7040 -0.3915
 7420TIP3    H243676   6.683   5.437  12.468 -0.5583  2.4587  2.7395
 7421TIP3   OH243677   2.987   2.787  16.688 -0.1071 -0.1170 -0.0048
 7421TIP3    H143678   3.044   2.710  16.691  0.3083  0.1827 -0.1001
 7421TIP3    H243679   3.041   2.855  16.648 -0.8180 -0.0670 -0.9069
 7422TIP3   OH243680   6.283   4.358   5.586  0.2964 -0.4434 -0.2659
 7422TIP3    H143681   6.262   4.307   5.664  0.6335  0.7671  0.6419
 7422TIP3    H243682   6.325   4.437   5.619 -0.8415  0.7753 -1.5651
 7423TIP3   OH243683   4.880   4.231  14.207  0.2653  0.0126 -0.2384
 7423TIP3    H143684   4.950   4.181  14.248 -0.0543  0.8071  1.3571
 7423TIP3    H243685   4.802   4.210  14.259 -0.5474 -0.2435 -1.4896
 7424TIP3   OH243686   4.419   4.075   4.028  0.1530 -0.8617 -0.6223
 7424TIP3    H143687   4.330   4.062   3.995  0.4471 -1.0923 -1.3550
 7424TIP3    H243688   4.437   4.168   4.013  0.9874 -1.3315 -3.0075
 7425TIP3   OH243689   4.724   2.054   1.213 -0.0515  0.3982  0.5921
 7425TIP3    H143690   4.750   2.074   1.303  2.8627  2.0068 -0.5056
 7425TIP3    H243691   4.670   2.129   1.187  0.1526  0.5411  0.5829
 7426TIP3   OH243692   4.453   2.443   2.106 -0.0824 -0.0742 -0.2108
 7426TIP3    H143693   4.475   2.351   2.088 -0.5064  0.1927 -2.3254
 7426TIP3    H243694   4.364   2.440   2.140 -0.7603 -0.3627 -1.9100
 7427TIP3   OH243695   2.694   1.072   5.375 -0.4997 -0.0984 -0.5122
 7427TIP3    H143696   2.639   1.123   5.316 -2.1340  1.4925  2.1971
 7427TIP3    H243697   2.784   1.099   5.354 -0.8915 -0.4818 -2.9671
 7428TIP3   OH243698   0.664   2.777  16.478  0.1495  0.2287  0.2775
 7428TIP3    H143699   0.589   2.763  16.536  0.7103 -0.2552  0.9068
 7428TIP3    H243700   0.737   2.798  16.537  0.4123  1.1635 -0.3547
 7429TIP3   OH243701   5.912   2.464   2.725 -0.1100 -0.0429 -0.5784
 7429TIP3    H143702   5.958   2.544   2.751  1.1294 -0.5735 -1.0712
 7429TIP3    H243703   5.952   2.439   2.642  0.1872 -1.6686  0.0064
 7430TIP3   OH243704   1.232   4.937  15.018 -0.1451 -0.1710  0.1137
 7430TIP3    H143705   1.320   4.958  15.050 -0.1699  0.4755 -0.2294
 7430TIP3    H243706   1.226   4.842  15.024 -0.0919 -0.1027  1.9047
 7431TIP3   OH243707   1.082   6.219  13.190  0.2424  0.6913 -0.2694
 7431TIP3    H143708   1.009   6.167  13.225  1.8246 -1.6127 -0.1848
 7431TIP3    H243709   1.058   6.234  13.098  0.3341 -1.4623 -0.6946
 7432TIP3   OH243710   6.362   3.423  12.518  0.2652 -0.3086  0.4280
 7432TIP3    H143711   6.324   3.473  12.445 -0.3500  0.8225  1.4820
 7432TIP3    H243712   6.307   3.346  12.526  0.0393 -0.1944 -0.0049
 7433TIP3   OH243713   5.683   4.299   0.006 -0.6396  0.3391  0.1460
 7433TIP3    H143714   5.597   4.334   0.029 -0.0601  1.5070  0.6565
 7433TIP3    H243715   5.738   4.320   0.082  0.9709  2.9608 -1.5716
 7434TIP3   OH243716   3.748   6.243   5.282 -0.0576 -0.0526 -0.5200
 7434TIP3    H143717   3.739   6.336   5.261 -1.5264  0.0761  0.5452
 7434TIP3    H243718   3.767   6.242   5.376 -2.5122 -0.8609  0.0402
 7435TIP3   OH243719   6.729   2.418  14.232 -0.2556 -0.0970 -0.3203
 7435TIP3    H143720   6.763   2.332  14.210  0.4823  0.1566 -0.2094
 7435TIP3    H243721   6.784   2.479  14.182  0.6222  0.4215  1.1942
 7436TIP3   OH243722   1.405   1.959  11.134  0.8591  0.0609  0.3755
 7436TIP3    H143723   1.467   2.018  11.090  0.6684 -0.9647 -1.3891
 7436TIP3    H243724   1.454   1.877  11.145 -0.3045 -1.0009 -1.6791
 7437TIP3   OH243725   1.443   6.244  15.625  0.3024  0.6719 -0.0835
 7437TIP3    H143726   1.480   6.210  15.706 -0.5906 -3.1031 -1.0519
 7437TIP3    H243727   1.408   6.330  15.649  0.2629 -0.1620  3.4574
 7438TIP3   OH243728   4.199   0.388  11.394  0.5201  0.6121 -0.1120
 7438TIP3    H143729   4.253   0.453  11.440 -0.9603  1.8809 -0.1012
 7438TIP3    H243730   4.112   0.398  11.432  0.5817 -2.7159  1.2221
 7439TIP3   OH243731   2.613   2.001   0.817 -0.2077 -0.2010  0.0757
 7439TIP3    H143732   2.546   2.062   0.847  0.6013  0.4662  0.5562
 7439TIP3    H243733   2.639   1.953   0.896 -0.2031 -0.5449 -0.1298
 7440TIP3   OH243734   5.884   2.673   0.827  0.0458 -0.4053 -0.2082
 7440TIP3    H143735   5.838   2.593   0.852 -0.8768 -0.1665 -1.0614
 7440TIP3    H243736   5.959   2.643   0.776  0.7903 -0.7988  1.0990
 7441TIP3   OH243737   0.057   2.603   4.579  0.0724  0.8169  0.1269
 7441TIP3    H143738   0.079   2.692   4.607  0.8523  1.2121 -1.6123
 7441TIP3    H243739  -0.032   2.589   4.611 -0.3743  2.5424 -0.2461
 7442TIP3   OH243740   3.370   4.886   4.042  0.3212  0.2775  0.1663
 7442TIP3    H143741   3.354   4.939   3.964  1.9585 -0.6656 -0.8729
 7442TIP3    H243742   3.455   4.916   4.075 -0.4278  0.7988  1.7628
 7443TIP3   OH243743   0.704   2.817   4.568 -0.0992  0.1179 -0.6216
 7443TIP3    H143744   0.652   2.836   4.489  0.1607  1.0265 -0.5877
 7443TIP3    H243745   0.761   2.893   4.578  0.5217 -0.4058 -0.0690
 7444TIP3   OH243746   3.808   4.784   6.154  0.6546 -0.1094 -0.3212
 7444TIP3    H143747   3.866   4.708   6.150  1.1847  0.3423 -2.3139
 7444TIP3    H243748   3.722   4.750   6.131  0.3761 -0.5240  1.2400
 7445TIP3   OH243749   1.341   3.154  16.659 -0.0204  0.4342 -0.3958
 7445TIP3    H143750   1.402   3.144  16.732  2.5743  0.9087 -2.3541
 7445TIP3    H243751   1.345   3.069  16.614  0.8400  1.1361 -1.6888
 7446TIP3   OH243752   2.999   3.897  14.579  0.4034 -0.1921 -0.1380
 7446TIP3    H143753   3.018   3.969  14.640  0.5754 -1.3468  1.2269
 7446TIP3    H243754   3.064   3.908  14.509  1.2324  0.2720  0.6724
 7447TIP3   OH243755   2.877   2.813   2.804 -0.1649 -0.0508 -0.2755
 7447TIP3    H143756   2.948   2.852   2.855 -1.9617 -0.0587  2.4201
 7447TIP3    H243757   2.897   2.719   2.802 -0.6395 -0.2133  1.4807
 7448TIP3   OH243758   0.974   2.545  12.098 -0.8026 -0.5631  0.0994
 7448TIP3    H143759   1.030   2.467  12.096 -0.5407 -0.4056  0.9058
 7448TIP3    H243760   0.985   2.580  12.186 -1.1477  0.2253 -0.1615
 7449TIP3   OH243761   4.893   0.937  15.976  0.3157  0.2030  0.3392
 7449TIP3    H143762   4.985   0.925  15.997  0.3921 -0.7770 -0.4751
 7449TIP3    H243763   4.888   1.024  15.935  0.8370  0.3560  0.6035
 7450TIP3   OH243764   2.456   5.867  15.621 -0.1097  0.4737  0.5909
 7450TIP3    H143765   2.542   5.867  15.580  0.2290  0.6678  1.3027
 7450TIP3    H243766   2.411   5.943  15.582 -1.4195 -1.7406 -2.7380
 7451TIP3   OH243767   2.240   5.190   3.290 -0.2614  0.5761  0.2476
 7451TIP3    H143768   2.229   5.184   3.385  0.6404  0.0760  0.3301
 7451TIP3    H243769   2.279   5.277   3.277  2.6503 -0.5499  0.6788
 7452TIP3   OH243770   3.467   6.133   0.414  0.1125 -0.0235  0.2563
 7452TIP3    H143771   3.383   6.114   0.456  0.3313 -1.5484  0.0799
 7452TIP3    H243772   3.454   6.111   0.322  0.8833 -0.9676  0.3508
 7453TIP3   OH243773   4.927   4.330   5.022  0.1804  0.7560  0.2049
 7453TIP3    H143774   4.992   4.337   5.092 -0.8456 -0.7139  1.3519
 7453TIP3    H243775   4.847   4.302   5.065 -1.1483  2.1042 -1.2479
 7454TIP3   OH243776   4.032   2.363  15.637 -0.3987 -0.4181  0.0586
 7454TIP3    H143777   3.953   2.311  15.621 -1.1976  0.6620  0.4129
 7454TIP3    H243778   4.091   2.303  15.683  0.0800 -2.0703 -2.4973
 7455TIP3   OH243779   2.003   1.336   4.740 -0.3663 -0.0158 -0.0190
 7455TIP3    H143780   1.980   1.245   4.726 -0.7154 -0.0127  0.5230
 7455TIP3    H243781   2.078   1.351   4.682 -0.8608 -0.3943 -0.7689
 7456TIP3   OH243782   4.923   3.988  12.869 -0.1576  0.3859 -0.1612
 7456TIP3    H143783   4.922   3.988  12.965  0.1618  0.2441 -0.1583
 7456TIP3    H243784   4.894   4.076  12.844 -2.0286 -0.1106  0.0545
 7457TIP3   OH243785   1.385   3.465  14.702 -0.1472  0.2610 -0.5402
 7457TIP3    H143786   1.458   3.469  14.640 -0.5650 -0.0949 -1.0671
 7457TIP3    H243787   1.330   3.393  14.670  1.1208 -1.9794  1.8893
 7458TIP3   OH243788   4.770   0.461   2.772 -0.2213  0.1105 -0.7421
 7458TIP3    H143789   4.844   0.462   2.834  0.8860  1.0371 -2.0045
 7458TIP3    H243790   4.769   0.372   2.738  0.4424  0.1266 -0.8279
 7459TIP3   OH243791   1.138   5.701  12.874 -0.1451 -0.0258  0.1464
 7459TIP3    H143792   1.099   5.692  12.960 -1.2213  0.5660 -0.2643
 7459TIP3    H243793   1.082   5.650  12.816  0.4833 -0.2967 -0.2365
 7460TIP3   OH243794   2.459   3.562  13.679 -0.6756 -0.0905  0.7293
 7460TIP3    H143795   2.380   3.571  13.627 -0.7834 -0.6066  0.7994
 7460TIP3    H243796   2.494   3.651  13.686 -1.9419  0.3654  1.7831
 7461TIP3   OH243797   5.080   5.930   3.688  0.1929 -0.0448 -0.0286
 7461TIP3    H143798   5.056   5.948   3.597 -2.4682 -0.2565  0.5419
 7461TIP3    H243799   5.095   5.836   3.691 -0.0413 -0.0896 -0.2018
 7462TIP3   OH243800   6.541   0.985   1.798 -0.3297 -0.2379 -0.1157
 7462TIP3    H143801   6.509   1.060   1.849 -0.2008  0.1833 -0.6350
 7462TIP3    H243802   6.569   1.024   1.715  0.8207 -0.7068  0.0369
 7463TIP3   OH243803   2.834   6.490  14.654 -0.5617  0.2616  0.3190
 7463TIP3    H143804   2.809   6.499  14.562 -0.1368  0.1859  0.1923
 7463TIP3    H243805   2.762   6.529  14.703 -1.8842 -1.7177  0.0582
 7464TIP3   OH243806   5.428   1.992  12.010  0.4841  0.2841 -0.6775
 7464TIP3    H143807   5.520   1.963  12.007  0.9268  1.5833 -0.3404
 7464TIP3    H243808   5.395   1.975  11.922  0.6006 -1.5144 -0.4294
 7465TIP3   OH243809   5.026   1.539   4.441  0.3223 -0.3163  0.4097
 7465TIP3    H143810   4.938   1.549   4.405  0.2947 -1.0684  0.2718
 7465TIP3    H243811   5.082   1.589   4.381 -0.1995  1.5701  1.3900
 7466TIP3   OH243812   4.760   4.445   1.072 -0.2402  0.2126  0.5853
 7466TIP3    H143813   4.732   4.395   1.148  0.7513  1.4291  1.8041
 7466TIP3    H243814   4.814   4.516   1.108  0.1204  0.9275 -1.2334
 7467TIP3   OH243815   2.936   4.340  16.678 -0.1462  0.1311 -0.2847
 7467TIP3    H143816   2.868   4.398  16.713  0.7866  0.9652  0.2167
 7467TIP3    H243817   2.977   4.392  16.608  0.6519  0.0631  0.1220
 7468TIP3   OH243818   5.331   0.298  10.969  0.3421 -0.2289 -0.2748
 7468TIP3    H143819   5.414   0.332  10.936  0.5205  0.9549  1.2639
 7468TIP3    H243820   5.265   0.333  10.909  0.5008  3.1408  1.2605
 7469TIP3   OH243821   6.205   0.473   4.538 -0.6608  0.0611  0.0650
 7469TIP3    H143822   6.120   0.493   4.576 -0.1225  1.8779  0.4394
 7469TIP3    H243823   6.187   0.407   4.471 -2.5350  1.1656 -0.6011
 7470TIP3   OH243824   5.391   5.387  11.360  0.1622  0.2258 -0.1629
 7470TIP3    H143825   5.425   5.297  11.359  0.1175  0.1997  0.5284
 7470TIP3    H243826   5.352   5.398  11.273  0.7448 -0.1994 -0.4870
 7471TIP3   OH243827   2.913   5.283   5.807  0.3989  0.0848  0.6548
 7471TIP3    H143828   2.974   5.285   5.733  0.1156  0.0373  0.4191
 7471TIP3    H243829   2.940   5.356   5.862  0.6174  0.1161  0.5085
 7472TIP3   OH243830   6.362   1.572  14.841  0.3112 -0.7465 -0.0069
 7472TIP3    H143831   6.343   1.646  14.784 -0.4449 -0.9671 -0.0489
 7472TIP3    H243832   6.458   1.572  14.850  0.4303 -0.6031 -1.1328
 7473TIP3   OH243833   2.854   2.256  11.838  0.2862 -0.8102  0.0005
 7473TIP3    H143834   2.846   2.306  11.757  0.4671  0.2564  0.6269
 7473TIP3    H243835   2.835   2.319  11.907 -0.3781 -1.8304  0.7771
 7474TIP3   OH243836   4.282   3.537   4.631 -0.0618  0.0287  0.4210
 7474TIP3    H143837   4.250   3.501   4.714  1.0036 -1.4470  0.2266
 7474TIP3    H243838   4.324   3.619   4.655  0.1851 -0.3522  1.3456
 7475TIP3   OH243839   2.476   0.697  14.775 -0.7081 -0.3861  0.5299
 7475TIP3    H143840   2.410   0.660  14.833 -0.2503 -0.6787  0.8721
 7475TIP3    H243841   2.470   0.791  14.787 -2.0641 -0.2885 -0.5321
 7476TIP3   OH243842   1.349   5.201   3.940  0.0154 -0.6788 -0.4138
 7476TIP3    H143843   1.336   5.290   3.907  0.3170  0.4981  2.3675
 7476TIP3    H243844   1.274   5.152   3.907 -0.9301  0.9743 -0.8106
 7477TIP3   OH243845   4.776   1.461   1.447 -0.3171 -0.0224  0.5120
 7477TIP3    H143846   4.739   1.433   1.531  0.8090 -1.5303  0.5433
 7477TIP3    H243847   4.845   1.522   1.470 -1.0348  0.7770  0.5846
 7478TIP3   OH243848   2.667   3.876   5.605  0.5322 -0.1498  0.3382
 7478TIP3    H143849   2.624   3.831   5.677  0.8381  0.0705  0.6608
 7478TIP3    H243850   2.595   3.908   5.550  0.2579  0.5995  1.1008
 7479TIP3   OH243851   4.137   1.938   1.593  0.3524  0.1354  0.0315
 7479TIP3    H143852   4.134   1.842   1.590 -0.4137  0.1676 -0.6357
 7479TIP3    H243853   4.067   1.966   1.533  0.0484  1.1050  0.8070
 7480TIP3   OH243854   6.392   1.509   1.577 -0.5604 -0.5970  0.2514
 7480TIP3    H143855   6.465   1.487   1.635  0.9879  0.7435 -1.0587
 7480TIP3    H243856   6.359   1.424   1.547 -0.7490 -1.2715  2.2641
 7481TIP3   OH243857   5.618   1.817   2.205  0.3163 -0.7251  0.2231
 7481TIP3    H143858   5.570   1.812   2.122  0.3240  1.6021  0.0068
 7481TIP3    H243859   5.710   1.823   2.178  0.2453  1.1390  0.3062
 7482TIP3   OH243860   6.051   0.779   4.163  0.6170  0.1110  0.0811
 7482TIP3    H143861   5.967   0.822   4.150  0.6480 -0.1013 -0.8489
 7482TIP3    H243862   6.029   0.691   4.194  0.4562 -0.2740 -1.0828
 7483TIP3   OH243863   6.145   3.644  11.538 -0.1642  0.2467 -0.1065
 7483TIP3    H143864   6.205   3.690  11.480 -1.1668  0.1825 -1.2219
 7483TIP3    H243865   6.085   3.597  11.480 -0.4423 -0.8233  0.9833
 7484TIP3   OH243866   5.426   1.967  14.064  0.4460 -0.1775  0.0917
 7484TIP3    H143867   5.504   2.004  14.104 -1.9127  2.6831  2.5735
 7484TIP3    H243868   5.393   1.904  14.127 -0.0897 -0.1601 -0.1585
 7485TIP3   OH243869   2.198   1.353   2.435  0.0130  0.0207  0.2506
 7485TIP3    H143870   2.238   1.385   2.354 -1.1244 -0.3291 -0.4743
 7485TIP3    H243871   2.132   1.419   2.456 -0.7092 -0.6359  0.0672
 7486TIP3   OH243872   1.775   3.004  17.239 -0.0857  0.0284  0.8002
 7486TIP3    H143873   1.851   2.952  17.212 -0.0439 -0.3150  1.5563
 7486TIP3    H243874   1.704   2.974  17.182  0.5410  0.9849 -0.5303
 7487TIP3   OH243875   6.051   6.735  12.469  0.0626  0.4661 -0.0982
 7487TIP3    H143876   6.038   6.827  12.491 -2.0046 -0.0662  1.1607
 7487TIP3    H243877   6.132   6.711  12.515 -0.5517  1.1331  1.4044
 7488TIP3   OH243878   1.862   5.836  16.389 -0.0835 -0.0497 -0.4447
 7488TIP3    H143879   1.825   5.796  16.468  0.4569 -0.0993 -0.2096
 7488TIP3    H243880   1.953   5.853  16.412 -0.1919  0.9023 -0.7024
 7489TIP3   OH243881   0.935   5.644  16.470 -0.1008  0.1642 -0.2665
 7489TIP3    H143882   0.973   5.661  16.383  0.9825  2.2698  0.5497
 7489TIP3    H243883   0.867   5.578  16.454 -1.6399  2.2548 -3.1425
 7490TIP3   OH243884   0.180   4.842   4.896 -0.0429 -0.6591 -0.5268
 7490TIP3    H143885   0.255   4.861   4.951  0.5515  0.2137 -1.6052
 7490TIP3    H243886   0.104   4.862   4.950  0.4906 -1.3269  0.4929
 7491TIP3   OH243887   1.696   4.512   6.440  0.2619 -0.2763  0.3408
 7491TIP3    H143888   1.673   4.459   6.363 -0.2476 -1.1342  1.0679
 7491TIP3    H243889   1.745   4.586   6.404  0.0440 -0.6700 -0.8100
 7492TIP3   OH243890   2.469   3.093   0.700 -0.3194 -0.2798  0.0901
 7492TIP3    H143891   2.519   3.166   0.737 -0.1934  1.1548 -2.6109
 7492TIP3    H243892   2.534   3.024   0.686  0.1167  0.1078  0.1747
 7493TIP3   OH243893   1.254   5.015   2.035 -0.0823  0.4360  0.1271
 7493TIP3    H143894   1.186   5.072   1.999  0.8485  0.9194 -0.9258
 7493TIP3    H243895   1.275   4.955   1.963  0.4567  0.1652  0.5063
 7494TIP3   OH243896   0.926   5.546   4.696  0.3354 -0.0079  0.4667
 7494TIP3    H143897   0.859   5.527   4.762 -0.6418 -1.1402 -0.7958
 7494TIP3    H243898   0.901   5.632   4.661 -0.4564 -0.3834  0.0621
 7495TIP3   OH243899   0.140   6.219   0.556  0.1396 -0.6523  0.2783
 7495TIP3    H143900   0.078   6.195   0.625  1.3363 -2.5030  0.7516
 7495TIP3    H243901   0.086   6.263   0.491 -1.3390 -0.5063  1.5362
 7496TIP3   OH243902   1.172   2.582   5.361 -0.4227 -0.5927 -0.3974
 7496TIP3    H143903   1.162   2.641   5.435 -1.3808 -1.5463  0.2775
 7496TIP3    H243904   1.205   2.637   5.290 -0.0360  0.4571  0.5722
 7497TIP3   OH243905   4.003   1.270   2.733  0.2447 -0.5144 -0.4385
 7497TIP3    H143906   4.007   1.341   2.796 -1.4167  0.3569 -1.2676
 7497TIP3    H243907   3.912   1.240   2.736  0.8533 -2.4636 -0.2841
 7498TIP3   OH243908   5.282   0.961   3.583 -0.1001  0.1190  0.6996
 7498TIP3    H143909   5.238   1.044   3.600  1.1867  1.2445 -1.0951
 7498TIP3    H243910   5.356   0.984   3.527  0.6496 -2.1726  0.6443
 7499TIP3   OH243911   3.910   3.551   3.419  0.4871 -0.1194  0.1276
 7499TIP3    H143912   3.995   3.522   3.387  0.2417 -2.3108  1.2857
 7499TIP3    H243913   3.929   3.626   3.475  1.3847  0.8287 -1.3767
 7500TIP3   OH243914   1.339   3.673  12.898 -0.5230  0.1291 -0.1207
 7500TIP3    H143915   1.428   3.652  12.929 -0.7177 -2.0893 -0.8211
 7500TIP3    H243916   1.285   3.603  12.934 -1.4896 -0.0699 -1.8698
 7501TIP3   OH243917   3.696   5.735  17.325  0.1959  0.0425  0.1351
 7501TIP3    H143918   3.736   5.768  17.245  2.4636 -1.4725  0.5615
 7501TIP3    H243919   3.716   5.801  17.391  2.9770 -1.0663  0.5477
 7502TIP3   OH243920   5.709   2.491   1.212  0.3593  0.1856  0.3489
 7502TIP3    H143921   5.709   2.415   1.271 -0.1723  1.0356  1.4715
 7502TIP3    H243922   5.674   2.457   1.130 -3.4342 -0.0370  1.8810
 7503TIP3   OH243923   2.489   2.340   0.657 -0.1472  0.2818  0.6313
 7503TIP3    H143924   2.523   2.397   0.588 -0.0489 -0.9546 -0.3964
 7503TIP3    H243925   2.448   2.267   0.609 -0.3535 -0.4522  1.8799
 7504TIP3   OH243926   2.396   5.597   4.989 -0.0694  0.6702  0.1114
 7504TIP3    H143927   2.312   5.629   4.954 -0.9218  0.5930  1.9686
 7504TIP3    H243928   2.452   5.587   4.912 -1.7222  0.8665 -1.1712
 7505TIP3   OH243929   6.255   0.177   2.389 -0.5762 -0.2249 -0.2129
 7505TIP3    H143930   6.224   0.241   2.453 -0.7480  0.1236 -0.6383
 7505TIP3    H243931   6.226   0.212   2.305  1.9607  0.7450 -0.7667
 7506TIP3   OH243932   6.296   0.105  11.846  0.2484  0.5563  0.3066
 7506TIP3    H143933   6.366   0.163  11.877  1.4887 -1.2029  0.9987
 7506TIP3    H243934   6.289   0.038  11.914 -0.5421 -0.5693 -0.8397
 7507TIP3   OH243935   6.046   5.251   3.413 -0.6794  0.3412 -0.0763
 7507TIP3    H143936   6.069   5.162   3.442 -0.9128  0.2570 -0.1491
 7507TIP3    H243937   6.095   5.308   3.472 -0.7217  0.1650  0.1331
 7508TIP3   OH243938   1.571   6.341   4.693  1.1019  0.2144 -0.5006
 7508TIP3    H143939   1.663   6.315   4.699  1.0123 -0.5976 -2.1327
 7508TIP3    H243940   1.531   6.303   4.771  1.6276 -1.8350 -1.1545
 7509TIP3   OH243941   5.433   2.712   1.551 -0.3718 -0.2472  0.4604
 7509TIP3    H143942   5.480   2.701   1.468 -0.3929  2.2572  0.0508
 7509TIP3    H243943   5.352   2.757   1.526 -2.1255 -2.6061  1.4255
 7510TIP3   OH243944   0.379   2.366  16.324 -0.3576  0.1307  0.1856
 7510TIP3    H143945   0.384   2.461  16.317 -1.7370  0.0979 -3.0751
 7510TIP3    H243946   0.320   2.340  16.254  0.6157 -3.2292  0.4326
 7511TIP3   OH243947   6.677   5.639   2.437 -0.4758  0.3453  0.0080
 7511TIP3    H143948   6.630   5.569   2.391 -1.8247  0.2733  1.4086
 7511TIP3    H243949   6.763   5.601   2.458 -0.0489  0.1855 -1.8510
 7512TIP3   OH243950   1.870   5.951  14.377 -0.0585 -0.3804 -0.5506
 7512TIP3    H143951   1.873   6.041  14.411 -2.3423  0.2502 -1.7606
 7512TIP3    H243952   1.884   5.896  14.454  0.4994  0.9960  0.3828
 7513TIP3   OH243953   1.201   5.410  14.921  0.1103 -0.3930 -0.4736
 7513TIP3    H143954   1.184   5.457  14.839  1.0757  1.0197  0.1110
 7513TIP3    H243955   1.246   5.330  14.893  1.2552  0.4964 -1.2861
 7514TIP3   OH243956   3.069   2.343   5.452 -0.2776 -0.4875 -0.1421
 7514TIP3    H143957   3.145   2.286   5.441  0.3424  0.4391 -0.8671
 7514TIP3    H243958   3.064   2.357   5.547  0.8632 -0.0612 -0.1195
 7515TIP3   OH243959   1.127   4.500   1.233 -0.8164 -0.5284 -0.4113
 7515TIP3    H143960   1.074   4.422   1.218 -1.1058 -0.1226 -1.5792
 7515TIP3    H243961   1.093   4.565   1.171 -0.7372  0.6084  0.7018
 7516TIP3   OH243962   5.365   0.067  13.476  0.6755  0.1458  0.3912
 7516TIP3    H143963   5.358  -0.029  13.477 -0.4662  0.1913 -0.7432
 7516TIP3    H243964   5.350   0.091  13.385  3.1109  1.2939  0.2151
 7517TIP3   OH243965   2.497   5.845   6.282  0.7117  0.2255  0.3141
 7517TIP3    H143966   2.502   5.892   6.199  2.7431 -0.5733 -0.0849
 7517TIP3    H243967   2.458   5.907   6.344 -1.1949  0.7048 -1.2855
 7518TIP3   OH243968   6.631   5.768   3.663 -0.1176  0.1912  0.3961
 7518TIP3    H143969   6.678   5.776   3.581 -1.1800 -1.5104 -0.4399
 7518TIP3    H243970   6.683   5.817   3.726  2.2734 -0.8459 -0.6573
 7519TIP3   OH243971   4.521   2.229   4.139  0.3888 -0.1215  0.3679
 7519TIP3    H143972   4.491   2.319   4.152  0.9103 -0.1048  1.6075
 7519TIP3    H243973   4.507   2.212   4.045  0.4243  1.2885  0.0883
 7520TIP3   OH243974   5.968   3.088   0.673  0.2498 -0.4649 -0.6487
 7520TIP3    H143975   6.044   3.069   0.729  0.3075  1.9886  0.2272
 7520TIP3    H243976   5.901   3.026   0.701  0.1843  0.8279  2.4446
 7521TIP3   OH243977   4.300   3.043  13.082 -0.2807 -0.0315  0.2615
 7521TIP3    H143978   4.333   3.132  13.076 -0.8809  0.2026  0.4014
 7521TIP3    H243979   4.343   3.007  13.160  0.3030 -0.0151 -0.0487
 7522TIP3   OH243980   0.724   4.766  14.662 -0.5100 -0.1874  0.0316
 7522TIP3    H143981   0.713   4.762  14.757  0.0505  0.5501  0.1346
 7522TIP3    H243982   0.685   4.850  14.637 -2.3143 -1.1779 -0.6484
 7523TIP3   OH243983   1.581   0.329   2.831  0.0252 -0.1619 -0.5071
 7523TIP3    H143984   1.574   0.406   2.887  0.3417 -0.2935 -0.2814
 7523TIP3    H243985   1.673   0.323   2.809 -0.3052  0.7104 -2.2375
 7524TIP3   OH243986   3.256   2.069  11.290 -0.1521  0.4439  0.3129
 7524TIP3    H143987   3.302   1.997  11.248 -2.2365 -0.3152 -0.8055
 7524TIP3    H243988   3.263   2.051  11.384  0.9677 -0.1364  0.1322
 7525TIP3   OH243989   6.415   2.060   0.865 -0.0554  0.0759 -0.2890
 7525TIP3    H143990   6.363   2.037   0.788  0.4866 -1.6737 -0.1771
 7525TIP3    H243991   6.430   1.977   0.910  0.6217  0.9016  1.0987
 7526TIP3   OH243992   0.823   3.749  11.085 -0.2152 -0.4342 -0.0481
 7526TIP3    H143993   0.886   3.778  11.019 -1.9042  2.2475 -0.6045
 7526TIP3    H243994   0.749   3.716  11.034 -0.6133 -0.4788  0.5537
 7527TIP3   OH243995   0.917   4.164   1.949 -0.0534 -0.1026  0.6553
 7527TIP3    H143996   0.939   4.117   1.868  0.4086  0.8132  0.2340
 7527TIP3    H243997   0.897   4.253   1.920 -1.1510 -0.0818  1.4124
 7528TIP3   OH243998   5.638   3.954  13.232  0.6857  0.2956  0.2478
 7528TIP3    H143999   5.565   3.983  13.287 -0.6248  0.6565 -1.6140
 7528TIP3    H244000   5.654   3.864  13.261 -1.0989 -0.0999  0.1202
 7529TIP3   OH244001   5.241   4.010   0.164  0.2769 -0.1368  0.2647
 7529TIP3    H144002   5.242   4.061   0.244 -0.7554 -0.1475  0.2941
 7529TIP3    H244003   5.150   3.981   0.154  0.7041 -1.4337 -0.0876
 7530TIP3   OH244004   2.936   5.294   0.347  0.0906  0.5114  0.7371
 7530TIP3    H144005   2.981   5.219   0.308 -2.6679 -0.2663 -1.2169
 7530TIP3    H244006   2.956   5.367   0.288  0.5690  0.7112  1.1346
 7531TIP3   OH244007   5.592   4.338   2.652 -0.5860 -0.0596  0.2364
 7531TIP3    H144008   5.509   4.314   2.694 -0.1366  0.1137  1.2390
 7531TIP3    H244009   5.595   4.434   2.659  0.0868 -0.1260  0.9536
 7532TIP3   OH244010   5.963   2.975  12.664  0.1785 -0.1158 -0.9422
 7532TIP3    H144011   5.888   3.007  12.615 -1.5527 -1.7532  0.4574
 7532TIP3    H244012   6.039   3.013  12.621 -1.5138  3.1135 -1.3198
 7533TIP3   OH244013   0.402   2.007   2.130 -0.2255  0.3865 -0.2634
 7533TIP3    H144014   0.485   2.052   2.114 -0.8247  1.3832 -0.6707
 7533TIP3    H244015   0.347   2.030   2.055 -0.9587 -0.0537  0.1235
 7534TIP3   OH244016   0.895   6.583  11.453  0.6336  0.2693  0.0247
 7534TIP3    H144017   0.950   6.517  11.495  1.0730  1.7806  1.9615
 7534TIP3    H244018   0.807   6.545  11.453  0.4657  0.4417  3.0514
 7535TIP3   OH244019   3.027   1.924   4.435  0.1497 -0.2873  0.2874
 7535TIP3    H144020   2.991   1.986   4.499 -0.4909  0.0867 -0.4150
 7535TIP3    H244021   2.955   1.909   4.374  1.3363  0.9606 -1.5255
 7536TIP3   OH244022   5.749   6.100  16.912  0.2546  0.6687  0.4162
 7536TIP3    H144023   5.728   6.017  16.868  1.8033  1.7617 -2.6136
 7536TIP3    H244024   5.834   6.084  16.953  0.2788  0.6069  0.3411
 7537TIP3   OH244025   1.820   3.842  15.740 -0.2201  0.2947  0.5518
 7537TIP3    H144026   1.858   3.822  15.826 -0.0903 -0.2393  0.3713
 7537TIP3    H244027   1.871   3.916  15.708  0.9924 -0.6834  0.1182
 7538TIP3   OH244028   6.383   4.480  15.307 -0.3018 -0.2095 -0.8692
 7538TIP3    H144029   6.427   4.395  15.310  0.5815  0.1967 -1.9067
 7538TIP3    H244030   6.453   4.544  15.315 -0.8841  0.4335 -0.8261
 7539TIP3   OH244031   1.334   6.477   0.910 -0.9084 -0.2619 -0.5442
 7539TIP3    H144032   1.352   6.531   0.833 -0.2713  0.1507 -0.1146
 7539TIP3    H244033   1.377   6.523   0.982  0.9534 -2.0623 -0.4011
 7540TIP3   OH244034   4.812   1.393  14.015  0.0938 -0.0026  0.2137
 7540TIP3    H144035   4.728   1.423  13.981  0.1683  0.4803  0.4502
 7540TIP3    H244036   4.790   1.346  14.095 -0.1204 -1.4728 -0.6577
 7541TIP3   OH244037   3.707   0.884   5.132  0.0895  0.2688  0.7810
 7541TIP3    H144038   3.655   0.813   5.093 -0.8857  0.6944  1.2656
 7541TIP3    H244039   3.749   0.844   5.208  0.4580 -0.0753  0.3996
 7542TIP3   OH244040   0.761   2.519   5.433 -0.4773  0.0006  0.3582
 7542TIP3    H144041   0.721   2.530   5.347 -1.2447 -0.4220  0.6501
 7542TIP3    H244042   0.776   2.608   5.464 -0.6932  0.1589  0.0126
 7543TIP3   OH244043   4.768   2.444   2.553  0.0720 -0.1741  0.6679
 7543TIP3    H144044   4.766   2.388   2.476 -0.0806  0.9271 -0.1545
 7543TIP3    H244045   4.683   2.489   2.552  1.1237  1.9586 -0.1657
 7544TIP3   OH244046   3.853   3.019   0.327  0.0744 -0.4079  0.4801
 7544TIP3    H144047   3.922   2.952   0.330 -0.8485 -1.3747  0.9048
 7544TIP3    H244048   3.871   3.074   0.404  1.4984  0.5536 -0.4870
 7545TIP3   OH244049   5.029   3.369  11.476  0.8806  0.1399 -0.4602
 7545TIP3    H144050   5.099   3.388  11.413  0.1344  1.5132 -0.9224
 7545TIP3    H244051   4.956   3.341  11.421  0.2967  1.1304 -0.2190
 7546TIP3   OH244052   3.863   6.201  15.579  0.2566  0.0084  0.7241
 7546TIP3    H144053   3.905   6.233  15.659  0.1066  0.3220  0.6770
 7546TIP3    H244054   3.934   6.198  15.514  0.5704 -1.1000  1.1044
 7547TIP3   OH244055   5.115   6.074   3.932 -0.6190 -0.0203  0.1066
 7547TIP3    H144056   5.192   6.130   3.939 -0.5538 -0.1198  0.1882
 7547TIP3    H244057   5.121   6.035   3.845  1.0705 -2.4266  1.1962
 7548TIP3   OH244058   3.015   4.456  15.196 -0.8456  0.4769  0.0670
 7548TIP3    H144059   2.981   4.478  15.282 -0.8092  0.4885  0.0782
 7548TIP3    H244060   3.057   4.537  15.165 -0.7652  0.4421  0.0838
 7549TIP3   OH244061   5.909   0.258   4.256 -0.0405  0.9052  0.3973
 7549TIP3    H144062   5.921   0.224   4.168  0.5878  0.7472  0.5356
 7549TIP3    H244063   5.908   0.353   4.246  1.1404  0.9208  0.3432
 7550TIP3   OH244064   5.727   1.715  17.326 -0.2661 -0.2561 -0.7487
 7550TIP3    H144065   5.652   1.660  17.349  0.5131 -0.9348  0.2770
 7550TIP3    H244066   5.699   1.804  17.347 -0.6469 -0.5543  0.0492
 7551TIP3   OH244067   5.836   5.376  10.905  0.3914 -0.9802  0.5479
 7551TIP3    H144068   5.860   5.468  10.893  0.9509 -1.0354  1.1768
 7551TIP3    H244069   5.779   5.376  10.982 -0.5425 -1.0253 -0.1264
 7552TIP3   OH244070   0.985   4.323  12.925  0.2239 -0.2946  0.2582
 7552TIP3    H144071   1.024   4.401  12.965  0.8699 -0.6823  0.3899
 7552TIP3    H244072   0.913   4.357  12.872 -0.3669  0.2702  1.3979
 7553TIP3   OH244073   4.518   1.827  13.032 -0.2680  0.3105 -0.4767
 7553TIP3    H144074   4.473   1.787  13.107  0.5996  1.2923  0.6029
 7553TIP3    H244075   4.588   1.765  13.011 -0.0492  0.3849  0.0197
 7554TIP3   OH244076   1.722   5.673   6.173 -0.1015  0.3418 -0.1421
 7554TIP3    H144077   1.816   5.666   6.188  0.2651  2.5106 -1.1485
 7554TIP3    H244078   1.693   5.582   6.168  1.7802 -0.3933  0.9503
 7555TIP3   OH244079   2.322   3.069  16.114  0.4136 -0.1450 -0.0657
 7555TIP3    H144080   2.366   3.150  16.141  1.6315 -0.6499 -0.4721
 7555TIP3    H244081   2.320   3.073  16.019 -1.2161  0.2568 -0.0377
 7556TIP3   OH244082   6.421   5.327   2.170 -0.3696  0.1614  0.4681
 7556TIP3    H144083   6.381   5.402   2.126 -1.2837 -1.0584 -0.8776
 7556TIP3    H244084   6.505   5.316   2.127 -1.0485 -0.7197 -0.6891
 7557TIP3   OH244085   0.313   1.149   1.110  0.6425  0.7806 -0.2547
 7557TIP3    H144086   0.366   1.105   1.043 -0.0147  0.3376 -0.4956
 7557TIP3    H244087   0.357   1.128   1.192 -0.1045 -1.0390 -0.2795
 7558TIP3   OH244088   6.582   1.525   4.169  0.0455  0.2276 -0.3407
 7558TIP3    H144089   6.601   1.618   4.164  2.3046  0.0104  2.0635
 7558TIP3    H244090   6.499   1.520   4.215 -1.0883  1.0114 -2.1697
 7559TIP3   OH244091   0.701   3.766  14.647  0.0067  0.6540 -0.5116
 7559TIP3    H144092   0.780   3.761  14.701  0.0933 -0.8631 -0.7591
 7559TIP3    H244093   0.726   3.728  14.564 -1.0935 -0.2094 -0.4645
 7560TIP3   OH244094   3.026   0.644  11.876 -0.1961  0.3327  0.2871
 7560TIP3    H144095   2.970   0.590  11.820 -0.3090 -0.7156  1.3664
 7560TIP3    H244096   2.987   0.732  11.872  0.8097  0.7633 -2.6283
 7561TIP3   OH244097   1.090   0.398   0.527 -0.4390  0.4908 -0.8968
 7561TIP3    H144098   1.094   0.311   0.567  0.4446  1.0078  0.2289
 7561TIP3    H244099   1.142   0.390   0.447 -0.7200 -0.1102 -1.0295
 7562TIP3   OH244100   6.148   3.988   3.181  0.7547  0.1013  0.4182
 7562TIP3    H144101   6.071   4.020   3.133  1.7694  0.0177 -1.3395
 7562TIP3    H244102   6.171   3.906   3.138  2.2894  0.5091  0.3984
 7563TIP3   OH244103   0.039   0.866  15.320  0.2642  0.4588  0.6058
 7563TIP3    H144104   0.088   0.788  15.290  1.2714  0.8156  1.2661
 7563TIP3    H244105  -0.022   0.884  15.248  1.5645  0.3799 -0.5753
 7564TIP3   OH244106   4.407   4.842  16.282 -0.0192  0.0978  0.1003
 7564TIP3    H144107   4.321   4.881  16.298  0.1324  0.9177 -0.9579
 7564TIP3    H244108   4.460   4.914  16.246  0.2351 -1.0637 -2.0287
 7565TIP3   OH244109   5.772   6.055  15.182 -0.5798 -0.2338  0.3924
 7565TIP3    H144110   5.844   6.005  15.144  1.6194  0.2379  3.6014
 7565TIP3    H244111   5.718   6.079  15.106  2.9558 -0.0053 -2.3099
 7566TIP3   OH244112   4.636   4.450  17.109  0.1105 -0.5751  0.1192
 7566TIP3    H144113   4.673   4.378  17.058 -0.4073 -0.3785 -0.5422
 7566TIP3    H244114   4.561   4.411  17.154  0.2366 -0.6111  0.3019
 7567TIP3   OH244115   6.454   1.199   0.910 -0.6513 -0.2309 -0.0002
 7567TIP3    H144116   6.437   1.221   0.818  1.1831 -0.4642 -0.4487
 7567TIP3    H244117   6.522   1.261   0.937  0.1507 -1.3408  0.6050
 7568TIP3   OH244118   4.694   0.610  14.000  0.0827 -0.0337  0.1050
 7568TIP3    H144119   4.628   0.674  14.025 -0.5365 -0.2840 -0.8590
 7568TIP3    H244120   4.653   0.525  14.018 -0.2623 -0.2141 -1.4195
 7569TIP3   OH244121   4.062   4.818  13.712 -0.3784 -0.5588  0.0643
 7569TIP3    H144122   4.040   4.762  13.638 -1.4239 -0.3515  0.2087
 7569TIP3    H244123   4.011   4.783  13.785  1.6698 -1.6342  1.0931
 7570TIP3   OH244124   2.163   2.296  13.998 -0.2854 -0.6315  0.0977
 7570TIP3    H144125   2.200   2.312  14.085  0.6642  0.0087 -0.4042
 7570TIP3    H244126   2.239   2.277  13.943 -0.9833 -2.2105 -0.3599
 7571TIP3   OH244127   0.078   4.114  12.110 -0.5687 -0.3219  0.2925
 7571TIP3    H144128   0.170   4.120  12.136 -0.5813 -2.0782  0.8467
 7571TIP3    H244129   0.036   4.069  12.182 -1.5694 -0.9106 -0.6342
 7572TIP3   OH244130   5.294   0.988  15.512  0.8445 -0.3602  0.3009
 7572TIP3    H144131   5.337   0.916  15.558  3.3582  1.6565  1.2821
 7572TIP3    H244132   5.363   1.029  15.460 -0.5130  1.3517 -0.2537
 7573TIP3   OH244133   0.461   0.174   4.547  0.5285  0.0805 -0.3619
 7573TIP3    H144134   0.404   0.118   4.494  2.1806 -1.0795 -1.0145
 7573TIP3    H244135   0.453   0.261   4.508  0.0264 -0.2873 -1.0963
 7574TIP3   OH244136   3.465   5.804  13.590  0.1551 -0.4224 -0.3398
 7574TIP3    H144137   3.534   5.864  13.562 -0.0473 -1.4835 -3.4731
 7574TIP3    H244138   3.511   5.728  13.625  0.5787 -0.6583 -1.3789
 7575TIP3   OH244139   3.011   5.368  12.716  0.6419  0.2949  0.2916
 7575TIP3    H144140   3.028   5.366  12.622  0.9140 -2.7072  0.3084
 7575TIP3    H244141   3.091   5.403  12.754  0.1344  2.5850 -0.5795
 7576TIP3   OH244142   3.555   3.749   2.912  0.1816 -0.5324  0.4565
 7576TIP3    H144143   3.540   3.727   3.004  1.7541 -0.4604  0.7652
 7576TIP3    H244144   3.642   3.715   2.894 -0.4113 -1.2306 -1.2499
 7577TIP3   OH244145   1.708   1.626  17.298 -0.3433 -0.4146 -0.0234
 7577TIP3    H144146   1.685   1.719  17.302 -0.9426 -0.5913  2.0101
 7577TIP3    H244147   1.747   1.608  17.384 -1.1601 -2.2399  0.0103
 7578TIP3   OH244148   2.455   6.308   0.794  0.0658 -0.2281  0.9376
 7578TIP3    H144149   2.530   6.298   0.734 -0.5221 -3.1582  0.5487
 7578TIP3    H244150   2.395   6.367   0.748  0.8039 -0.2913 -0.1420
 7579TIP3   OH244151   5.942   4.721   2.504 -0.4068  0.1383 -0.0521
 7579TIP3    H144152   5.975   4.739   2.592  1.8436 -0.8771 -0.5859
 7579TIP3    H244153   5.979   4.790   2.450 -1.5006  0.5652 -0.2677
 7580TIP3   OH244154   4.270   4.839   1.652  0.3769 -0.0301  0.0005
 7580TIP3    H144155   4.241   4.792   1.730 -0.1579 -0.9554 -0.7527
 7580TIP3    H244156   4.281   4.772   1.585 -0.8981  0.9623 -1.2495
 7581TIP3   OH244157   5.609   1.504  14.216  0.1314 -0.0498  0.1302
 7581TIP3    H144158   5.653   1.588  14.205 -0.9724  0.9630  2.7472
 7581TIP3    H244159   5.516   1.524  14.205 -0.1236 -1.0058  0.4576
 7582TIP3   OH244160   0.170   5.144   5.405 -0.3115  0.0808  0.2319
 7582TIP3    H144161   0.153   5.069   5.463  0.5876 -0.1475  0.2069
 7582TIP3    H244162   0.082   5.173   5.379 -0.7460  0.3766  1.9154
 7583TIP3   OH244163   4.035   5.560   0.062  0.0448  0.2983 -0.3936
 7583TIP3    H144164   4.032   5.596   0.151 -0.5598  1.1276 -0.7274
 7583TIP3    H244165   3.949   5.520   0.051  0.5810 -0.9414 -0.1634
 7584TIP3   OH244166   4.975   3.042   5.602  0.4206 -0.4719  0.3248
 7584TIP3    H144167   4.999   2.959   5.644 -3.8303 -2.5761 -0.7971
 7584TIP3    H244168   4.938   3.095   5.673  1.1119 -0.4575  0.6775
 7585TIP3   OH244169   5.061   3.573   5.922  0.2724  0.1307 -0.4605
 7585TIP3    H144170   4.989   3.528   5.877 -0.6064  0.8774  0.1903
 7585TIP3    H244171   5.053   3.546   6.013  1.7443 -0.9682 -0.6117
 7586TIP3   OH244172   1.407   2.914   0.626 -0.2391  0.0556  0.0422
 7586TIP3    H144173   1.421   2.976   0.697 -1.1115  0.3750 -0.0504
 7586TIP3    H244174   1.462   2.838   0.648  0.7774  0.8145  0.1957
 7587TIP3   OH244175   1.260   2.532  14.133 -0.5075 -0.1022 -0.5971
 7587TIP3    H144176   1.227   2.618  14.162  1.6736  0.7135 -0.3157
 7587TIP3    H244177   1.188   2.472  14.150 -1.4152  1.3573  1.0819
 7588TIP3   OH244178   1.883   6.157  16.414  0.2855 -0.2215 -0.1118
 7588TIP3    H144179   1.956   6.101  16.439 -0.6269 -1.7252 -0.6430
 7588TIP3    H244180   1.806   6.101  16.424 -0.8313  1.3654  0.6106
 7589TIP3   OH244181   3.439   0.586  10.815 -0.4483  0.0086  0.7955
 7589TIP3    H144182   3.514   0.560  10.869  1.5317  1.1570 -1.2536
 7589TIP3    H244183   3.424   0.678  10.838 -0.7035  0.0140  0.6119
 7590TIP3   OH244184   2.424   4.107  15.781  0.3772  0.0085  0.1279
 7590TIP3    H144185   2.436   4.012  15.785  1.2156  0.0329 -1.4104
 7590TIP3    H244186   2.363   4.126  15.852 -1.9409 -2.0304 -1.1760
 7591TIP3   OH244187   5.311   0.916  11.388 -0.8041  0.4764 -0.5193
 7591TIP3    H144188   5.247   0.929  11.458 -0.3272 -0.9058  0.2158
 7591TIP3    H244189   5.366   0.994  11.390  0.0378 -0.1055  1.5745
 7592TIP3   OH244190   5.435   5.767  16.767  0.1348  0.2271  0.8668
 7592TIP3    H144191   5.340   5.758  16.770  0.0066  0.9106 -0.2527
 7592TIP3    H244192   5.449   5.858  16.739  1.0283 -0.5815 -1.6238
 7593TIP3   OH244193   2.783   3.194   4.884 -0.3774  0.4064 -0.2827
 7593TIP3    H144194   2.840   3.231   4.817 -0.9860  0.2236 -0.9123
 7593TIP3    H244195   2.711   3.257   4.891 -0.5192  0.2219 -0.0891
 7594TIP3   OH244196   1.738   0.957   2.074  0.2282  0.3875  0.0902
 7594TIP3    H144197   1.810   1.009   2.109 -0.0107  0.2761  0.7452
 7594TIP3    H244198   1.771   0.868   2.072  0.5864  0.5233 -0.8989
 7595TIP3   OH244199   3.599   4.731   6.536  0.5759 -0.4106 -0.2839
 7595TIP3    H144200   3.667   4.786   6.499  0.0823 -0.7595 -1.7466
 7595TIP3    H244201   3.539   4.713   6.464 -1.2219  0.0774  1.0044
 7596TIP3   OH244202   2.008   5.772  13.631 -0.2329  0.2522  0.5766
 7596TIP3    H144203   2.103   5.766  13.643  0.0220  1.0662 -0.8337
 7596TIP3    H244204   1.989   5.710  13.561 -0.6897  0.3962  0.5698
 7597TIP3   OH244205   0.568   3.261  14.103  0.5824 -0.0319  0.4043
 7597TIP3    H144206   0.581   3.208  14.024  0.9998 -0.7215  0.9277
 7597TIP3    H244207   0.494   3.219  14.148 -0.1141  0.7821  0.0330
 7598TIP3   OH244208   6.314   4.735  12.621 -0.0274  0.0326 -0.1880
 7598TIP3    H144209   6.225   4.765  12.604 -0.3593 -0.3811  0.7483
 7598TIP3    H244210   6.318   4.648  12.580  0.3995  0.6047 -1.4236
 7599TIP3   OH244211   4.962   0.899  11.293  0.3118 -0.2322 -0.3789
 7599TIP3    H144212   4.986   0.901  11.200 -0.3759  0.8447 -0.5473
 7599TIP3    H244213   5.037   0.939  11.338  1.2113 -1.8858 -0.3007
 7600TIP3   OH244214   5.529   1.923   5.606  0.3576 -0.7297 -0.1438
 7600TIP3    H144215   5.446   1.967   5.619  1.0273  0.4175  0.4315
 7600TIP3    H244216   5.592   1.974   5.657  1.3232 -1.8827 -0.1259
 7601TIP3   OH244217   3.363   4.163   2.128  0.1041 -1.3433  0.0024
 7601TIP3    H144218   3.348   4.182   2.220  4.0410  2.4160  0.1966
 7601TIP3    H244219   3.347   4.246   2.083 -3.9440 -3.5444 -3.3379
 7602TIP3   OH244220   1.556   6.266  13.652 -0.7083 -0.1855 -0.3999
 7602TIP3    H144221   1.622   6.200  13.673  0.9028  0.8246 -1.9726
 7602TIP3    H244222   1.575   6.339  13.711  0.6581  0.7214 -1.8930
 7603TIP3   OH244223   1.732   2.976   1.435 -0.5156  0.7826  0.5422
 7603TIP3    H144224   1.751   3.069   1.422 -3.7278  1.5015  0.3276
 7603TIP3    H244225   1.718   2.943   1.346 -0.5763  0.3681  0.7071
 7604TIP3   OH244226   4.880   0.020  16.912 -0.2631  0.4132  0.3342
 7604TIP3    H144227   4.888  -0.075  16.907  0.3000  0.4469  0.4857
 7604TIP3    H244228   4.875   0.049  16.821 -0.3533  0.2440  0.2865
 7605TIP3   OH244229   2.977   3.701   1.483 -0.5288  0.2906  0.2711
 7605TIP3    H144230   3.027   3.729   1.559 -0.7229  1.5677 -0.0449
 7605TIP3    H244231   2.928   3.779   1.456  0.1931  0.1345 -1.6714
 7606TIP3   OH244232   6.534   1.913   2.224 -0.0053  0.4655  0.1337
 7606TIP3    H144233   6.606   1.890   2.164  0.7989  0.3831  1.0992
 7606TIP3    H244234   6.578   1.929   2.307 -1.0241  1.3178  0.5206
 7607TIP3   OH244235   3.713   0.051  17.321 -0.0978  0.3748  0.0545
 7607TIP3    H144236   3.638   0.054  17.261 -1.2066  1.3796  1.4310
 7607TIP3    H244237   3.763   0.130  17.300  0.8286 -0.4746 -1.1063
 7608TIP3   OH244238   2.414   2.034  15.819 -0.0568  0.4208  0.3522
 7608TIP3    H144239   2.483   1.991  15.768  0.2246 -0.7353  1.6458
 7608TIP3    H244240   2.332   2.005  15.779  0.1432  2.1330 -1.4651
 7609TIP3   OH244241   6.489   5.185   3.934  0.0302  0.1247  0.2825
 7609TIP3    H144242   6.485   5.158   4.026 -1.5071  2.0011  0.8474
 7609TIP3    H244243   6.463   5.107   3.885  0.2908 -0.7373  1.4661
 7610TIP3   OH244244   5.464   1.151   4.630  0.7119  0.0082  0.3491
 7610TIP3    H144245   5.399   1.102   4.580  0.6163  0.2276  0.2617
 7610TIP3    H244246   5.505   1.085   4.686  0.9619 -0.2752 -0.1630
 7611TIP3   OH244247   4.333   0.620   3.570  0.0673  0.2927 -0.4677
 7611TIP3    H144248   4.384   0.582   3.642 -0.7240 -1.8182 -0.9655
 7611TIP3    H244249   4.246   0.635   3.608  0.5651  2.4812 -0.0501
 7612TIP3   OH244250   0.973   4.681   4.164 -0.3945  0.2028  0.7317
 7612TIP3    H144251   1.046   4.654   4.108 -1.8567 -1.2957 -0.5954
 7612TIP3    H244252   0.946   4.600   4.208 -2.7361  0.1358 -0.6805
 7613TIP3   OH244253   4.346   3.551  12.186 -0.3440 -0.2697 -0.2972
 7613TIP3    H144254   4.334   3.459  12.209  2.7238 -1.0240 -1.2642
 7613TIP3    H244255   4.386   3.550  12.099 -0.3020  2.0055 -0.3825
 7614TIP3   OH244256   3.424   5.183   3.266  0.1793 -0.2023 -0.5021
 7614TIP3    H144257   3.467   5.247   3.209 -0.4621  0.9985  0.3168
 7614TIP3    H244258   3.334   5.216   3.276  0.2638 -0.3765  1.1731
 7615TIP3   OH244259   6.151   3.805  11.773 -0.4185  0.4175  0.6159
 7615TIP3    H144260   6.160   3.751  11.695 -1.3219  0.1131  0.7080
 7615TIP3    H244261   6.206   3.882  11.756  0.6731 -0.4029  0.3759
 7616TIP3   OH244262   2.245   2.103   5.099 -0.3209 -0.0477  0.6167
 7616TIP3    H144263   2.333   2.104   5.063 -0.6042 -1.2802 -0.1723
 7616TIP3    H244264   2.249   2.161   5.175  0.4297  2.2826 -1.0559
 7617TIP3   OH244265   3.890   2.130  15.150 -0.3071  0.1301  0.6780
 7617TIP3    H144266   3.984   2.110  15.144 -0.2705  0.4936 -0.0769
 7617TIP3    H244267   3.847   2.045  15.147  0.0164 -0.0714  1.5103
 7618TIP3   OH244268   2.494   5.635  16.840 -0.2975 -0.1199 -0.2587
 7618TIP3    H144269   2.587   5.619  16.830  0.2179  2.2127  0.1197
 7618TIP3    H244270   2.465   5.666  16.755 -0.1570  1.4023  0.2112
 7619TIP3   OH244271   0.593   5.664   5.308 -0.2914  0.0673  0.2077
 7619TIP3    H144272   0.539   5.624   5.375 -0.6727 -1.2110 -0.8192
 7619TIP3    H244273   0.550   5.748   5.289 -1.1171 -0.3123  0.3773
 7620TIP3   OH244274   5.479   6.132  13.045 -0.2214  0.1422  0.0884
 7620TIP3    H144275   5.431   6.080  13.110 -0.5369  1.2057  0.7492
 7620TIP3    H244276   5.521   6.068  12.988  1.4176 -0.8875  2.2917
 7621TIP3   OH244277   1.143   4.343   4.171 -0.1255  0.4342 -0.1411
 7621TIP3    H144278   1.203   4.312   4.238 -0.6856 -0.2139  0.0820
 7621TIP3    H244279   1.187   4.417   4.131  0.3132  0.6946  0.7968
 7622TIP3   OH244280   4.417   2.545   3.657  0.2791 -0.4623  0.6778
 7622TIP3    H144281   4.457   2.460   3.639 -0.8715 -0.6426 -1.3638
 7622TIP3    H244282   4.473   2.608   3.613 -0.6727 -0.5501 -0.7301
 7623TIP3   OH244283   0.634   3.423   4.828  0.2379 -0.5262 -0.4885
 7623TIP3    H144284   0.559   3.387   4.876 -0.4335 -2.1671 -2.6143
 7623TIP3    H244285   0.621   3.393   4.738  1.7359  1.9432 -1.6082
 7624TIP3   OH244286   6.454   1.955  11.401 -0.2129 -0.0790 -0.5806
 7624TIP3    H144287   6.487   2.036  11.362  2.7195 -0.1022  1.4735
 7624TIP3    H244288   6.533   1.904  11.420 -1.7831 -2.1579  0.7986
 7625TIP3   OH244289   6.560   4.130  15.710  0.6179 -0.1832  0.3190
 7625TIP3    H144290   6.551   4.134  15.805 -0.9010  0.0775  0.1863
 7625TIP3    H244291   6.609   4.209  15.688  0.5614  0.0027  0.8399
 7626TIP3   OH244292   1.882   5.039  12.272  0.0445  0.3436  0.3204
 7626TIP3    H144293   1.879   5.033  12.176  0.1722 -0.0734  0.3428
 7626TIP3    H244294   1.967   5.001  12.296 -1.6358 -3.5363  0.8853
 7627TIP3   OH244295   1.306   4.143   1.102 -0.6932 -0.3299 -0.3013
 7627TIP3    H144296   1.274   4.100   1.181 -1.2616 -0.2021 -0.4558
 7627TIP3    H244297   1.398   4.162   1.120 -0.0780 -2.6786 -0.6765
 7628TIP3   OH244298   1.692   4.374  17.180 -0.5660  0.0214 -0.0083
 7628TIP3    H144299   1.750   4.445  17.153  0.2985 -0.5224  0.3726
 7628TIP3    H244300   1.635   4.360  17.105 -0.8025  1.1652 -0.0593
 7629TIP3   OH244301   2.153   5.258  12.195 -0.1420 -0.0665  0.5032
 7629TIP3    H144302   2.156   5.206  12.114  0.6626  0.5138  0.1487
 7629TIP3    H244303   2.174   5.196  12.264  1.3800 -0.1084  0.0227
 7630TIP3   OH244304   0.158   5.130   5.879 -0.2890 -0.1419 -0.2921
 7630TIP3    H144305   0.143   5.198   5.944  0.8645  0.8297 -1.0000
 7630TIP3    H244306   0.087   5.068   5.893 -1.8285  1.5709 -0.0998
 7631TIP3   OH244307   0.876   0.896   5.250  0.3601  0.1032  0.2312
 7631TIP3    H144308   0.945   0.899   5.184 -0.5443  0.5810 -0.7197
 7631TIP3    H244309   0.806   0.845   5.210  0.3189 -0.7761  1.3614
 7632TIP3   OH244310   6.491   3.971  17.207 -0.1871  0.2358 -0.2494
 7632TIP3    H144311   6.422   3.926  17.256 -0.8278  0.1747 -1.1681
 7632TIP3    H244312   6.520   3.905  17.143  0.2522  0.4864 -0.3067
 7633TIP3   OH244313   2.568   3.094   4.643 -0.0565 -0.6556  0.0785
 7633TIP3    H144314   2.624   3.025   4.680  0.4136  0.2570  1.1140
 7633TIP3    H244315   2.565   3.161   4.710 -1.8091 -0.3423 -0.2689
 7634TIP3   OH244316   5.767   2.787  15.270  0.0146 -0.0011 -0.1866
 7634TIP3    H144317   5.840   2.726  15.277  0.6591  0.8084  0.3084
 7634TIP3    H244318   5.733   2.794  15.360  0.7710  1.3443  0.0189
 7635TIP3   OH244319   6.613   3.684  13.373  0.6206  0.0151 -0.2329
 7635TIP3    H144320   6.638   3.643  13.290  0.9100 -0.2661 -0.0079
 7635TIP3    H244321   6.669   3.643  13.439  0.7676  0.6186  0.0288
 7636TIP3   OH244322   2.149   4.890  15.867 -0.2638  0.7010 -0.1120
 7636TIP3    H144323   2.113   4.974  15.838 -0.8985  0.8899  1.1473
 7636TIP3    H244324   2.076   4.849  15.914  0.3862 -0.0540  0.2424
 7637TIP3   OH244325   2.493   3.193  16.871  0.8069  0.4633  0.4418
 7637TIP3    H144326   2.533   3.280  16.877  0.3880  0.8036 -1.2194
 7637TIP3    H244327   2.557   3.141  16.821  0.3772  0.2579  0.0982
 7638TIP3   OH244328   5.948   2.579  11.638 -0.5694  0.3599  0.0206
 7638TIP3    H144329   5.873   2.638  11.638  0.0723  1.3133 -2.1613
 7638TIP3    H244330   6.021   2.633  11.670  0.4302  1.5550 -3.7169
 7639TIP3   OH244331   3.495   2.586   2.917 -0.1567  0.6857  0.2890
 7639TIP3    H144332   3.563   2.572   2.851  0.4316 -0.6882  1.1405
 7639TIP3    H244333   3.527   2.660   2.969  0.9537 -0.2445  0.9758
 7640TIP3   OH244334   5.207   1.006  11.877  0.2598  0.0868  0.0681
 7640TIP3    H144335   5.300   1.009  11.901  0.5723  0.3914 -1.1036
 7640TIP3    H244336   5.201   1.062  11.800 -0.3276 -2.2178 -1.6663
 7641TIP3   OH244337   6.561   3.741   5.573  0.0476 -0.1071  0.0310
 7641TIP3    H144338   6.652   3.738   5.603  0.1715  0.1958 -0.3068
 7641TIP3    H244339   6.558   3.815   5.513 -0.1435 -0.8453 -0.8911
 7642TIP3   OH244340   6.360   6.310   3.198  0.3685 -0.5543  0.3002
 7642TIP3    H144341   6.276   6.327   3.154  0.5336  0.1926  0.2584
 7642TIP3    H244342   6.337   6.255   3.273 -0.6135  1.8270  1.8989
 7643TIP3   OH244343   0.777   4.293  12.509 -0.4812 -0.4227  0.2420
 7643TIP3    H144344   0.786   4.288  12.413 -1.5879  0.0239  0.1026
 7643TIP3    H244345   0.722   4.218  12.532 -3.1848  1.3486  0.0704
 7644TIP3   OH244346   4.793   3.528  12.721  0.2305  0.0622 -0.0186
 7644TIP3    H144347   4.757   3.546  12.634 -0.5109  0.6036  0.3971
 7644TIP3    H244348   4.833   3.441  12.712 -0.0922 -0.0115 -0.8170
 7645TIP3   OH244349   2.369   5.444  10.602  0.4185  0.0760 -0.3625
 7645TIP3    H144350   2.441   5.483  10.651 -0.2323  1.7288 -0.6561
 7645TIP3    H244351   2.333   5.517  10.551 -0.1501 -1.1634 -1.8033
 7646TIP3   OH244352   1.893   5.732  13.124  0.3872 -0.4257  0.0255
 7646TIP3    H144353   1.955   5.804  13.126 -1.2266  1.0341 -0.3630
 7646TIP3    H244354   1.907   5.690  13.039  0.1843  0.5197 -0.4843
 7647TIP3   OH244355   3.604   4.443   3.742  0.2617 -1.0533 -0.0015
 7647TIP3    H144356   3.651   4.360   3.733  1.1036 -0.6257  0.3204
 7647TIP3    H244357   3.642   4.484   3.819 -1.5050 -1.2260  1.0320
 7648TIP3   OH244358   5.803   5.807   2.820  0.2575 -0.3909  0.0609
 7648TIP3    H144359   5.771   5.846   2.901 -0.7472  1.7201 -1.2619
 7648TIP3    H244360   5.725   5.796   2.766  0.7892 -2.5711 -0.3410
 7649TIP3   OH244361   5.379   4.321   6.112 -0.2131  0.9151  0.9373
 7649TIP3    H144362   5.371   4.407   6.154 -1.2514  0.2053  2.2642
 7649TIP3    H244363   5.456   4.282   6.152 -0.0650  0.9971  0.7366
 7650TIP3   OH244364   2.455   4.565   2.174  0.4851  0.3489 -0.1975
 7650TIP3    H144365   2.542   4.566   2.213  0.0520  0.5746  0.8011
 7650TIP3    H244366   2.398   4.600   2.242 -0.5237 -0.6318 -0.5059
 7651TIP3   OH244367   6.065   1.945  13.234 -0.2061 -1.0373  0.3035
 7651TIP3    H144368   5.998   1.973  13.298 -1.4888 -0.7668 -1.1038
 7651TIP3    H244369   6.063   1.849  13.239 -0.6639 -1.0302  0.3134
 7652TIP3   OH244370   2.920   0.642   5.920 -0.3002  0.3980  0.1092
 7652TIP3    H144371   2.862   0.665   5.993 -0.2753  0.0176  0.2527
 7652TIP3    H244372   2.995   0.701   5.929 -0.9059  1.2671 -0.3953
 7653TIP3   OH244373   4.428   4.547  17.407 -0.2927  0.2066 -0.3106
 7653TIP3    H144374   4.482   4.469  17.421  0.2153  0.9393  2.3062
 7653TIP3    H244375   4.487   4.620  17.424 -0.7275  1.2352 -2.8543
 7654TIP3   OH244376   5.797   2.272  14.846  0.1935  0.3653 -0.0949
 7654TIP3    H144377   5.863   2.215  14.884  0.4943 -0.1685 -1.3608
 7654TIP3    H244378   5.715   2.225  14.858  0.1155  0.7539  0.9484
 7655TIP3   OH244379   3.564   4.274  11.145 -0.7587  0.3140  0.1799
 7655TIP3    H144380   3.579   4.349  11.088  0.6835  0.4130  0.6519
 7655TIP3    H244381   3.470   4.257  11.138 -1.1856  2.3486  0.3124
 7656TIP3   OH244382   6.153   5.814  17.360  0.0262  0.3559  0.1732
 7656TIP3    H144383   6.147   5.893  17.306  0.1829  0.2299 -0.0286
 7656TIP3    H244384   6.204   5.753  17.307  0.9044  0.5264  0.8062
 7657TIP3   OH244385   3.460   0.020   5.743  0.3961  0.4620  0.0611
 7657TIP3    H144386   3.537   0.049   5.694 -0.1858 -0.4674 -1.4485
 7657TIP3    H244387   3.484   0.034   5.835  2.1375  0.7247 -0.3975
 7658TIP3   OH244388   0.712   1.106   5.922  0.1256  0.5353 -0.2923
 7658TIP3    H144389   0.788   1.090   5.978  0.1564  0.7569 -0.2699
 7658TIP3    H244390   0.641   1.127   5.983  0.0584  0.3762 -0.3152
 7659TIP3   OH244391   2.591   2.827   2.764 -0.3913  0.5764 -0.2726
 7659TIP3    H144392   2.686   2.819   2.757 -0.3981 -5.0619  0.9471
 7659TIP3    H244393   2.571   2.799   2.853 -3.2551  1.4858 -0.5402
 7660TIP3   OH244394   4.964   2.563   5.872 -0.7013 -0.9463  0.1536
 7660TIP3    H144395   5.032   2.627   5.891 -1.5041 -0.3879  1.2218
 7660TIP3    H244396   5.008   2.478   5.880  0.7483 -0.6151 -2.6822
 7661TIP3   OH244397   3.472   6.705  12.364  0.1786 -0.1764 -0.4117
 7661TIP3    H144398   3.485   6.709  12.459  0.8581  0.4903 -0.5184
 7661TIP3    H244399   3.383   6.674  12.353 -0.9547  2.4905  0.4877
 7662TIP3   OH244400   1.407   5.705  17.199 -0.2080  0.0692 -0.2341
 7662TIP3    H144401   1.312   5.698  17.205 -0.4148  2.0688 -0.6450
 7662TIP3    H244402   1.427   5.682  17.108 -0.3852  0.4322 -0.3655
 7663TIP3   OH244403   0.485   2.036  15.914  0.3171  0.0476 -0.0969
 7663TIP3    H144404   0.399   2.024  15.954 -0.7260  0.6963 -2.0331
 7663TIP3    H244405   0.478   1.994  15.828  1.3232  1.6493 -1.0175
 7664TIP3   OH244406   6.152   6.166  14.681  0.5409  0.0407 -0.1864
 7664TIP3    H144407   6.061   6.140  14.690  0.8453 -1.3519 -0.8147
 7664TIP3    H244408   6.154   6.259  14.706 -0.7011 -0.3795  1.6419
 7665TIP3   OH244409   6.194   4.796  10.709  0.2088  0.3031 -0.6039
 7665TIP3    H144410   6.150   4.881  10.701  0.0639  0.5041  1.7341
 7665TIP3    H244411   6.127   4.733  10.684  0.3511  0.8244 -2.4843
 7666TIP3   OH244412   2.617   3.512   5.749 -0.0005  0.0823 -0.1870
 7666TIP3    H144413   2.534   3.509   5.796 -0.0537  0.7565 -0.2292
 7666TIP3    H244414   2.651   3.422   5.755 -0.5974 -0.1350  0.0595
 7667TIP3   OH244415   2.948   1.792   1.263  0.1518 -0.0823  0.0627
 7667TIP3    H144416   2.866   1.836   1.285 -1.6154 -2.9972 -0.2576
 7667TIP3    H244417   2.987   1.770   1.348 -0.6610 -0.8273  0.2570
 7668TIP3   OH244418   3.843   3.584  12.662  0.6639 -0.0249  0.5840
 7668TIP3    H144419   3.889   3.665  12.642  0.7649 -0.0459  0.7386
 7668TIP3    H244420   3.796   3.602  12.743  0.4987 -0.0440  0.4928
 7669TIP3   OH244421   5.333   0.760  14.537  0.2524  0.4544 -0.4562
 7669TIP3    H144422   5.314   0.854  14.536  0.6249  0.5321 -1.7410
 7669TIP3    H244423   5.280   0.726  14.610  1.6742  1.9384  1.3852
 7670TIP3   OH244424   3.780   4.315   4.012  0.2303  0.1341  0.4988
 7670TIP3    H144425   3.836   4.311   4.089 -0.7592 -0.2901  1.2213
 7670TIP3    H244426   3.764   4.409   3.999  3.5412  0.5698 -1.5974
 7671TIP3   OH244427   2.846   2.706  12.986  0.2550  0.4607 -0.0528
 7671TIP3    H144428   2.859   2.731  13.077 -2.0218  1.1778  0.1285
 7671TIP3    H244429   2.902   2.768  12.937  3.4503 -1.4744  0.8295
 7672TIP3   OH244430   3.520   6.632  14.709 -1.1066 -0.2682  0.2021
 7672TIP3    H144431   3.510   6.726  14.720 -0.1595 -0.1409  0.0707
 7672TIP3    H244432   3.436   6.595  14.735 -0.5865  0.3946  3.1021
 7673TIP3   OH244433   0.434   1.150  11.292 -0.0101  0.3127  0.3423
 7673TIP3    H144434   0.481   1.233  11.291  0.4043  0.1997 -3.0753
 7673TIP3    H244435   0.502   1.084  11.305 -0.2664  0.4202  2.4968
 7674TIP3   OH244436   4.786   4.392  12.282 -0.4841  0.0149  0.2359
 7674TIP3    H144437   4.732   4.465  12.312 -2.1144 -1.1355  0.2419
 7674TIP3    H244438   4.815   4.348  12.362 -1.5535 -0.7406  0.2382
 7675TIP3   OH244439   5.349   6.676   1.674  0.2315 -0.0334 -0.1729
 7675TIP3    H144440   5.407   6.707   1.743 -0.3250  2.5409 -0.7621
 7675TIP3    H244441   5.406   6.623   1.617  1.4005  0.3765  0.5749
 7676TIP3   OH244442   0.773   2.205   1.448 -0.2943  0.3722 -0.0802
 7676TIP3    H144443   0.737   2.161   1.371  0.1277 -1.1437  0.5447
 7676TIP3    H244444   0.747   2.150   1.521  2.0381 -0.0164  0.5392
 7677TIP3   OH244445   0.999   3.886  11.650 -0.1496  0.3596 -0.5165
 7677TIP3    H144446   1.070   3.935  11.692 -0.9269  0.4001  0.8096
 7677TIP3    H244447   0.935   3.953  11.626 -0.6940  0.1266  0.2471
 7678TIP3   OH244448   1.316   3.761   4.908  0.1176  0.2775  0.5786
 7678TIP3    H144449   1.222   3.779   4.908  0.1624  0.5348  1.3295
 7678TIP3    H244450   1.348   3.798   4.990  1.1630  1.7527 -0.4350
 7679TIP3   OH244451   3.651   0.557   6.270  0.4334  0.0916 -0.8415
 7679TIP3    H144452   3.740   0.569   6.304 -0.0477 -0.8576  0.8769
 7679TIP3    H244453   3.646   0.464   6.248 -0.2965  0.0241 -0.4095
 7680TIP3   OH244454   0.664   4.889  12.955 -0.2719  0.3748 -0.6299
 7680TIP3    H144455   0.633   4.811  13.001  1.0776  0.5335  0.6298
 7680TIP3    H244456   0.617   4.961  12.996 -2.0840  0.2371 -2.2975
 7681TIP3   OH244457   4.153   0.721  13.374 -0.7517  0.2599  0.1645
 7681TIP3    H144458   4.172   0.780  13.301 -2.6044  1.3040  0.4525
 7681TIP3    H244459   4.227   0.731  13.433 -0.6776  1.7997 -0.1402
 7682TIP3   OH244460   2.835   1.200  13.918 -0.0762  0.5101  0.1073
 7682TIP3    H144461   2.812   1.199  14.011  1.2376  1.8983  0.4639
 7682TIP3    H244462   2.827   1.291  13.892  0.6101  0.2973 -0.8862
 7683TIP3   OH244463   1.765   0.134  16.995  0.6442 -0.0253  0.0265
 7683TIP3    H144464   1.845   0.115  17.044  0.2822 -3.2972 -0.4143
 7683TIP3    H244465   1.786   0.108  16.905 -1.1841 -2.1301  0.1224
 7684TIP3   OH244466   3.264   2.882   0.209  0.5198  0.3482 -0.2086
 7684TIP3    H144467   3.282   2.964   0.163  0.3080  1.5863  1.7578
 7684TIP3    H244468   3.288   2.813   0.147  1.6758  1.8929 -1.5688
 7685TIP3   OH244469   1.081   0.776  13.923  0.4859 -0.1001 -0.5688
 7685TIP3    H144470   1.028   0.711  13.970 -0.6808  0.0102 -1.6863
 7685TIP3    H244471   1.119   0.830  13.993  0.6812 -1.3609  0.3362
 7686TIP3   OH244472   6.440   0.943  11.527 -0.4287 -0.2027 -0.4635
 7686TIP3    H144473   6.356   0.900  11.540  0.5586 -1.9102  0.6137
 7686TIP3    H244474   6.493   0.879  11.479  0.7049  0.2567  0.1329
 7687TIP3   OH244475   5.082   5.044   4.703  0.5857  0.5465  0.8027
 7687TIP3    H144476   5.013   5.110   4.714 -0.4721 -0.4067  0.1047
 7687TIP3    H244477   5.072   4.986   4.778 -0.1067 -0.2255  0.1269
 7688TIP3   OH244478   5.714   3.007  12.030 -0.1018  0.2993  0.4251
 7688TIP3    H144479   5.629   3.050  12.017  0.5858  1.2040 -1.3627
 7688TIP3    H244480   5.769   3.075  12.070 -0.4199 -0.5719  2.5043
 7689TIP3   OH244481   1.243   0.098   2.170 -0.1571 -0.1674 -0.2038
 7689TIP3    H144482   1.333   0.070   2.188  0.3840  1.6229  0.0699
 7689TIP3    H244483   1.197   0.018   2.148  0.9866 -1.4411  1.7479
 7690TIP3   OH244484   6.656   6.206   1.841 -0.9278 -0.4590 -0.6674
 7690TIP3    H144485   6.616   6.249   1.917 -0.0335  0.3337 -0.6284
 7690TIP3    H244486   6.716   6.142   1.879 -0.0914  0.2982 -0.6810
 7691TIP3   OH244487   4.918   5.587   4.285  0.5569 -0.5004  0.1080
 7691TIP3    H144488   4.886   5.620   4.369  0.5662  0.4723 -0.2696
 7691TIP3    H244489   4.851   5.525   4.257  1.1957 -1.9065  1.4751
 7692TIP3   OH244490   4.081   5.619  14.876 -0.1760 -0.5014  0.8861
 7692TIP3    H144491   4.110   5.529  14.857  3.1031  0.4091  0.9958
 7692TIP3    H244492   4.159   5.662  14.911 -1.4877  2.5674  0.2935
 7693TIP3   OH244493   3.243   6.209  14.214  0.0232 -0.4247  0.0097
 7693TIP3    H144494   3.208   6.282  14.266  0.1205 -0.7096  0.4855
 7693TIP3    H244495   3.204   6.220  14.128 -1.8858 -1.1702  0.7230
 7694TIP3   OH244496   2.816   3.726  14.496 -0.0738 -0.5291  1.1897
 7694TIP3    H144497   2.877   3.793  14.526 -1.4593  1.7033 -0.5808
 7694TIP3    H244498   2.760   3.709  14.571  0.7174 -0.2114  1.8704
 7695TIP3   OH244499   1.472   3.773   6.346 -0.4936 -0.0816  0.5007
 7695TIP3    H144500   1.487   3.843   6.282  0.3101  0.9435  1.7589
 7695TIP3    H244501   1.380   3.752   6.337 -0.3876 -0.0016 -1.0243
 7696TIP3   OH244502   4.183   4.209  15.678 -0.1837 -0.5158  0.6736
 7696TIP3    H144503   4.152   4.161  15.601  0.8073  1.1315 -0.8040
 7696TIP3    H244504   4.115   4.274  15.695 -0.0766 -0.4305  0.7767
 7697TIP3   OH244505   5.376   1.795   0.802  0.2771 -0.3023  0.3391
 7697TIP3    H144506   5.299   1.739   0.815 -1.8688  2.2029 -0.7320
 7697TIP3    H244507   5.362   1.836   0.717  2.9924  0.0631 -0.0249
 7698TIP3   OH244508   3.552   2.651   4.063 -0.1581 -0.0770 -0.0627
 7698TIP3    H144509   3.576   2.705   4.138 -2.4192  0.3301  0.4340
 7698TIP3    H244510   3.467   2.613   4.086 -0.1018 -1.3608 -1.7032
 7699TIP3   OH244511   6.009   2.667  12.087 -0.2942  0.0653 -0.1820
 7699TIP3    H144512   6.102   2.690  12.081  0.0228 -0.8140  0.9333
 7699TIP3    H244513   5.973   2.731  12.149 -1.1076  2.1651 -2.6218
 7700TIP3   OH244514   3.994   3.374   1.219  0.4704 -0.1539  0.1808
 7700TIP3    H144515   3.963   3.328   1.297 -0.3501  0.8458  0.4645
 7700TIP3    H244516   4.077   3.331   1.198  0.3603 -0.9071  1.1808
 7701TIP3   OH244517   6.458   5.943   5.620 -0.5734 -0.0878  0.3731
 7701TIP3    H144518   6.424   5.881   5.556  0.1424  0.5181 -0.6363
 7701TIP3    H244519   6.423   5.914   5.704 -1.6286 -0.8394 -0.3078
 7702TIP3   OH244520   0.507   1.967  13.686  0.2673 -0.4527 -0.2949
 7702TIP3    H144521   0.516   1.929  13.599 -0.6130 -0.4712 -0.3889
 7702TIP3    H244522   0.447   1.908  13.732 -1.4847  0.9943 -0.5805
 7703TIP3   OH244523   4.805   0.901  12.143  0.4616 -0.5864  0.3610
 7703TIP3    H144524   4.875   0.952  12.103 -0.7642  0.8688 -0.0516
 7703TIP3    H244525   4.818   0.910  12.237  1.8359 -1.8117  0.3052
 7704TIP3   OH244526   3.371   1.550  12.510  0.7129  0.2088 -0.7439
 7704TIP3    H144527   3.381   1.612  12.582 -0.7408  2.1956 -2.1529
 7704TIP3    H244528   3.280   1.521  12.516  1.1654 -1.2500 -0.5750
 7705TIP3   OH244529   6.053   5.045  10.699  0.7103 -0.3440 -0.0278
 7705TIP3    H144530   6.030   5.121  10.753 -0.5085 -0.6108 -0.1400
 7705TIP3    H244531   5.980   5.036  10.638  0.7583 -1.6756  0.0703
 7706TIP3   OH244532   4.530   3.754   2.962  0.1998  0.4621  0.3570
 7706TIP3    H144533   4.490   3.813   2.898 -1.2586 -0.4859  0.3231
 7706TIP3    H244534   4.548   3.674   2.912 -1.6453 -0.5676  1.2113
 7707TIP3   OH244535   1.738   0.641   3.668  0.3113  0.1304 -0.1643
 7707TIP3    H144536   1.657   0.617   3.714 -0.7619 -0.9440 -2.4367
 7707TIP3    H244537   1.783   0.700   3.728 -2.2952  1.0165  1.1022
 7708TIP3   OH244538   6.537   0.829  16.144  0.1167 -0.0415  0.1557
 7708TIP3    H144539   6.516   0.778  16.066  0.7106  0.1080 -0.1022
 7708TIP3    H244540   6.476   0.903  16.141  0.6366  0.3727 -0.5780
 7709TIP3   OH244541   0.595   3.839   5.169  0.1528 -0.0092  0.2594
 7709TIP3    H144542   0.520   3.781   5.153 -0.3794  0.3500  1.3651
 7709TIP3    H244543   0.612   3.880   5.085 -0.8913 -0.1024 -0.0087
 7710TIP3   OH244544   5.870   2.772   2.640 -0.8596 -0.0012  0.6049
 7710TIP3    H144545   5.840   2.839   2.701 -0.9455  1.0097 -0.5300
 7710TIP3    H244546   5.915   2.708   2.696 -3.1533 -0.4523  2.0604
 7711TIP3   OH244547   6.432   4.367   1.254 -0.2961 -0.1293  0.3457
 7711TIP3    H144548   6.410   4.424   1.180  0.9554  1.4823  1.1605
 7711TIP3    H244549   6.524   4.346   1.241  0.4050  1.4815  2.2159
 7712TIP3   OH244550   4.652   4.611  14.950  0.6830 -0.1620 -0.3480
 7712TIP3    H144551   4.692   4.681  14.899  1.7785 -0.3537  0.2148
 7712TIP3    H244552   4.671   4.635  15.041 -2.3216  0.8637  0.1381
 7713TIP3   OH244553   6.630   4.070   3.397  0.2153 -0.3615 -0.3167
 7713TIP3    H144554   6.712   4.079   3.347  0.5811 -0.1373  0.3182
 7713TIP3    H244555   6.644   4.121   3.476 -0.6700 -0.0532 -0.3527
 7714TIP3   OH244556   1.951   3.234  16.443  0.2878  0.4076  0.1941
 7714TIP3    H144557   1.948   3.158  16.501 -1.7086 -0.5015 -0.9988
 7714TIP3    H244558   2.043   3.263  16.446  1.0934 -1.9635  0.7962
 7715TIP3   OH244559   5.448   6.042   5.081  0.3800  0.4454 -0.1594
 7715TIP3    H144560   5.387   6.015   5.013  0.0142 -0.8037  0.6374
 7715TIP3    H244561   5.525   5.987   5.067  0.5634  0.6448  0.0462
 7716TIP3   OH244562   4.853   4.034  15.768 -0.4118 -0.2050  0.1965
 7716TIP3    H144563   4.856   4.095  15.842 -0.1917 -1.8088  1.5781
 7716TIP3    H244564   4.777   3.979  15.785  0.7633 -1.8644  0.3254
 7717TIP3   OH244565   0.294   3.032   4.203  0.3440 -0.4016  0.2489
 7717TIP3    H144566   0.227   2.982   4.249 -0.6685  0.9361  0.2968
 7717TIP3    H244567   0.340   2.968   4.149 -0.0296 -1.5845  1.3018
 7718TIP3   OH244568   0.871   6.215  10.862  0.1203 -0.0359  0.4155
 7718TIP3    H144569   0.926   6.187  10.789 -0.9204 -0.6900 -0.1446
 7718TIP3    H244570   0.875   6.310  10.860 -0.5679 -0.0099 -1.0574
 7719TIP3   OH244571   2.847   2.741   5.171 -0.7545  0.2295 -0.2983
 7719TIP3    H144572   2.759   2.714   5.196 -0.6717  0.1072 -0.1384
 7719TIP3    H244573   2.870   2.682   5.099 -0.0277 -1.0947  0.9551
 7720TIP3   OH244574   3.550   4.444  10.918 -0.1534  0.0473  0.2977
 7720TIP3    H144575   3.615   4.514  10.912  0.7364 -0.8489 -1.4104
 7720TIP3    H244576   3.471   4.480  10.877 -0.3895  0.7347  1.3170
 7721TIP3   OH244577   0.295   3.472   3.627  0.3010  0.0185 -0.0550
 7721TIP3    H144578   0.260   3.532   3.562 -0.9338 -0.4962  0.1194
 7721TIP3    H244579   0.355   3.415   3.579 -0.5403 -0.3057 -0.7316
 7722TIP3   OH244580   3.778   4.244  11.845 -0.4143  0.0063 -0.0446
 7722TIP3    H144581   3.727   4.236  11.764 -0.1825  0.0937 -0.1997
 7722TIP3    H244582   3.865   4.269  11.816  0.3440 -2.3199  0.0495
 7723TIP3   OH244583   0.438   4.344   3.815  0.2513  0.3027 -0.1574
 7723TIP3    H144584   0.491   4.310   3.744 -0.5333 -0.2158 -0.5090
 7723TIP3    H244585   0.490   4.329   3.894  0.9345  0.4763 -0.5712
 7724TIP3   OH244586   4.477   4.031  15.750  0.2329  0.9567 -0.3831
 7724TIP3    H144587   4.497   4.001  15.662  0.3452  0.8041 -0.3044
 7724TIP3    H244588   4.536   3.983  15.807 -2.2383 -1.6833  0.1727
 7725TIP3   OH244589   3.054   3.667  12.298 -0.5537  0.6357 -0.2781
 7725TIP3    H144590   3.064   3.751  12.253  0.4271  1.0165  0.5998
 7725TIP3    H244591   2.974   3.630  12.262 -1.3045  2.1879 -0.2892
 7726TIP3   OH244592   1.736   3.066  14.285  0.8011  0.1078 -0.1546
 7726TIP3    H144593   1.670   3.134  14.299  1.5470  0.9049 -0.3827
 7726TIP3    H244594   1.694   3.004  14.226  0.0994  0.3721  0.0557
 7727TIP3   OH244595   3.681   0.583  13.058  0.2572 -0.9057  0.2471
 7727TIP3    H144596   3.628   0.627  12.992 -0.8081 -1.2656  0.8374
 7727TIP3    H244597   3.660   0.627  13.140 -0.3592 -2.0712  0.7493
 7728TIP3   OH244598   5.434   4.921   5.526  0.4283 -0.1560  0.0706
 7728TIP3    H144599   5.455   4.998   5.579  0.0239  0.6823 -0.9491
 7728TIP3    H244600   5.519   4.890   5.495  0.7105 -0.9153  1.5243
 7729TIP3   OH244601   3.925   4.142  16.003  0.2704  0.0126 -0.3289
 7729TIP3    H144602   3.896   4.079  15.937 -1.7555  1.4008 -0.8483
 7729TIP3    H244603   3.869   4.126  16.078  0.2487  0.6832 -0.1943
 7730TIP3   OH244604   2.256   5.055  12.671 -0.7226 -0.4436  0.3984
 7730TIP3    H144605   2.258   4.962  12.694 -0.3824 -0.3594  0.7194
 7730TIP3    H244606   2.232   5.056  12.578  1.4554 -0.9738 -0.2414
 7731TIP3   OH244607   5.605   2.901   4.774 -0.3532 -0.5110  0.4162
 7731TIP3    H144608   5.617   2.806   4.775 -0.7309 -0.5865 -0.6420
 7731TIP3    H244609   5.510   2.913   4.773 -0.3305 -0.0838  1.8803
 7732TIP3   OH244610   0.701   1.916  14.919 -0.1351 -0.2736 -0.3143
 7732TIP3    H144611   0.753   1.985  14.959 -0.5708 -0.7657  1.1743
 7732TIP3    H244612   0.710   1.930  14.825 -0.1863  1.7727 -0.0624
 7733TIP3   OH244613   6.071   6.546  11.150 -0.2183  0.2177 -0.5028
 7733TIP3    H144614   6.151   6.541  11.098  0.8745 -2.0383  1.1775
 7733TIP3    H244615   6.081   6.476  11.215 -2.8859  0.8678  0.7476
 7734TIP3   OH244616   1.262   0.992  12.692 -0.2669 -0.6665 -0.0108
 7734TIP3    H144617   1.228   0.962  12.608  1.1210 -0.9656 -0.4902
 7734TIP3    H244618   1.356   0.975  12.688  0.2580  1.6399  0.5863
 7735TIP3   OH244619   1.393   3.018  14.372 -0.1901  0.6239  0.2278
 7735TIP3    H144620   1.399   2.985  14.282 -1.6065 -0.6394  0.5512
 7735TIP3    H244621   1.369   2.941  14.424 -0.8569  1.6292  1.4574
 7736TIP3   OH244622   1.976   5.504  16.372  0.0491 -0.8104  0.1519
 7736TIP3    H144623   2.007   5.569  16.435  0.5265 -2.1696  1.3921
 7736TIP3    H244624   1.906   5.457  16.419  2.3452 -3.7890  0.9044
 7737TIP3   OH244625   3.574   2.239  15.825  0.6729  0.0883  0.3955
 7737TIP3    H144626   3.641   2.235  15.893  0.9889 -1.1273  0.0406
 7737TIP3    H244627   3.622   2.266  15.746  0.5222  0.3780  0.4030
 7738TIP3   OH244628   0.163   5.366   3.141 -0.4051  0.4990 -0.1223
 7738TIP3    H144629   0.212   5.286   3.119  2.1433  1.7466  0.7012
 7738TIP3    H244630   0.117   5.389   3.060 -1.6384 -2.0155 -0.2417
 7739TIP3   OH244631   6.230   2.453   1.820 -0.1615 -0.2344  0.3558
 7739TIP3    H144632   6.148   2.437   1.867 -0.4480  0.0628 -0.0374
 7739TIP3    H244633   6.227   2.545   1.797  1.0215  0.1813  1.7212
 7740TIP3   OH244634   1.613   5.965  16.724 -0.3820  0.8713  0.0345
 7740TIP3    H144635   1.648   6.042  16.769  0.7022  0.8476 -0.7429
 7740TIP3    H244636   1.577   5.999  16.642  1.7250  0.3533 -1.1559
 7741TIP3   OH244637   4.588   3.449  13.331  0.6108 -0.1491 -0.6450
 7741TIP3    H144638   4.561   3.457  13.423 -0.3247 -0.0024 -0.9231
 7741TIP3    H244639   4.555   3.529  13.290  2.4616  0.5881 -0.7870
 7742TIP3   OH244640   2.828   1.519  10.048  0.1542 -0.5556  0.0071
 7742TIP3    H144641   2.886   1.446  10.070  0.7765 -0.3765 -0.9717
 7742TIP3    H244642   2.752   1.507  10.104  1.2002 -0.7073  1.4585
 7743TIP3   OH244643   1.078   1.933   5.229 -0.2780  0.4346  0.2058
 7743TIP3    H144644   0.990   1.971   5.224  0.2761  1.7524 -0.0758
 7743TIP3    H244645   1.121   1.962   5.149  0.6757  0.5028  0.7264
 7744TIP3   OH244646   2.962   3.545  15.632  0.7911 -0.6686  0.4800
 7744TIP3    H144647   3.021   3.620  15.629 -0.2162  0.1133 -0.5912
 7744TIP3    H244648   2.943   3.533  15.725  1.5328 -0.0725  0.7214
 7745TIP3   OH244649   1.627   5.446  17.280  0.3755 -0.3801  0.1227
 7745TIP3    H144650   1.582   5.445  17.196  0.8743 -0.5151 -0.1432
 7745TIP3    H244651   1.557   5.457  17.344  0.0189 -0.0133 -0.3251
 7746TIP3   OH244652   6.679   6.724  15.238  0.1330 -0.0355 -0.1355
 7746TIP3    H144653   6.746   6.676  15.286 -0.5144 -0.9516 -0.1171
 7746TIP3    H244654   6.727   6.775  15.173  0.9194  0.2023  0.6274
 7747TIP3   OH244655   4.706   0.788  15.856  0.1875 -0.0505 -0.7294
 7747TIP3    H144656   4.775   0.843  15.894 -0.4318 -1.2452  2.4623
 7747TIP3    H244657   4.626   0.817  15.899 -0.7417 -0.9977 -1.7669
 7748TIP3   OH244658   1.375   3.208   2.090 -0.1825  0.7450  0.9483
 7748TIP3    H144659   1.333   3.124   2.075 -0.2680  0.9907 -0.2665
 7748TIP3    H244660   1.396   3.208   2.184  0.1171 -0.7598  0.9086
 7749TIP3   OH244661   1.394   3.795  13.510  0.2265  0.1489 -0.1162
 7749TIP3    H144662   1.417   3.749  13.429  0.5096  0.6174 -0.3098
 7749TIP3    H244663   1.446   3.876  13.507 -1.0381  0.9949 -0.3113
 7750TIP3   OH244664   2.061   3.830  14.558  0.1828 -0.0788  0.7976
 7750TIP3    H144665   2.150   3.831  14.522  0.7425 -0.6289  2.0916
 7750TIP3    H244666   2.073   3.851  14.650 -1.0125 -0.4271  1.0435
 7751TIP3   OH244667   0.528   5.444  16.679 -0.0759 -0.0224  0.7682
 7751TIP3    H144668   0.607   5.496  16.676 -1.0804  1.5930  1.0343
 7751TIP3    H244669   0.500   5.449  16.771  0.0437 -1.4271  0.9007
 7752TIP3   OH244670   1.419   5.962   1.402  0.0209  0.1961  0.1737
 7752TIP3    H144671   1.451   5.899   1.338 -0.4585 -0.3996  0.5064
 7752TIP3    H244672   1.342   5.920   1.440  0.2510  0.5709  1.0848
 7753TIP3   OH244673   5.544   5.120  12.976 -0.4746 -0.2845 -0.2990
 7753TIP3    H144674   5.588   5.036  12.986 -3.5040 -1.7282  3.3123
 7753TIP3    H244675   5.595   5.180  13.031  0.5049 -0.2664 -1.2080
 7754TIP3   OH244676   0.530   1.951  14.518  0.2622  0.2566 -0.5547
 7754TIP3    H144677   0.549   1.874  14.571 -1.6455 -0.1318 -0.3666
 7754TIP3    H244678   0.537   1.920  14.428 -2.6722 -0.8271 -0.5137
 7755TIP3   OH244679   1.790   1.678  17.038 -0.2947  0.9277  0.7612
 7755TIP3    H144680   1.743   1.654  17.118  0.6685 -2.2684  0.5090
 7755TIP3    H244681   1.760   1.615  16.972  2.5093  0.2766 -0.0457
 7756TIP3   OH244682   6.674   0.837   1.979 -0.1079  0.7982  0.0012
 7756TIP3    H144683   6.652   0.874   1.893  0.1519 -2.0403 -1.3988
 7756TIP3    H244684   6.591   0.835   2.026 -0.3264  2.0787 -0.3010
 7757TIP3   OH244685   3.463   3.006  15.094  0.2520 -0.7031  0.7186
 7757TIP3    H144686   3.556   2.983  15.095 -0.0376 -2.2932 -1.6910
 7757TIP3    H244687   3.461   3.095  15.131  2.8991 -0.1088 -0.2823
 7758TIP3   OH244688   3.828   6.107  10.992  0.1533 -0.2160 -0.4819
 7758TIP3    H144689   3.911   6.077  11.031 -1.0794 -1.7646  1.1344
 7758TIP3    H244690   3.855   6.162  10.919  2.6192 -0.9126 -0.2128
 7759TIP3   OH244691   1.444   5.680  11.786 -0.3384  0.0042 -0.0980
 7759TIP3    H144692   1.355   5.645  11.776 -0.9519  0.4253  2.9941
 7759TIP3    H244693   1.486   5.621  11.849  0.8202  1.1232  0.2146
 7760TIP3   OH244694   0.740   2.723   3.085  0.2078 -0.2687 -0.1839
 7760TIP3    H144695   0.659   2.728   3.034 -0.8096 -2.2368  1.1255
 7760TIP3    H244696   0.795   2.660   3.039  0.7111  0.4719 -0.6325
 7761TIP3   OH244697   5.968   2.903   3.596  0.0504  0.3143  0.0015
 7761TIP3    H144698   5.948   2.883   3.687 -0.0665 -0.3604 -0.1652
 7761TIP3    H244699   5.975   2.818   3.553  1.2568  0.5926 -0.3865
 7762TIP3   OH244700   0.177   6.622   4.568  0.0834 -0.6710 -0.1830
 7762TIP3    H144701   0.261   6.576   4.565  0.9520  0.8126  0.0413
 7762TIP3    H244702   0.117   6.566   4.519  0.7299 -2.6454  1.1244
 7763TIP3   OH244703   1.660   3.181  16.034  0.0123 -0.4693  0.6377
 7763TIP3    H144704   1.691   3.218  16.116 -1.8535 -0.5588  1.4353
 7763TIP3    H244705   1.653   3.256  15.975  2.3045 -0.5438  0.1860
 7764TIP3   OH244706   4.013   2.586  11.848  0.6250  0.1880  0.5907
 7764TIP3    H144707   4.079   2.523  11.820  0.0352 -0.5808  0.8754
 7764TIP3    H244708   4.042   2.613  11.936  1.3561  1.0085  0.1080
 7765TIP3   OH244709   2.009   2.374  11.025 -0.6955  0.0796 -0.0594
 7765TIP3    H144710   1.995   2.352  10.933  0.1805  0.9497 -0.4301
 7765TIP3    H244711   1.982   2.466  11.031 -2.2093 -0.4001  0.9263
 7766TIP3   OH244712   3.556   3.337   5.710 -0.1905  0.3142 -0.3869
 7766TIP3    H144713   3.480   3.339   5.767 -1.2715  0.3344 -1.7764
 7766TIP3    H244714   3.602   3.419   5.728  1.0843 -0.9087  2.4636
 7767TIP3   OH244715   1.059   3.023  14.111  0.5778 -0.2898  0.0412
 7767TIP3    H144716   1.125   3.090  14.126  0.6229 -0.6301  1.5040
 7767TIP3    H244717   0.978   3.061  14.145  0.6532 -1.0385  1.1157
 7768TIP3   OH244718   4.623   0.415   0.637 -0.0731  0.1622 -0.0418
 7768TIP3    H144719   4.713   0.391   0.659  0.6851  1.4635 -1.5343
 7768TIP3    H244720   4.569   0.358   0.692  1.6327  0.3735  1.9716
 7769TIP3   OH244721   0.998   6.112   6.207  0.4685  0.3853  0.6367
 7769TIP3    H144722   1.066   6.063   6.255 -0.6986 -0.8045  1.1336
 7769TIP3    H244723   0.940   6.044   6.172 -0.1953  1.3657 -0.2119
 7770TIP3   OH244724   4.049   3.309  12.093 -0.1055 -0.3520  0.5848
 7770TIP3    H144725   4.138   3.295  12.061 -0.4886  1.0624 -1.2536
 7770TIP3    H244726   4.060   3.331  12.186  1.4882  0.0903  0.3153
 7771TIP3   OH244727   1.995   3.602   1.497  0.0286  0.3879 -0.4225
 7771TIP3    H144728   1.954   3.648   1.424 -1.8533  0.1729  0.4433
 7771TIP3    H244729   1.927   3.542   1.529  1.9121 -2.0311 -0.6158
 7772TIP3   OH244730   1.548   5.276  15.588 -0.0298 -0.4892 -0.7833
 7772TIP3    H144731   1.639   5.258  15.567 -0.2546 -2.8455 -0.0435
 7772TIP3    H244732   1.498   5.234  15.518 -0.5836 -1.2180  0.0297
 7773TIP3   OH244733   5.735   4.961  11.953 -0.7788 -0.4962 -0.0517
 7773TIP3    H144734   5.827   4.949  11.978 -0.6511 -1.8845 -1.0450
 7773TIP3    H244735   5.728   5.052  11.927  0.5709 -0.6160 -0.9051
 7774TIP3   OH244736   0.503   4.414   1.472  0.1653 -0.0002 -0.0914
 7774TIP3    H144737   0.461   4.354   1.410 -2.3636  0.3436  1.1739
 7774TIP3    H244738   0.498   4.369   1.556  0.4319  0.9553  0.4513
 7775TIP3   OH244739   3.120   1.382   5.728  0.2062 -0.0615  0.2930
 7775TIP3    H144740   3.063   1.307   5.712  0.4565 -0.3718  0.8370
 7775TIP3    H244741   3.120   1.393   5.823 -2.2824  2.5692  0.1308
 7776TIP3   OH244742   3.839   5.371   2.224 -0.3515  0.1706 -0.1252
 7776TIP3    H144743   3.852   5.278   2.204 -0.8170  0.3913 -1.5569
 7776TIP3    H244744   3.928   5.408   2.222 -0.2248 -0.1307 -0.1673
 7777TIP3   OH244745   2.616   3.261  12.009 -0.1300  0.4265 -0.1272
 7777TIP3    H144746   2.712   3.264  12.011 -0.0102 -0.6386 -1.9132
 7777TIP3    H244747   2.595   3.168  12.020 -0.7942  0.2579 -2.4096
 7778TIP3   OH244748   3.900   3.683  11.875  0.7068  0.1186  0.4930
 7778TIP3    H144749   3.833   3.751  11.864 -0.1180 -0.9192 -1.3950
 7778TIP3    H244750   3.962   3.700  11.803  0.9280 -0.6239  0.5058
 7779TIP3   OH244751   5.665   2.621   3.561 -0.0743  0.0258  0.6313
 7779TIP3    H144752   5.644   2.711   3.538  0.1327 -0.1620 -0.3493
 7779TIP3    H244753   5.591   2.569   3.530 -0.1101 -0.1678  1.0261
 7780TIP3   OH244754   3.964   0.033  15.286 -0.0306  0.3615 -0.6396
 7780TIP3    H144755   3.967  -0.007  15.373  0.7258 -0.5552 -1.0781
 7780TIP3    H244756   3.871   0.051  15.273 -0.1111  0.9449  0.5416
 7781TIP3   OH244757   3.311   6.635   4.683  0.3703  0.3311 -0.1326
 7781TIP3    H144758   3.288   6.612   4.773 -0.0795  3.0870  0.5680
 7781TIP3    H244759   3.262   6.716   4.666  1.9198  0.9441 -2.1705
 7782TIP3   OH244760   6.444   3.897   3.250 -0.6049  0.1656  0.0425
 7782TIP3    H144761   6.470   3.922   3.339 -0.7017  0.2413  0.0492
 7782TIP3    H244762   6.380   3.827   3.263  2.0258 -2.4868  0.0133
 7783TIP3   OH244763   4.948   1.201  17.185  0.1760 -0.3095 -0.0904
 7783TIP3    H144764   5.019   1.204  17.121  0.5699 -2.2077  0.2090
 7783TIP3    H244765   4.975   1.262  17.254 -0.9727  2.9984 -2.3042
 7784TIP3   OH244766   1.755   4.657  12.437 -0.2462 -0.4401  0.7802
 7784TIP3    H144767   1.744   4.687  12.528 -0.8662 -2.7194  1.5156
 7784TIP3    H244768   1.814   4.582  12.443 -0.0876 -0.4713 -0.7577
 7785TIP3   OH244769   4.664   3.368  10.742 -0.1647 -0.3058  0.1541
 7785TIP3    H144770   4.590   3.309  10.730  0.1449 -0.8443  0.7857
 7785TIP3    H244771   4.716   3.357  10.663 -0.5913 -0.1679 -0.1500
 7786TIP3   OH244772   4.531   1.086   1.244 -0.1977  0.0412  0.2901
 7786TIP3    H144773   4.608   1.104   1.191  0.4527  2.5763  1.9629
 7786TIP3    H244774   4.502   1.171   1.275 -1.7071 -1.1476  2.4273
 7787TIP3   OH244775   4.420   6.355   1.243  0.5174 -0.3797 -0.0366
 7787TIP3    H144776   4.418   6.448   1.217  0.6842 -0.4434 -0.2837
 7787TIP3    H244777   4.368   6.311   1.176 -0.9697 -0.2635  0.9757
 7788TIP3   OH244778   5.708   0.760   3.169  0.1224 -0.4118  0.2309
 7788TIP3    H144779   5.686   0.850   3.145 -0.9479 -0.3133  1.4641
 7788TIP3    H244780   5.699   0.711   3.087 -0.3403  0.4120 -0.2272
 7789TIP3   OH244781   1.349   3.604  15.853  0.4846 -0.2858 -0.7511
 7789TIP3    H144782   1.260   3.570  15.839  1.0024 -1.5380 -1.1615
 7789TIP3    H244783   1.399   3.567  15.780  1.9969 -2.0846  1.0781
 7790TIP3   OH244784   5.687   6.482  17.109  0.1502  0.2277  0.6027
 7790TIP3    H144785   5.603   6.528  17.105  0.5159  0.9357  0.9160
 7790TIP3    H244786   5.712   6.485  17.201 -0.1347 -1.2096  0.7561
 7791TIP3   OH244787   3.607   1.041   5.873 -0.3544  0.5536  0.3779
 7791TIP3    H144788   3.574   1.103   5.808  1.0940 -0.8894 -1.8708
 7791TIP3    H244789   3.536   0.979   5.885 -0.9169  1.2607  0.8076
 7792TIP3   OH244790   3.949   3.549   3.089  0.5896  0.0463  0.3674
 7792TIP3    H144791   4.007   3.524   3.161  1.1892 -0.5552 -0.3046
 7792TIP3    H244792   3.910   3.631   3.117  1.6044  0.3539  0.9396
 7793TIP3   OH244793   5.417   0.556   5.743  0.1120  0.2751 -0.0839
 7793TIP3    H144794   5.448   0.466   5.753 -1.0143 -0.0837  0.3265
 7793TIP3    H244795   5.388   0.582   5.830 -0.8060  0.5594 -0.4586
 7794TIP3   OH244796   1.110   4.469   2.605 -0.1581 -0.1403 -0.1144
 7794TIP3    H144797   1.166   4.403   2.564  0.0689  0.0269 -0.0777
 7794TIP3    H244798   1.171   4.524   2.655 -0.2214  0.6482 -0.8781
 7795TIP3   OH244799   1.221   1.351  14.438  0.3324  0.9944 -0.4820
 7795TIP3    H144800   1.256   1.441  14.438  0.3945  0.9708 -0.3725
 7795TIP3    H244801   1.151   1.353  14.373  0.3378  1.1214 -0.4854
 7796TIP3   OH244802   1.766   3.237   3.915  0.2673  0.2452 -0.0169
 7796TIP3    H144803   1.775   3.269   3.825 -0.8056  1.3332  0.2392
 7796TIP3    H244804   1.721   3.153   3.905 -2.0704  1.4713 -0.3976
 7797TIP3   OH244805   1.230   3.540   0.259 -0.0719  0.1979  0.3149
 7797TIP3    H144806   1.310   3.533   0.207  0.5171  0.0946  1.2046
 7797TIP3    H244807   1.160   3.551   0.195  0.7130  0.7941 -0.4677
 7798TIP3   OH244808   3.482   3.157   5.222  0.0117  0.2012 -0.1692
 7798TIP3    H144809   3.502   3.167   5.129  2.1120  0.4670  0.2564
 7798TIP3    H244810   3.426   3.080   5.227  2.2177 -1.6014 -1.4392
 7799TIP3   OH244811   2.457   0.777  16.274 -0.2047  0.0269 -0.0292
 7799TIP3    H144812   2.369   0.770  16.312  0.3442  1.4105  1.6204
 7799TIP3    H244813   2.515   0.745  16.343  0.6635  0.1427 -0.6981
 7800TIP3   OH244814   1.596   4.542  13.400  0.1965 -0.1009 -0.2834
 7800TIP3    H144815   1.684   4.553  13.435 -0.1470 -2.5984  1.5921
 7800TIP3    H244816   1.594   4.452  13.367 -2.2463 -0.8777  1.7062
 7801TIP3   OH244817   1.701   3.579   4.429  0.2558  0.2248 -0.1524
 7801TIP3    H144818   1.737   3.543   4.510  1.1953  0.2413 -0.5423
 7801TIP3    H244819   1.770   3.564   4.364  0.1375  1.5612 -0.6135
 7802TIP3   OH244820   5.749   4.882   2.121  0.1902 -0.1561  0.2164
 7802TIP3    H144821   5.753   4.815   2.053 -0.0513  0.0506 -0.0024
 7802TIP3    H244822   5.841   4.900   2.143  0.4119  1.6224 -1.8658
 7803TIP3   OH244823   0.335   2.241   4.417  0.3931  0.1345 -0.0098
 7803TIP3    H144824   0.321   2.268   4.508  0.3692 -2.2599  0.7749
 7803TIP3    H244825   0.248   2.248   4.376 -0.0559 -0.7199  0.7576
 7804TIP3   OH244826   4.263   2.329   0.581 -0.7407 -0.3411 -0.3373
 7804TIP3    H144827   4.181   2.295   0.616 -2.0041 -0.1539 -2.8625
 7804TIP3    H244828   4.272   2.285   0.496  1.0093  0.7580 -0.7624
 7805TIP3   OH244829   5.167   1.196  17.384 -0.1508  0.1141 -0.6489
 7805TIP3    H144830   5.234   1.181  17.450 -0.4839  0.9612 -0.1078
 7805TIP3    H244831   5.139   1.109  17.358  1.6027 -0.2922 -1.3530
 7806TIP3   OH244832   6.595   2.682  16.280 -0.0967 -0.1842  0.3008
 7806TIP3    H144833   6.529   2.690  16.211 -0.7066 -0.3232  0.8446
 7806TIP3    H244834   6.553   2.721  16.357  1.2065  1.5166  0.1992
 7807TIP3   OH244835   6.163   2.213  12.167 -0.6167  0.2094  0.2007
 7807TIP3    H144836   6.228   2.143  12.156 -0.7418  0.3525 -1.8947
 7807TIP3    H244837   6.171   2.265  12.087 -0.9083  2.2980  1.4685
 7808TIP3   OH244838   3.464   3.197   4.945 -0.1431 -0.1981  0.1518
 7808TIP3    H144839   3.399   3.267   4.941  0.5965  0.4403 -1.2279
 7808TIP3    H244840   3.453   3.150   4.863  0.1053 -1.0556  0.5945
 7809TIP3   OH244841   3.830   3.233   5.229  0.1723  0.1895  0.2755
 7809TIP3    H144842   3.807   3.141   5.242  0.0340 -0.0609 -1.4357
 7809TIP3    H244843   3.747   3.280   5.237 -0.1232 -0.1019 -0.7766
 7810TIP3   OH244844   0.997   0.394  10.465 -0.2950  0.4741  0.7886
 7810TIP3    H144845   1.090   0.379  10.444 -0.8411 -0.7932 -0.9835
 7810TIP3    H244846   0.977   0.329  10.532 -0.5257 -1.1093 -0.7596
 7811TIP3   OH244847   3.547   3.382   0.811 -0.3540  1.1547  0.1508
 7811TIP3    H144848   3.490   3.383   0.734  1.0594  1.9070 -0.9092
 7811TIP3    H244849   3.599   3.462   0.805 -0.1695  1.2166  1.8770
 7812TIP3   OH244850   6.703   5.496  13.571  0.0278 -0.2442  0.1865
 7812TIP3    H144851   6.640   5.567  13.557  2.3451  2.1469  1.0176
 7812TIP3    H244852   6.655   5.430  13.622 -2.7049 -0.1376 -2.0572
 7813TIP3   OH244853   2.867   1.490   5.418  0.4055  0.7208 -0.1008
 7813TIP3    H144854   2.865   1.480   5.323 -0.3463  3.2105 -0.4156
 7813TIP3    H244855   2.777   1.477   5.446  0.4005  1.1716  0.1033
 7814TIP3   OH244856   2.035   3.166  16.138 -0.3482  0.2387 -0.0976
 7814TIP3    H144857   2.120   3.123  16.143  0.3860  1.6996  0.8787
 7814TIP3    H244858   1.988   3.135  16.215  0.5123  1.7514  1.1014
 7815TIP3   OH244859   1.504   6.738  12.405 -0.4201  0.0539 -0.3415
 7815TIP3    H144860   1.451   6.809  12.370 -1.8381 -0.3648  0.8570
 7815TIP3    H244861   1.579   6.782  12.446 -2.1203  1.0821  1.8925
 7816TIP3   OH244862   2.285   2.657  10.953  0.5783 -0.4931  0.1281
 7816TIP3    H144863   2.280   2.644  10.859  0.7410  0.9640 -0.0917
 7816TIP3    H244864   2.236   2.738  10.970 -1.6207 -1.9833  1.6157
 7817TIP3   OH244865   5.677   5.901   3.072  0.5952 -0.0224 -0.1082
 7817TIP3    H144866   5.718   5.983   3.100 -0.0128  0.5827 -0.9545
 7817TIP3    H244867   5.703   5.837   3.139  0.1087  1.1190  1.2002
 7818TIP3   OH244868   1.020   2.907  12.182  0.5998 -0.3026 -0.4063
 7818TIP3    H144869   1.085   2.975  12.165  0.5768 -0.3398 -0.6477
 7818TIP3    H244870   0.938   2.946  12.151  0.2193  0.3708  1.3258
 7819TIP3   OH244871   6.266   4.737  17.221  0.6617 -0.0566  0.7420
 7819TIP3    H144872   6.321   4.815  17.210 -0.1727  0.2743 -1.5666
 7819TIP3    H244873   6.326   4.664  17.210  1.0148  0.2790  0.3897
 7820TIP3   OH244874   2.839   4.956  12.652  1.0264  0.0419  0.1175
 7820TIP3    H144875   2.906   4.890  12.669  0.1780 -0.5085  1.4855
 7820TIP3    H244876   2.756   4.912  12.671  0.2164  0.5962 -1.8523
 7821TIP3   OH244877   2.400   3.808  17.039 -0.0497 -0.3159  0.6497
 7821TIP3    H144878   2.450   3.804  17.121 -0.8291  1.7826  1.2872
 7821TIP3    H244879   2.331   3.742  17.049  0.1841 -0.4488  1.4371
 7822TIP3   OH244880   0.217   4.489   3.410 -0.3655  0.0690 -0.1299
 7822TIP3    H144881   0.232   4.505   3.317 -1.2197 -3.0556 -0.9058
 7822TIP3    H244882   0.258   4.564   3.454  3.0795  0.0193 -2.8152
 7823TIP3   OH244883   0.302   3.755  13.253 -0.3562 -0.2111 -0.3691
 7823TIP3    H144884   0.211   3.725  13.252 -0.3175 -0.4546  1.0995
 7823TIP3    H244885   0.299   3.839  13.299  0.3520 -1.0113  1.2166
 7824TIP3   OH244886   1.725   1.896   5.631  0.7607  0.3257 -0.0812
 7824TIP3    H144887   1.690   1.847   5.557  1.8623  0.6791 -0.8626
 7824TIP3    H244888   1.741   1.830   5.698 -0.2936  0.0111 -0.1254
 7825TIP3   OH244889   2.667   0.518  14.533 -0.1697  0.0017 -0.4649
 7825TIP3    H144890   2.608   0.446  14.552 -0.5316  0.3634 -0.2194
 7825TIP3    H244891   2.675   0.566  14.616  1.5596 -0.8325 -0.0965
 7826TIP3   OH244892   4.359   3.257   2.329  0.4332  0.0528 -0.6917
 7826TIP3    H144893   4.360   3.352   2.314 -0.8051  0.3920  1.1046
 7826TIP3    H244894   4.444   3.227   2.296  1.5962  2.0659  0.3012
 7827TIP3   OH244895   3.619   0.398  13.295 -0.3215 -0.6271  0.3352
 7827TIP3    H144896   3.659   0.377  13.211  1.2637 -1.0734  1.1419
 7827TIP3    H244897   3.549   0.333  13.305  2.0033 -3.2471  1.0405
 7828TIP3   OH244898   5.345   0.440  12.811  0.1910  0.2168  0.1839
 7828TIP3    H144899   5.316   0.531  12.823  0.0880  0.6467 -2.6382
 7828TIP3    H244900   5.416   0.446  12.748  0.0555 -1.6936 -0.2097
 7829TIP3   OH244901   0.787   4.975  11.620 -0.1874  0.0371 -0.6715
 7829TIP3    H144902   0.875   4.992  11.652 -0.6957  2.1887 -0.2707
 7829TIP3    H244903   0.783   4.880  11.609  1.6618 -0.2577  0.7784
 7830TIP3   OH244904   5.469   0.705   0.415 -0.3972  0.0661 -0.3154
 7830TIP3    H144905   5.405   0.699   0.344  1.0791  1.1441 -1.8277
 7830TIP3    H244906   5.552   0.724   0.370  1.3849 -3.0193  1.3705
 7831TIP3   OH244907   4.500   3.301  12.548  0.0150  0.2799  0.0295
 7831TIP3    H144908   4.474   3.299  12.640  1.9513 -1.9094  0.6308
 7831TIP3    H244909   4.519   3.209  12.527 -1.2534  0.5750 -2.8553
 7832TIP3   OH244910   3.843   4.250   1.748  0.0903 -0.0123 -0.0594
 7832TIP3    H144911   3.936   4.261   1.731  0.1090 -0.6202 -0.4031
 7832TIP3    H244912   3.801   4.259   1.663  0.0148 -1.3942 -0.2010
 7833TIP3   OH244913   6.139   2.285   4.115  0.3004  0.3044 -0.6187
 7833TIP3    H144914   6.068   2.312   4.057  0.2735 -1.2996 -1.3792
 7833TIP3    H244915   6.219   2.299   4.065  0.2818 -1.0275 -1.0580
 7834TIP3   OH244916   1.415   3.031   2.372  0.2774  0.2253  0.2696
 7834TIP3    H144917   1.483   2.965   2.362  0.2530  0.5100 -2.9070
 7834TIP3    H244918   1.436   3.075   2.454  2.3870 -1.3751  0.6745
 7835TIP3   OH244919   4.693   5.462  12.161  0.0642  0.2208 -0.0051
 7835TIP3    H144920   4.770   5.405  12.164 -1.9245 -3.0115 -2.6295
 7835TIP3    H244921   4.721   5.537  12.108  1.7214 -0.2839  0.0920
 7836TIP3   OH244922   3.545   0.199   5.221 -0.7355 -0.4681  0.0736
 7836TIP3    H144923   3.515   0.253   5.148 -1.4002 -0.9424 -0.0101
 7836TIP3    H244924   3.465   0.167   5.262 -0.3546 -1.1393  0.3093
 7837TIP3   OH244925   0.114   2.222  13.413  0.6835 -0.3126 -0.4026
 7837TIP3    H144926   0.087   2.263  13.330  1.2088  0.0855 -0.3818
 7837TIP3    H244927   0.054   2.148  13.424 -1.6832  1.6334  0.6211
 7838TIP3   OH244928   4.749   3.847   0.103  0.0881 -0.3693  0.3678
 7838TIP3    H144929   4.815   3.914   0.083 -0.6059  0.2834  0.2279
 7838TIP3    H244930   4.773   3.815   0.190 -0.4436  1.1495  1.1070
 7839TIP3   OH244931   6.251   3.579  14.403 -0.5636  0.2433 -0.3421
 7839TIP3    H144932   6.242   3.490  14.439  0.6020 -0.0444 -0.7100
 7839TIP3    H244933   6.205   3.635  14.466 -1.5910 -0.6511 -0.2716
 7840TIP3   OH244934   1.653   5.104   1.749 -0.1834 -0.3216  0.5754
 7840TIP3    H144935   1.600   5.183   1.760 -0.5811 -0.1915 -1.7874
 7840TIP3    H244936   1.740   5.135   1.724 -0.5219 -0.5846 -1.0495
 7841TIP3   OH244937   0.354   5.323   2.089 -0.3510  0.0591 -0.1848
 7841TIP3    H144938   0.406   5.264   2.035  0.7787 -0.6252  1.5574
 7841TIP3    H244939   0.418   5.379   2.133 -1.0843 -0.3512  1.5052
 7842TIP3   OH244940   2.015   6.027   0.363  0.5041 -0.4013  0.1717
 7842TIP3    H144941   2.043   6.113   0.333  0.1791 -0.4468 -0.2780
 7842TIP3    H244942   2.067   6.010   0.441  0.6137  0.1767  0.2272
 7843TIP3   OH244943   2.873   5.155  13.558 -0.0115  0.0314  0.0216
 7843TIP3    H144944   2.785   5.145  13.522  0.1017  1.9309 -0.9656
 7843TIP3    H244945   2.861   5.212  13.634  0.2012 -0.9915  0.8392
 7844TIP3   OH244946   5.443   6.005  17.328 -0.0495 -0.0704 -0.3312
 7844TIP3    H144947   5.400   5.954  17.259 -0.7199  1.4493 -1.0912
 7844TIP3    H244948   5.517   5.951  17.355 -0.8435 -1.5326 -0.9407
 7845TIP3   OH244949   6.331   5.379  11.913  0.0834 -0.6006  0.2775
 7845TIP3    H144950   6.401   5.318  11.889 -0.0684 -0.9677  0.7368
 7845TIP3    H244951   6.349   5.400  12.005 -0.7316 -1.1604  0.5829
 7846TIP3   OH244952   5.929   0.112  17.322  0.3273 -0.2242 -0.0356
 7846TIP3    H144953   5.875   0.047  17.367 -0.1975 -2.1407 -3.1251
 7846TIP3    H244954   5.938   0.078  17.233  1.7563  2.9970 -1.2692
 7847TIP3   OH244955   5.674   4.124  15.288  0.1151  0.2763 -0.3656
 7847TIP3    H144956   5.586   4.162  15.284 -0.8715 -1.7478  0.8268
 7847TIP3    H244957   5.687   4.087  15.201  0.0980  1.1901 -0.7720
 7848TIP3   OH244958   5.320   2.548  14.581 -0.5774  0.7923 -0.1642
 7848TIP3    H144959   5.339   2.629  14.628 -2.0194  1.7806 -1.2002
 7848TIP3    H244960   5.248   2.508  14.631  0.2348  0.0243  0.4377
 7849TIP3   OH244961   4.882   3.804  14.482 -0.1431 -0.1216 -0.3318
 7849TIP3    H144962   4.868   3.799  14.387  1.9516  1.9024 -0.8454
 7849TIP3    H244963   4.949   3.738  14.499  1.0158  0.9161 -0.6903
 7850TIP3   OH244964   6.256   4.075   1.868 -0.0957 -0.0148 -0.3212
 7850TIP3    H144965   6.224   4.058   1.779 -1.0934 -0.3477  0.0855
 7850TIP3    H244966   6.327   4.138   1.857 -1.1953  1.1123 -1.2322
 7851TIP3   OH244967   0.871   0.081   5.893  0.3853 -0.6244 -0.3599
 7851TIP3    H144968   0.910   0.035   5.819  0.7377 -0.4146 -0.3028
 7851TIP3    H244969   0.841   0.011   5.951 -0.3666 -0.8006 -0.9399
 7852TIP3   OH244970   3.890   4.252   4.261 -0.5563  0.0422  0.2202
 7852TIP3    H144971   3.844   4.287   4.338  0.7173 -0.4574  1.2434
 7852TIP3    H244972   3.950   4.187   4.297  0.0986 -0.1729 -1.2092
 7853TIP3   OH244973   6.411   5.241  10.866  0.1386 -0.3010  0.3733
 7853TIP3    H144974   6.318   5.260  10.882  0.0802  1.5975 -1.7931
 7853TIP3    H244975   6.412   5.149  10.841 -0.9219 -0.7611  1.8117
 7854TIP3   OH244976   5.656   2.939  13.977 -0.5847 -0.0953  0.4603
 7854TIP3    H144977   5.671   2.870  14.042 -1.3990 -0.3476  0.3916
 7854TIP3    H244978   5.567   2.923  13.945 -0.6403  0.7577  0.1631
 7855TIP3   OH244979   2.688   6.264  10.985 -0.2898  0.3487 -0.1686
 7855TIP3    H144980   2.733   6.348  10.985  0.8278 -0.2209  0.9194
 7855TIP3    H244981   2.597   6.285  10.964  0.0142  1.7866 -0.1254
 7856TIP3   OH244982   2.321   6.624   1.231  0.1923 -0.3655  0.1384
 7856TIP3    H144983   2.227   6.612   1.241 -0.0932 -0.2678 -1.9484
 7856TIP3    H244984   2.353   6.637   1.320 -1.7364 -0.5172  0.9080
 7857TIP3   OH244985   3.501   1.226   2.994  0.2366  0.4955  0.1496
 7857TIP3    H144986   3.557   1.184   3.059 -0.1254  2.1775  1.5998
 7857TIP3    H244987   3.560   1.284   2.946 -0.0163  1.3925  0.9020
 7858TIP3   OH244988   5.640   0.016   3.985  0.4686 -0.1116  0.3598
 7858TIP3    H144989   5.635  -0.068   3.938 -1.5789  0.5215 -0.6480
 7858TIP3    H244990   5.733   0.024   4.008  0.6053 -3.0670  1.3281
 7859TIP3   OH244991   2.554   3.539  16.365 -0.0117 -0.5439 -0.0718
 7859TIP3    H144992   2.482   3.480  16.386 -0.9817  0.8330  0.6488
 7859TIP3    H244993   2.521   3.626  16.388  1.7521  0.1707 -0.0737
 7860TIP3   OH244994   3.731   1.544  13.408  0.2672  0.2976 -0.5549
 7860TIP3    H144995   3.696   1.624  13.369  1.6280  1.4952  0.5157
 7860TIP3    H244996   3.720   1.557  13.503 -1.1966 -1.6595 -0.3902
 7861TIP3   OH244997   2.704   3.459  13.873 -0.3684 -0.0344  0.4110
 7861TIP3    H144998   2.723   3.550  13.849 -0.0424 -0.4371 -0.9320
 7861TIP3    H244999   2.719   3.409  13.793 -0.7423 -1.2564  1.0732
 7862TIP3   OH245000   0.858   3.791  15.248  0.2944  0.2405  0.1904
 7862TIP3    H145001   0.907   3.715  15.216 -1.4160 -2.2826  2.9463
 7862TIP3    H245002   0.924   3.845  15.292  1.2461 -0.9340  0.2698
 7863TIP3   OH245003   3.514   4.025  14.843 -0.4750  0.1228 -0.1740
 7863TIP3    H145004   3.437   4.021  14.900 -0.9374  2.0912 -0.5926
 7863TIP3    H245005   3.511   4.113  14.805 -0.1702 -1.0654 -3.2211
 7864TIP3   OH245006   1.091   3.224  13.294 -0.2822  0.3770 -0.1290
 7864TIP3    H145007   1.106   3.204  13.201  0.7456  2.0179 -0.3560
 7864TIP3    H245008   1.087   3.138  13.336  1.9986 -0.4061 -1.3016
 7865TIP3   OH245009   5.766   0.935  14.569 -0.4722 -0.0510 -0.1492
 7865TIP3    H145010   5.852   0.906  14.541 -0.5722 -1.0584  0.5361
 7865TIP3    H245011   5.731   0.984  14.495  0.5037 -0.0169 -0.5936
 7866TIP3   OH245012   4.972   5.949   2.714 -0.2021  0.7270  0.3082
 7866TIP3    H145013   4.994   5.930   2.805 -0.2842  0.8276  0.3489
 7866TIP3    H245014   4.889   5.903   2.699  0.3370 -0.1503 -0.0229
 7867TIP3   OH245015   4.438   6.084  12.288  0.1460  0.0441 -0.0881
 7867TIP3    H145016   4.412   6.100  12.197  0.8716 -1.6767 -0.6270
 7867TIP3    H245017   4.364   6.037  12.327  0.5358 -0.7539 -0.2973
 7868TIP3   OH245018   6.584   2.843  11.129  0.1169  0.1648 -0.2317
 7868TIP3    H145019   6.493   2.821  11.145  0.6438 -0.9704  1.5320
 7868TIP3    H245020   6.602   2.811  11.040 -1.4601  1.4327 -1.0447
 7869TIP3   OH245021   6.298   2.935   1.571  0.3165 -0.1379  0.3419
 7869TIP3    H145022   6.250   2.965   1.494  1.3061  1.5466  0.3287
 7869TIP3    H245023   6.390   2.937   1.544  0.4861 -2.9817  0.4570
 7870TIP3   OH245024   3.205   3.506   1.460  0.5890  0.6384 -0.0717
 7870TIP3    H145025   3.127   3.561   1.468 -1.6885 -2.1152 -1.4733
 7870TIP3    H245026   3.223   3.504   1.366  1.0524 -0.4138  0.0299
 7871TIP3   OH245027   4.028   0.807  15.012  0.2056  0.1683  0.1548
 7871TIP3    H145028   4.021   0.740  14.944  0.1717  0.2023  0.1247
 7871TIP3    H245029   3.994   0.887  14.971 -0.8125 -0.0445  0.5416
 7872TIP3   OH245030   6.412   3.763  16.747 -0.0869 -0.0680  0.1409
 7872TIP3    H145031   6.396   3.675  16.780  2.2238 -0.3384  0.6950
 7872TIP3    H245032   6.479   3.751  16.678 -0.1178  1.1941 -0.1261
 7873TIP3   OH245033   2.431   0.985   1.657  0.1969  0.3819 -0.1778
 7873TIP3    H145034   2.377   1.017   1.729  0.2546  0.3853 -0.1358
 7873TIP3    H245035   2.517   0.969   1.697  0.0453 -0.2579 -0.1007
 7874TIP3   OH245036   6.116   6.559  13.173  0.1252 -0.4379  0.1545
 7874TIP3    H145037   6.031   6.558  13.216  0.7353 -0.6159  1.3906
 7874TIP3    H245038   6.096   6.552  13.080 -1.2009 -0.5547  0.4351
 7875TIP3   OH245039   0.868   4.704  11.437  0.1599 -0.3939  0.6001
 7875TIP3    H145040   0.955   4.730  11.467  0.6442 -2.3237  1.0032
 7875TIP3    H245041   0.885   4.644  11.365 -0.8580 -0.4135  0.3698
 7876TIP3   OH245042   1.265   2.572   1.807  0.9836  0.3727 -0.2274
 7876TIP3    H145043   1.223   2.513   1.870  1.1804  1.4287  0.9270
 7876TIP3    H245044   1.193   2.609   1.757  0.6979  0.6769  0.4048
 7877TIP3   OH245045   3.204   0.537   0.752  0.5633 -0.0632 -0.0671
 7877TIP3    H145046   3.143   0.607   0.728  0.5145 -0.0174  0.1924
 7877TIP3    H245047   3.260   0.528   0.675 -0.0448 -0.4017 -0.4785
 7878TIP3   OH245048   1.693   0.288   3.182  0.1713 -0.2942 -0.0799
 7878TIP3    H145049   1.674   0.337   3.103  1.8305 -1.0516 -0.9970
 7878TIP3    H245050   1.780   0.318   3.210  1.7535 -3.2955 -1.2774
 7879TIP3   OH245051   5.226   2.401  11.921 -0.1776 -0.3264 -1.0182
 7879TIP3    H145052   5.223   2.450  11.838 -0.5228 -0.0726 -0.8590
 7879TIP3    H245053   5.136   2.369  11.933 -0.2765  0.1504 -0.4378
 7880TIP3   OH245054   5.383   5.539   0.137 -0.5425  0.0971 -0.4189
 7880TIP3    H145055   5.325   5.557   0.064 -0.4552 -1.1316 -0.8060
 7880TIP3    H245056   5.419   5.452   0.119  0.4703  0.3211  0.4290
 7881TIP3   OH245057   0.469   0.871   3.824  0.2463  0.8825  0.5965
 7881TIP3    H145058   0.397   0.918   3.865 -0.5919 -1.4198  1.9668
 7881TIP3    H245059   0.456   0.779   3.850  1.7566 -0.1499 -1.9085
 7882TIP3   OH245060   6.106   0.435  13.008  0.0425  0.2198 -0.1314
 7882TIP3    H145061   6.137   0.367  13.067 -0.2037 -0.5397 -0.8639
 7882TIP3    H245062   6.183   0.456  12.954 -0.4744 -1.1472 -1.4599
 7883TIP3   OH245063   0.442   5.333   2.989  0.3423  0.5742  0.1328
 7883TIP3    H145064   0.494   5.381   2.924 -0.5531  1.5682  0.1302
 7883TIP3    H245065   0.423   5.249   2.947  2.3647 -0.0375  0.3364
 7884TIP3   OH245066   2.587   2.656  10.898  0.0856 -0.2415 -0.2792
 7884TIP3    H145067   2.614   2.665  10.990 -0.0395 -0.5122 -0.2133
 7884TIP3    H245068   2.494   2.632  10.903  0.1633 -0.5893 -0.4632
 7885TIP3   OH245069   0.536   4.714   2.403  0.7178 -0.0983  0.0318
 7885TIP3    H145070   0.561   4.796   2.445 -1.4485  0.0086  1.2873
 7885TIP3    H245071   0.534   4.735   2.310  0.8467  1.0881  0.2765
 7886TIP3   OH245072   5.866   2.029   2.152  0.7277  0.3413  0.4289
 7886TIP3    H145073   5.812   2.085   2.097 -1.0090 -0.8762  0.8219
 7886TIP3    H245074   5.929   1.990   2.091 -0.5228 -0.2200 -0.5466
 7887TIP3   OH245075   2.647   5.102  13.411 -0.4760 -0.0724 -0.4146
 7887TIP3    H145076   2.596   5.132  13.486 -0.3889  0.1141 -0.4283
 7887TIP3    H245077   2.586   5.106  13.337  0.0535  1.9272 -0.7902
 7888TIP3   OH245078   5.073   2.491  12.288 -0.6766  0.1186 -0.4620
 7888TIP3    H145079   5.044   2.582  12.289  1.3497  0.8083 -0.5703
 7888TIP3    H245080   5.015   2.447  12.350  0.3260  2.1802  2.1501
 7889TIP3   OH245081   4.331   3.359   3.832 -0.3766 -0.1167  0.4194
 7889TIP3    H145082   4.294   3.404   3.908  0.0427  2.4092 -0.7540
 7889TIP3    H245083   4.262   3.365   3.765 -0.3222 -1.3004  0.2435
 7890TIP3   OH245084   1.613   1.372  17.276  0.6729  0.4745  0.4428
 7890TIP3    H145085   1.600   1.374  17.181  4.0495  0.2548 -0.1481
 7890TIP3    H245086   1.645   1.460  17.299  1.0379  0.1772  1.1342
 7891TIP3   OH245087   5.804   1.394  10.889 -0.6052  0.3866 -0.0576
 7891TIP3    H145088   5.770   1.305  10.877  1.3829 -0.7402  1.8410
 7891TIP3    H245089   5.869   1.404  10.820 -0.1790 -0.0262  0.2734
 7892TIP3   OH245090   4.548   4.029  13.520 -0.5786 -0.1002  0.0717
 7892TIP3    H145091   4.541   3.959  13.585 -0.2137  2.0219  2.5169
 7892TIP3    H245092   4.460   4.064  13.512 -0.0761  1.7957  2.0376
 7893TIP3   OH245093   5.728   3.148  16.483  0.1436 -0.7622  0.3061
 7893TIP3    H145094   5.725   3.223  16.424  0.0690  0.2141  1.5193
 7893TIP3    H245095   5.641   3.109  16.478 -0.3514  0.2283  0.9025
 7894TIP3   OH245096   5.134   6.179   4.404  0.3337 -0.3176  0.0931
 7894TIP3    H145097   5.068   6.117   4.434 -0.9106  0.5618 -0.7245
 7894TIP3    H245098   5.181   6.132   4.335 -0.4989 -0.4212 -0.4134
 7895TIP3   OH245099   5.545   3.961   0.997  0.5845 -0.2394  0.1184
 7895TIP3    H145100   5.502   4.036   1.037  0.6607  0.8041 -1.6517
 7895TIP3    H245101   5.493   3.943   0.918  1.1170 -1.4660  0.0238
 7896TIP3   OH245102   0.157   0.462   1.982 -0.3502 -0.1078  0.1163
 7896TIP3    H145103   0.204   0.410   2.047  0.1134 -0.1971 -0.2817
 7896TIP3    H245104   0.084   0.501   2.030  0.3947  0.4025  0.8602
 7897TIP3   OH245105   1.762   4.813  11.311  0.4265  0.6639  0.1080
 7897TIP3    H145106   1.815   4.740  11.344  0.1105  1.2582  2.0401
 7897TIP3    H245107   1.796   4.829  11.223  2.9451  0.5082  0.9666
 7898TIP3   OH245108   5.649   3.302  11.088 -0.0643 -0.1355  0.1232
 7898TIP3    H145109   5.676   3.308  10.996 -0.7462  0.7298 -0.0358
 7898TIP3    H245110   5.698   3.227  11.122 -0.7815 -1.3171 -1.2915
 7899TIP3   OH245111   2.172   1.880   4.087  0.2617  0.9452  0.3087
 7899TIP3    H145112   2.155   1.884   4.181  1.3275  0.4196  0.5322
 7899TIP3    H245113   2.085   1.870   4.048 -0.1590  0.7876  1.2602
 7900TIP3   OH245114   0.086   2.350  13.655  0.2474 -0.0713 -0.0542
 7900TIP3    H145115   0.155   2.289  13.629 -0.0181 -0.6068  0.4930
 7900TIP3    H245116   0.062   2.395  13.574 -0.8721 -1.9921 -0.8426
 7901TIP3   OH245117   5.135   3.388   3.582 -0.5682 -0.2332 -0.2471
 7901TIP3    H145118   5.045   3.364   3.558 -1.0886  0.9537  0.4464
 7901TIP3    H245119   5.126   3.430   3.667  0.4491  1.3024 -0.8714
 7902TIP3   OH245120   5.449   3.260  16.426  0.4131 -0.3404  0.1638
 7902TIP3    H145121   5.391   3.200  16.473  1.0088 -0.9193  0.1584
 7902TIP3    H245122   5.428   3.346  16.463  0.4192 -0.7000  1.0306
 7903TIP3   OH245123   4.966   0.516   2.981  0.4397 -0.0849  0.4490
 7903TIP3    H145124   5.002   0.454   3.043  0.1156 -0.3611  0.3650
 7903TIP3    H245125   4.901   0.565   3.031 -2.1785 -2.4412 -0.3836
 7904TIP3   OH245126   0.531   1.413   2.536  0.4303 -0.5474 -0.1630
 7904TIP3    H145127   0.607   1.472   2.543  0.8049 -0.5928 -2.8013
 7904TIP3    H245128   0.500   1.425   2.446 -3.1398 -0.0647  0.9908
 7905TIP3   OH245129   2.309   4.890   2.868  0.7670  0.0420  0.4553
 7905TIP3    H145130   2.220   4.908   2.837  0.9519 -0.4531 -0.3934
 7905TIP3    H245131   2.334   4.969   2.916 -0.4093 -0.1152  1.3717
 7906TIP3   OH245132   4.333   0.891  15.111 -0.0287 -0.1498 -1.0347
 7906TIP3    H145133   4.298   0.832  15.045 -0.9179 -0.1415 -0.5773
 7906TIP3    H245134   4.317   0.847  15.195  0.5783  0.0955 -0.7792
 7907TIP3   OH245135   2.849   2.962  12.292 -0.0205  0.9981 -0.4896
 7907TIP3    H145136   2.937   2.953  12.327 -0.1377  2.9592  0.4791
 7907TIP3    H245137   2.814   2.873  12.289  1.1878  0.4167  1.3069
 7908TIP3   OH245138   4.618   1.087   1.662 -0.4475 -0.2819 -0.4801
 7908TIP3    H145139   4.561   1.153   1.623  0.7312  0.3788 -1.1297
 7908TIP3    H245140   4.620   1.109   1.755 -1.2124 -0.3024 -0.4500
 7909TIP3   OH245141   3.048   6.256   5.629  0.0323  0.5362 -0.0561
 7909TIP3    H145142   3.104   6.179   5.619 -1.1082 -0.3595  0.2690
 7909TIP3    H245143   3.081   6.300   5.707 -0.5237 -0.7003  0.9002
 7910TIP3   OH245144   5.279   5.691  15.849  0.0079 -0.0532 -0.1546
 7910TIP3    H145145   5.199   5.703  15.798  0.9450 -0.5614 -1.8077
 7910TIP3    H245146   5.297   5.777  15.887 -0.4760  0.4512 -1.0489
 7911TIP3   OH245147   5.630   3.355  12.132  0.3657 -0.2538 -0.3377
 7911TIP3    H145148   5.597   3.291  12.068  2.7836 -1.0032 -0.9384
 7911TIP3    H245149   5.639   3.436  12.082 -1.3200  0.2121  0.0586
 7912TIP3   OH245150   5.832   0.231   2.339 -0.5007  0.1816 -0.2276
 7912TIP3    H145151   5.902   0.248   2.275 -0.6288 -0.6937 -0.6180
 7912TIP3    H245152   5.819   0.315   2.383  1.7861  0.0559  0.8493
 7913TIP3   OH245153   0.415   5.498  12.351  0.2423 -0.0545  0.0872
 7913TIP3    H145154   0.497   5.457  12.380  1.8441  1.1464 -2.3674
 7913TIP3    H245155   0.387   5.551  12.425  2.3264  0.3772  0.6435
 7914TIP3   OH245156   4.729   2.833  15.202 -0.2212  0.1276 -0.1341
 7914TIP3    H145157   4.783   2.754  15.204  0.4656  0.5634 -0.8683
 7914TIP3    H245158   4.772   2.893  15.263  0.4410  0.6709 -1.1285
 7915TIP3   OH245159   4.119   4.155  15.192 -0.1951  0.4715 -0.6031
 7915TIP3    H145160   4.121   4.062  15.211  0.6112  0.5459 -0.2923
 7915TIP3    H245161   4.128   4.197  15.277 -2.0441  0.8628 -0.5544
 7916TIP3   OH245162   0.320   6.573   2.034 -0.3187  0.0284  0.4452
 7916TIP3    H145163   0.290   6.620   2.112 -1.8146 -0.8897  0.4703
 7916TIP3    H245164   0.244   6.572   1.976 -0.0794 -1.6179  0.1030
 7917TIP3   OH245165   5.635   5.773   2.495  0.0618  0.2022 -0.5409
 7917TIP3    H145166   5.600   5.773   2.584  1.3303  2.1801  0.0532
 7917TIP3    H245167   5.568   5.816   2.442 -0.5280 -0.6208 -0.4734
 7918TIP3   OH245168   6.308   6.711  12.651  0.3248 -0.1463 -0.9719
 7918TIP3    H145169   6.356   6.677  12.726 -0.9431 -1.5009 -0.7239
 7918TIP3    H245170   6.329   6.804  12.649  1.0267 -0.2395  0.5645
 7919TIP3   OH245171   1.380   4.408   2.450 -0.4096 -0.5156 -0.0925
 7919TIP3    H145172   1.345   4.433   2.365  0.3527  2.5167  0.3474
 7919TIP3    H245173   1.387   4.491   2.498  3.1188 -1.5173  1.4198
 7920TIP3   OH245174   4.796   3.353  16.392  0.3001  0.3985  0.0158
 7920TIP3    H145175   4.702   3.362  16.380  0.1375 -0.3258  0.6738
 7920TIP3    H245176   4.822   3.283  16.331  0.5343  1.0515 -0.6509
 7921TIP3   OH245177   3.251   6.324  10.595 -0.5846  0.0395 -0.1957
 7921TIP3    H145178   3.286   6.308  10.682 -0.5138  2.4056  0.2777
 7921TIP3    H245179   3.200   6.405  10.604  0.5785  1.1546 -2.6238
 7922TIP3   OH245180   5.777   0.393   0.995 -0.1781 -0.5434 -0.7218
 7922TIP3    H145181   5.708   0.327   1.007 -1.4343  1.0633  2.3207
 7922TIP3    H245182   5.825   0.392   1.078  1.6365  0.3941 -1.7074
 7923TIP3   OH245183   0.067   4.169  15.368  0.0799  0.7941  0.0430
 7923TIP3    H145184   0.067   4.114  15.446 -0.8527  0.6449 -0.0594
 7923TIP3    H245185   0.017   4.120  15.303  0.2498  1.2316 -0.4263
 7924TIP3   OH245186   3.117   6.044   5.371  0.3591  0.4204  0.3869
 7924TIP3    H145187   3.134   6.131   5.335  0.4416  0.1104 -0.3399
 7924TIP3    H245188   3.191   6.028   5.430  0.1336  1.0050  0.8369
 7925TIP3   OH245189   2.777   3.706  14.222  0.6835 -0.1022  0.4883
 7925TIP3    H145190   2.783   3.673  14.312 -0.1901  0.5354  0.7835
 7925TIP3    H245191   2.692   3.748  14.217  0.9947  0.4427 -0.4529
 7926TIP3   OH245192   1.633   2.255  10.729  0.2801 -0.2155  0.3012
 7926TIP3    H145193   1.723   2.240  10.759  1.0176  1.0078 -1.1796
 7926TIP3    H245194   1.618   2.185  10.665  0.5148  0.1286 -0.1305
 7927TIP3   OH245195   4.241   0.264   0.952  0.0359  0.2396 -0.2003
 7927TIP3    H145196   4.257   0.198   1.020 -0.5600 -0.0739 -0.3520
 7927TIP3    H245197   4.309   0.248   0.887 -0.5190 -0.6915 -0.5674
 7928TIP3   OH245198   1.708   2.745   5.046  0.0122  0.6326 -0.3607
 7928TIP3    H145199   1.679   2.681   4.981  1.0655  1.2818 -1.5017
 7928TIP3    H245200   1.743   2.692   5.118  1.8872 -0.1112 -1.7575
 7929TIP3   OH245201   5.787   1.025   0.510  0.0243 -0.3359 -0.0628
 7929TIP3    H145202   5.810   0.936   0.483 -1.2339 -0.1467 -1.9343
 7929TIP3    H245203   5.738   1.013   0.591  0.4990 -1.2706  0.1049
 7930TIP3   OH245204   0.505   5.993  11.913 -0.2622  0.1211 -0.4356
 7930TIP3    H145205   0.530   5.935  11.985  0.0982  1.5906  0.6739
 7930TIP3    H245206   0.414   6.014  11.930  0.5497  2.6535  1.2345
 7931TIP3   OH245207   1.840   3.391  13.515  0.4821 -0.0724 -0.2878
 7931TIP3    H145208   1.927   3.351  13.507  0.4581 -0.2001  0.0478
 7931TIP3    H245209   1.825   3.395  13.610  1.0909  2.0721 -0.2303
 7932TIP3   OH245210   1.395   5.782   3.021 -0.4083  0.5005  0.5748
 7932TIP3    H145211   1.366   5.717   3.085 -0.7839  2.8384  3.0107
 7932TIP3    H245212   1.322   5.791   2.960 -0.6844 -0.7210  0.7024
 7933TIP3   OH245213   4.882   4.188   4.040 -0.4802 -0.6446 -0.1562
 7933TIP3    H145214   4.808   4.128   4.052  0.0828 -0.9987  1.7429
 7933TIP3    H245215   4.942   4.140   3.982  0.7844 -2.7958  2.7000
 7934TIP3   OH245216   3.354   3.451   0.118  0.0952  0.0641 -0.1421
 7934TIP3    H145217   3.259   3.467   0.112  0.4019  2.4570  0.4135
 7934TIP3    H245218   3.363   3.358   0.099 -2.6046 -0.8114  2.0882
 7935TIP3   OH245219   3.456   6.411  17.005  0.6868  0.1198 -0.5166
 7935TIP3    H145220   3.545   6.416  16.971  1.8779 -2.1507  1.8773
 7935TIP3    H245221   3.434   6.502  17.029  2.2048  0.7578 -1.4124
 7936TIP3   OH245222   2.936   1.387  16.124 -0.4827 -0.1095  0.6483
 7936TIP3    H145223   2.897   1.322  16.065 -0.4241 -1.4522  2.0340
 7936TIP3    H245224   2.872   1.399  16.193  0.2163  0.0757  1.2726
 7937TIP3   OH245225   2.742   3.916  13.965  0.5172 -0.2676 -0.5516
 7937TIP3    H145226   2.664   3.971  13.974  0.2730 -0.5154 -1.1038
 7937TIP3    H245227   2.799   3.943  14.037  0.3116  0.5602 -0.6885
 7938TIP3   OH245228   5.049   2.440   3.639  0.5698  0.0905 -0.1478
 7938TIP3    H145229   5.144   2.446   3.630  0.3915  0.7908 -1.8903
 7938TIP3    H245230   5.028   2.502   3.708  1.2863  0.5993 -0.3733
 7939TIP3   OH245231   2.283   4.884   3.777 -0.2209  0.0990 -0.4110
 7939TIP3    H145232   2.301   4.912   3.687  0.1736  0.3754 -0.2493
 7939TIP3    H245233   2.267   4.790   3.771  0.8667 -0.0821 -0.6202
 7940TIP3   OH245234   3.043   1.021  15.955 -0.1732 -0.3776 -0.0608
 7940TIP3    H145235   2.947   1.025  15.948 -0.1275 -0.3739 -0.8315
 7940TIP3    H245236   3.069   0.957  15.889  0.5103  1.3477 -1.5456
 7941TIP3   OH245237   0.432   3.297   5.182 -0.4706 -0.1813  0.6291
 7941TIP3    H145238   0.421   3.241   5.105  1.8397 -1.7956  1.3817
 7941TIP3    H245239   0.400   3.244   5.255  1.5987 -0.5473  1.3332
 7942TIP3   OH245240   3.859   5.125   3.410  0.4764 -0.5454 -0.5254
 7942TIP3    H145241   3.790   5.183   3.378  1.2076  1.0887  0.7099
 7942TIP3    H245242   3.906   5.099   3.331 -1.5500 -1.7745 -1.4070
 7943TIP3   OH245243   1.424   1.501   1.435  0.1916  0.8294 -0.2124
 7943TIP3    H145244   1.520   1.505   1.437  0.1952  0.6415  0.0418
 7943TIP3    H245245   1.400   1.472   1.523  0.0329 -2.1521 -1.1442
 7944TIP3   OH245246   0.132   2.512   4.174  1.1318  0.3609 -0.0668
 7944TIP3    H145247   0.178   2.445   4.124  0.6741  0.5914 -0.7989
 7944TIP3    H245248   0.093   2.464   4.248  0.5400 -0.2378 -0.7570
 7945TIP3   OH245249   2.618   1.737  14.875  0.2992 -0.4756  0.4723
 7945TIP3    H145250   2.612   1.693  14.790  1.4309  0.1755  0.0296
 7945TIP3    H245251   2.700   1.786  14.871  0.4224 -0.5144  1.9925
 7946TIP3   OH245252   2.019   2.283  14.926  0.4380 -0.3695 -0.4183
 7946TIP3    H145253   1.980   2.212  14.875 -0.3236  0.0856 -0.5027
 7946TIP3    H245254   2.000   2.362  14.875 -1.1553  0.2154  0.9742
 7947TIP3   OH245255   2.981   6.609   4.358  0.5116  0.2561  0.3609
 7947TIP3    H145256   2.945   6.648   4.278  2.6581 -2.0766 -1.9319
 7947TIP3    H245257   3.074   6.629   4.355  1.1746 -2.3919  0.5982
 7948TIP3   OH245258   4.636   4.482   4.738  0.0078 -0.3054  0.3124
 7948TIP3    H145259   4.705   4.521   4.684 -0.3455 -2.0527 -1.5336
 7948TIP3    H245260   4.575   4.554   4.754  2.1406  1.2811  1.9581
 7949TIP3   OH245261   1.875   0.690   2.443 -0.2203 -0.1890  0.0628
 7949TIP3    H145262   1.786   0.711   2.416 -0.6362 -1.2561  0.5434
 7949TIP3    H245263   1.898   0.613   2.391  0.2317 -0.2317  0.3245
 7950TIP3   OH245264   5.534   2.075  17.218  0.0443  0.3213  0.3816
 7950TIP3    H145265   5.516   2.165  17.192 -0.9702 -0.4782 -1.9441
 7950TIP3    H245266   5.565   2.032  17.139  0.1216 -1.4785  1.3309
 7951TIP3   OH245267   5.804   4.175   1.406  0.7715  0.4107  0.5769
 7951TIP3    H145268   5.805   4.212   1.317 -2.0474  0.5402  0.5133
 7951TIP3    H245269   5.760   4.242   1.459 -1.0375 -1.1929  1.2358
 7952TIP3   OH245270   6.435   4.359  12.270 -0.2784 -0.9321  0.3496
 7952TIP3    H145271   6.524   4.357  12.306  0.1511 -0.0483 -0.6110
 7952TIP3    H245272   6.392   4.283  12.309  0.4638 -0.5886  1.9148
 7953TIP3   OH245273   0.799   0.528   4.143  0.1146 -0.6952 -0.1512
 7953TIP3    H145274   0.872   0.532   4.081 -1.3066  1.4558 -1.8561
 7953TIP3    H245275   0.751   0.449   4.119  0.3355 -0.6057 -0.9201
 7954TIP3   OH245276   2.766   3.613  16.807 -0.2962 -0.2486  0.6655
 7954TIP3    H145277   2.791   3.587  16.718  0.1527  0.9479  0.4280
 7954TIP3    H245278   2.716   3.694  16.796  1.9246  1.3563  1.6271
 7955TIP3   OH245279   0.061   6.553   2.917 -0.4092 -0.0005  0.2904
 7955TIP3    H145280   0.124   6.486   2.945  0.6139  0.8621  0.0899
 7955TIP3    H245281  -0.017   6.536   2.970 -0.3404 -1.6435 -0.0850
 7956TIP3   OH245282   1.085   1.595  14.882 -0.1308  0.5671 -0.1000
 7956TIP3    H145283   1.148   1.638  14.940  1.1277  0.2668 -1.1985
 7956TIP3    H245284   1.132   1.584  14.799  0.3060 -4.4184  0.5287
 7957TIP3   OH245285   5.523   1.044  11.256 -0.2582  0.2188  0.4656
 7957TIP3    H145286   5.568   1.096  11.323 -1.3099 -0.0102  1.3701
 7957TIP3    H245287   5.590   0.982  11.225  0.9910  1.9705 -0.5583
 7958TIP3   OH245288   5.638   3.870   0.218  0.0386 -0.2228  0.2873
 7958TIP3    H145289   5.733   3.874   0.207 -0.0376  0.5184 -0.2208
 7958TIP3    H245290   5.623   3.883   0.311  0.4851 -1.5738  0.5692
 7959TIP3   OH245291   4.990   2.732   1.089  0.4215 -0.4197  0.5776
 7959TIP3    H145292   5.057   2.684   1.139  0.4157 -2.2364 -1.0550
 7959TIP3    H245293   4.912   2.676   1.093 -0.5850  0.9769  1.2220
 7960TIP3   OH245294   2.899   5.630  11.797  0.7895  0.1406 -0.2239
 7960TIP3    H145295   2.858   5.567  11.856 -1.2924  0.8356 -0.8321
 7960TIP3    H245296   2.875   5.600  11.709  0.2096  1.4735 -0.5416
 7961TIP3   OH245297   4.921   1.061   5.855  0.5037 -0.0169  0.9011
 7961TIP3    H145298   4.928   1.021   5.769 -0.7214  1.2484  0.1677
 7961TIP3    H245299   4.911   0.987   5.915  0.3812 -0.8865 -0.1561
 7962TIP3   OH245300   3.061   2.288  11.523  0.1759 -0.3539 -0.3748
 7962TIP3    H145301   2.997   2.340  11.572 -0.0607  0.4658 -1.5156
 7962TIP3    H245302   3.068   2.207  11.572 -1.9208 -0.5629 -0.3393
 7963TIP3   OH245303   3.271   0.119   4.386 -0.2049 -0.2464 -0.3226
 7963TIP3    H145304   3.320   0.199   4.368  0.6892 -1.1696 -2.3342
 7963TIP3    H245305   3.262   0.077   4.300 -1.9153 -1.5917  0.4633
 7964TIP3   OH245306   0.301   2.867  16.893 -0.1551 -0.2139  0.0912
 7964TIP3    H145307   0.345   2.839  16.973 -0.8650  0.1683  0.6260
 7964TIP3    H245308   0.366   2.856  16.824  0.6495 -0.0113  0.8084
 7965TIP3   OH245309   4.948   4.394  12.564 -0.0907 -0.7501 -0.2808
 7965TIP3    H145310   4.908   4.481  12.554  0.8795 -0.2488  0.1063
 7965TIP3    H245311   4.913   4.361  12.647 -0.6468 -0.8508 -0.5437
 7966TIP3   OH245312   2.404   0.315   1.738 -0.6586  0.4000  0.1847
 7966TIP3    H145313   2.494   0.287   1.727 -0.6912  0.5674 -0.5546
 7966TIP3    H245314   2.404   0.363   1.821 -0.5174 -1.3564  1.2596
 7967TIP3   OH245315   1.347   1.456  11.497  0.7754 -0.7847 -0.1846
 7967TIP3    H145316   1.338   1.550  11.479  2.4077 -0.7142 -0.8560
 7967TIP3    H245317   1.383   1.452  11.585  2.1570 -0.6741 -0.7110
 7968TIP3   OH245318   1.914   0.513   3.487 -0.0599  0.3613  0.0441
 7968TIP3    H145319   1.887   0.423   3.469  2.3233 -0.3148 -0.5146
 7968TIP3    H245320   1.853   0.543   3.554 -1.9427 -1.0749 -0.9214
 7969TIP3   OH245321   1.258   5.482   5.250 -0.1607 -0.1623  0.6619
 7969TIP3    H145322   1.343   5.492   5.293  0.4481 -1.2575 -0.2322
 7969TIP3    H245323   1.195   5.477   5.322  0.3816  1.7330  1.3143
 7970TIP3   OH245324   2.963   4.961  17.036  0.1195  0.7876 -1.1437
 7970TIP3    H145325   3.029   4.991  17.100 -0.8206  1.5120 -0.4743
 7970TIP3    H245326   2.941   5.040  16.987 -0.8930  0.7522 -0.7553
 7971TIP3   OH245327   4.860   0.906   3.894 -0.6712  0.0252 -0.3414
 7971TIP3    H145328   4.915   0.838   3.933  0.5246  0.9239 -0.4141
 7971TIP3    H245329   4.842   0.874   3.806 -0.3601 -0.3236 -0.2828
 7972TIP3   OH245330   6.727   3.483   5.429 -0.1257 -0.4433 -0.0968
 7972TIP3    H145331   6.688   3.521   5.351 -1.9277 -2.5368 -0.2985
 7972TIP3    H245332   6.653   3.451   5.480  1.1899 -2.1324  0.8482
 7973TIP3   OH245333   1.817   2.379   3.073 -0.6479 -0.3849  0.0933
 7973TIP3    H145334   1.844   2.465   3.041 -2.1519  0.3001  0.5510
 7973TIP3    H245335   1.896   2.342   3.112  0.0297  0.7966 -0.1121
 7974TIP3   OH245336   0.028   0.910   4.381  0.1951  0.3459 -0.2494
 7974TIP3    H145337  -0.028   0.966   4.326  2.2233  1.1010 -1.6502
 7974TIP3    H245338   0.059   0.968   4.451 -0.5228 -0.0037  0.3736
 7975TIP3   OH245339   6.361   6.310   2.156  0.0665  0.8622 -0.1265
 7975TIP3    H145340   6.292   6.354   2.205 -0.6980  0.6488 -0.9710
 7975TIP3    H245341   6.409   6.380   2.112 -0.4194  0.9320 -0.5497
 7976TIP3   OH245342   6.597   5.307  13.244 -0.4547  0.1461 -0.1438
 7976TIP3    H145343   6.524   5.363  13.216 -0.4090 -0.1296 -0.8384
 7976TIP3    H245344   6.676   5.353  13.214 -0.4379 -0.5218 -1.1714
 7977TIP3   OH245345   1.625   2.546   0.348  0.5210 -0.3124  0.0053
 7977TIP3    H145346   1.594   2.613   0.286  0.1892 -0.1582  0.3339
 7977TIP3    H245347   1.665   2.597   0.418  1.1945 -0.5004 -0.2427
 7978TIP3   OH245348   4.118   5.634  15.736 -0.4619  0.2617 -0.2843
 7978TIP3    H145349   4.052   5.632  15.806 -1.8406  1.5387 -1.4727
 7978TIP3    H245350   4.089   5.568  15.674  0.0248  0.0408 -0.2775
 7979TIP3   OH245351   2.106   4.197  12.104  0.1994  0.2896 -0.3201
 7979TIP3    H145352   2.029   4.167  12.153  1.2078 -0.5247  0.7994
 7979TIP3    H245353   2.115   4.289  12.130 -0.9586  0.6887 -1.2313
 7980TIP3   OH245354   1.853   0.127  16.432  0.1684 -0.3974 -0.0950
 7980TIP3    H145355   1.946   0.108  16.443  0.3036 -0.5110 -1.3122
 7980TIP3    H245356   1.812   0.091  16.510  1.0720 -0.8769  0.1746
 7981TIP3   OH245357   6.351   5.882  14.220 -0.2867 -0.0901  0.0367
 7981TIP3    H145358   6.402   5.825  14.277 -0.6130  0.2664  0.7104
 7981TIP3    H245359   6.415   5.925  14.164 -0.0818 -1.5251 -0.8850
 7982TIP3   OH245360   1.267   6.233  13.392 -0.1173  0.5500  0.2142
 7982TIP3    H145361   1.218   6.217  13.312  0.8736  2.7757 -0.9026
 7982TIP3    H245362   1.201   6.231  13.461 -1.4041  1.0652 -0.9569
 7983TIP3   OH245363   0.836   3.009  16.843  0.2894  0.4050  0.4346
 7983TIP3    H145364   0.794   3.091  16.817  0.0986  0.1579 -0.0434
 7983TIP3    H245365   0.915   3.003  16.790 -0.6921 -0.6674 -1.0062
 7984TIP3   OH245366   3.940   2.630  14.883  0.1438 -0.0645  0.3536
 7984TIP3    H145367   3.856   2.629  14.837  0.3627 -0.4295 -0.0416
 7984TIP3    H245368   4.002   2.666  14.820  0.7104 -1.7728 -0.1354
 7985TIP3   OH245369   2.011   4.115   3.772  0.8829  0.3133  0.0087
 7985TIP3    H145370   2.066   4.084   3.700  2.8287  0.1450  1.4973
 7985TIP3    H245371   1.974   4.036   3.811  0.0822  0.3863 -0.5644
 7986TIP3   OH245372   5.858   5.836   2.141  0.0114  0.1564  0.0593
 7986TIP3    H145373   5.769   5.825   2.175 -0.3960 -1.0377 -1.2650
 7986TIP3    H245374   5.915   5.825   2.217 -0.9087 -1.0078  0.6164
 7987TIP3   OH245375   6.250   3.820  13.805 -0.7889 -0.2119 -0.3583
 7987TIP3    H145376   6.218   3.734  13.835 -1.4456  0.7405  1.9791
 7987TIP3    H245377   6.328   3.836  13.858 -0.5561  0.5496 -0.9170
 7988TIP3   OH245378   2.898   2.037   1.671 -0.1568  0.5233  0.3672
 7988TIP3    H145379   2.974   2.096   1.668  0.4236 -0.2440 -0.7146
 7988TIP3    H245380   2.827   2.091   1.704 -0.0866  2.3266 -2.1476
 7989TIP3   OH245381   0.795   5.731  15.434 -0.2103 -0.5135  0.1882
 7989TIP3    H145382   0.789   5.701  15.344  0.8902  0.0300 -0.0832
 7989TIP3    H245383   0.744   5.812  15.435 -0.1037 -0.4442  0.0215
 7990TIP3   OH245384   0.504   0.817  11.676 -0.0863  0.0514 -0.4411
 7990TIP3    H145385   0.529   0.906  11.703 -2.1678  0.6373 -0.2533
 7990TIP3    H245386   0.436   0.791  11.738  0.8723 -1.9242 -0.1647
 7991TIP3   OH245387   2.647   0.028   2.615  0.5549 -0.1496  0.0912
 7991TIP3    H145388   2.688  -0.044   2.663  1.1223  1.3997  2.0743
 7991TIP3    H245389   2.567  -0.010   2.578  1.2552 -1.9785  0.3830
 7992TIP3   OH245390   6.021   6.632  16.052 -0.1948 -0.2718  0.2404
 7992TIP3    H145391   6.099   6.657  16.102 -0.6097 -0.2117  0.8676
 7992TIP3    H245392   5.996   6.711  16.005  1.0852 -0.7189 -1.3093
 7993TIP3   OH245393   5.764   0.726  12.238 -0.2795 -0.1796  0.0353
 7993TIP3    H145394   5.776   0.681  12.322  1.6222 -0.8363 -0.5272
 7993TIP3    H245395   5.670   0.740  12.231 -0.3819  1.0046  2.8350
 7994TIP3   OH245396   5.023   4.346  16.946 -0.2018 -0.7244  0.6618
 7994TIP3    H145397   5.037   4.352  16.852 -2.0002  0.1429  0.4039
 7994TIP3    H245398   5.026   4.437  16.977 -0.2715 -0.9419  1.3251
 7995TIP3   OH245399   3.056   1.733  11.449  0.4647 -0.4094 -0.0794
 7995TIP3    H145400   2.986   1.799  11.449  2.0666  1.3598  0.6605
 7995TIP3    H245401   3.015   1.655  11.411 -1.0533  1.4595 -2.5574
 7996TIP3   OH245402   0.833   2.229   5.821 -0.8002 -0.3401 -0.0216
 7996TIP3    H145403   0.875   2.250   5.738  0.6994 -1.0029  0.5399
 7996TIP3    H245404   0.799   2.313   5.852 -0.7158  0.0425 -0.9300
 7997TIP3   OH245405   5.437   5.381  16.760  0.1696 -0.1423 -0.1854
 7997TIP3    H145406   5.390   5.299  16.741 -0.1377  0.1323 -0.6559
 7997TIP3    H245407   5.522   5.353  16.793 -0.9205 -0.6874  2.4145
 7998TIP3   OH245408   5.997   4.428  12.929  0.1226  0.4476 -0.2729
 7998TIP3    H145409   6.091   4.414  12.916  0.0886 -0.6145  0.4961
 7998TIP3    H245410   5.961   4.431  12.841  1.3234  4.6087 -0.8188
 7999TIP3   OH245411   4.376   4.933  13.452  0.5549 -0.5527 -0.2283
 7999TIP3    H145412   4.470   4.944  13.471 -0.1300  1.4425  2.7574
 7999TIP3    H245413   4.334   4.936  13.538 -2.1831 -3.3333 -1.2925
 8000TIP3   OH245414   4.868   4.976   4.038  0.1558  0.2927  0.0338
 8000TIP3    H145415   4.898   5.038   4.105  2.1736 -0.4861 -0.0616
 8000TIP3    H245416   4.865   5.027   3.957 -0.9408  0.9059  0.4451
 8001TIP3   OH245417   5.531   5.787   1.351  0.5039 -0.1816 -0.3358
 8001TIP3    H145418   5.617   5.749   1.336  1.9634  1.3245  3.0569
 8001TIP3    H245419   5.499   5.743   1.430 -0.9738  0.6415 -0.4302
 8002TIP3   OH245420   0.430   1.998  15.246  0.4644  0.5700  0.6613
 8002TIP3    H145421   0.498   1.933  15.230  0.2589  0.5595 -0.2105
 8002TIP3    H245422   0.448   2.068  15.183 -1.0293  0.0192 -0.4380
 8003TIP3   OH245423   3.366   5.248   0.059  0.0668  0.6739 -0.5290
 8003TIP3    H145424   3.351   5.321  -0.000  0.6026  0.2464 -1.2201
 8003TIP3    H245425   3.346   5.282   0.146 -1.7642  1.0139 -1.0428
 8004TIP3   OH245426   0.761   2.336   1.072  0.0282  0.1424  0.8579
 8004TIP3    H145427   0.689   2.372   1.020  0.8611 -1.4475 -1.5227
 8004TIP3    H245428   0.826   2.407   1.076 -0.1080  0.3316 -0.1739
 8005TIP3   OH245429   0.751   1.182   2.406  0.4267 -0.3730 -0.1688
 8005TIP3    H145430   0.817   1.208   2.341  1.6582  0.9068  1.5139
 8005TIP3    H245431   0.759   1.247   2.475 -1.0436 -1.5387  1.1561
 8006TIP3   OH245432   2.569   1.585  11.199 -0.0204 -0.1012  0.5726
 8006TIP3    H145433   2.575   1.494  11.170 -0.1188  0.6222 -1.8595
 8006TIP3    H245434   2.660   1.616  11.198 -0.0521  0.0037  0.8490
 8007TIP3   OH245435   4.483   3.111   1.948  0.5548 -0.3729 -0.1670
 8007TIP3    H145436   4.569   3.073   1.932  1.9937  2.6191 -0.1433
 8007TIP3    H245437   4.476   3.116   2.043  0.5778 -0.1534 -0.1764
 8008TIP3   OH245438   0.848   6.225   4.789  0.3109  0.2313 -0.3640
 8008TIP3    H145439   0.793   6.239   4.866  2.7153 -1.6039  1.8192
 8008TIP3    H245440   0.813   6.146   4.748 -0.3538  0.6583 -0.6526
 8009TIP3   OH245441   5.351   2.547   0.272 -0.3652 -0.1940  0.4293
 8009TIP3    H145442   5.338   2.588   0.357 -1.7579 -0.2737  0.2875
 8009TIP3    H245443   5.265   2.553   0.230  0.2248 -0.4271 -0.8452
 8010TIP3   OH245444   3.760   6.274   4.972 -0.1723 -0.3801  0.5270
 8010TIP3    H145445   3.779   6.358   4.932 -2.3511 -0.0172  0.1526
 8010TIP3    H245446   3.726   6.296   5.059 -1.6959 -0.7941  0.0526
 8011TIP3   OH245447   3.232   0.092  15.946 -0.0984  0.1565 -0.3431
 8011TIP3    H145448   3.145   0.070  15.913 -1.1152  0.5918  1.8035
 8011TIP3    H245449   3.266   0.156  15.884 -0.4359 -1.4775 -2.3093
 8012TIP3   OH245450   4.378   2.219  14.098  0.0366  0.4826 -0.4992
 8012TIP3    H145451   4.394   2.143  14.043 -1.2994  0.0181 -0.2791
 8012TIP3    H245452   4.294   2.254  14.067 -0.8270  0.1166  1.3129
 8013TIP3   OH245453   4.678   2.098  16.383 -0.2093 -0.3381 -0.1552
 8013TIP3    H145454   4.688   2.035  16.454 -2.7083  0.4246  1.0038
 8013TIP3    H245455   4.600   2.068  16.335 -0.2404  0.7181 -0.8051
 8014TIP3   OH245456   2.528   1.081   4.610 -0.1344 -0.1823  0.3424
 8014TIP3    H145457   2.508   1.112   4.521 -0.1797  0.1853  0.4780
 8014TIP3    H245458   2.587   1.148   4.645 -0.8053  0.1269  0.8990
 8015TIP3   OH245459   4.235   0.479  10.863 -0.2973 -0.3085 -0.0399
 8015TIP3    H145460   4.330   0.484  10.850 -0.3752 -2.1551 -1.9740
 8015TIP3    H245461   4.201   0.449  10.778 -2.5692 -0.1666  0.7454
 8016TIP3   OH245462   0.387   5.311   5.086  0.2766  0.0921 -0.3462
 8016TIP3    H145463   0.423   5.239   5.138 -1.0568 -0.2440  0.1610
 8016TIP3    H245464   0.416   5.390   5.132  0.1421 -0.1747  0.2141
 8017TIP3   OH245465   4.563   2.202   2.123 -0.3990 -0.1154 -0.3056
 8017TIP3    H145466   4.526   2.126   2.079  0.7722 -1.6024  1.1869
 8017TIP3    H245467   4.657   2.199   2.102 -0.1411  0.2041  0.7549
 8018TIP3   OH245468   6.208   5.585  12.717  0.2976 -0.0818  0.1004
 8018TIP3    H145469   6.220   5.674  12.683  1.5102 -1.0963 -2.4576
 8018TIP3    H245470   6.118   5.583  12.748  0.0369  1.8685 -0.3839
 8019TIP3   OH245471   1.638   3.925  16.998  0.1484 -0.3431  0.4495
 8019TIP3    H145472   1.568   3.985  16.972  0.1114 -0.7021 -0.2970
 8019TIP3    H245473   1.701   3.980  17.045 -0.0325  0.2253  0.0371
 8020TIP3   OH245474   0.608   1.504   3.579 -0.1493  0.1277 -0.5030
 8020TIP3    H145475   0.542   1.485   3.646 -0.3636  0.4245 -0.6308
 8020TIP3    H245476   0.692   1.495   3.625 -0.3117  0.9170 -0.0454
 8021TIP3   OH245477   3.275   6.450   0.566 -0.0816  0.0906 -0.1278
 8021TIP3    H145478   3.208   6.410   0.511 -0.1561  1.6540 -1.2340
 8021TIP3    H245479   3.230   6.467   0.649 -0.6453 -0.1675 -0.3717
 8022TIP3   OH245480   3.439   5.528  16.521 -0.4332  0.0188  0.7317
 8022TIP3    H145481   3.358   5.530  16.470 -0.7159  0.8762  1.1893
 8022TIP3    H245482   3.456   5.620  16.544  1.1110 -0.0387 -0.0294
 8023TIP3   OH245483   6.409   0.452  12.356  0.2055  0.6898 -0.0383
 8023TIP3    H145484   6.316   0.455  12.333  0.0644 -2.7612 -0.4312
 8023TIP3    H245485   6.413   0.398  12.434  1.9373  0.2583 -0.3797
 8024TIP3   OH245486   6.414   5.269   0.923 -0.4273 -0.3702  0.6707
 8024TIP3    H145487   6.403   5.298   0.833 -0.5061 -0.2987  0.7037
 8024TIP3    H245488   6.396   5.175   0.921  0.7605 -0.6100  0.3834
 8025TIP3   OH245489   3.800   0.309  17.173  0.7223  0.0780 -0.3669
 8025TIP3    H145490   3.797   0.249  17.098  0.4151  0.2474 -0.4922
 8025TIP3    H245491   3.742   0.381  17.148  1.0994  0.4368 -0.2230
 8026TIP3   OH245492   2.019   3.046   2.422 -0.2896 -0.2008 -0.4438
 8026TIP3    H145493   1.961   3.080   2.490 -0.4792  0.9074 -1.1398
 8026TIP3    H245494   1.975   2.967   2.390 -0.0733 -0.8848  0.8725
 8027TIP3   OH245495   2.090   2.982  13.544  0.1065 -0.3146  0.2875
 8027TIP3    H145496   2.086   2.896  13.586 -0.1460 -0.2730  0.3514
 8027TIP3    H245497   2.069   3.044  13.613 -0.1617 -0.2342  0.1359
 8028TIP3   OH245498   4.410   1.972  10.951  0.4506  0.4193  0.3298
 8028TIP3    H145499   4.350   1.920  11.005 -0.0127  1.5060  0.8923
 8028TIP3    H245500   4.355   2.014  10.886  0.9882 -0.7367 -0.9158
 8029TIP3   OH245501   4.015   5.108  15.691  0.1571 -0.7557 -0.0461
 8029TIP3    H145502   3.951   5.039  15.672  0.0405 -0.8472  0.6644
 8029TIP3    H245503   4.098   5.074  15.660 -0.0664 -0.8105 -0.5934
 8030TIP3   OH245504   4.715   3.912   4.409  0.0813 -0.7975  0.3784
 8030TIP3    H145505   4.744   3.979   4.471  1.2832 -1.6228  0.7503
 8030TIP3    H245506   4.693   3.961   4.329 -0.5590  0.1772  1.1284
 8031TIP3   OH245507   3.005   0.567  13.092 -0.7256 -0.1549 -0.2632
 8031TIP3    H145508   3.067   0.638  13.108 -2.5470  2.0642 -2.3359
 8031TIP3    H245509   3.056   0.499  13.048  0.7987  0.3811  0.6297
 8032TIP3   OH245510   5.107   1.584   3.891  0.2477 -0.3711 -0.4411
 8032TIP3    H145511   5.123   1.678   3.879  1.0509 -0.4722 -0.2753
 8032TIP3    H245512   5.023   1.579   3.936  0.3644  0.2886 -0.1336
 8033TIP3   OH245513   4.193   3.671  13.185 -0.0754  0.5070  0.6784
 8033TIP3    H145514   4.121   3.637  13.237 -0.1238  0.1754  0.3925
 8033TIP3    H245515   4.151   3.722  13.116 -0.0518  0.0696  0.3356
 8034TIP3   OH245516   2.121   6.401   4.703 -0.1216 -0.0284 -0.0374
 8034TIP3    H145517   2.145   6.311   4.726 -0.0082  0.2895  1.1789
 8034TIP3    H245518   2.168   6.455   4.767  1.2653  1.0302 -1.8426
 8035TIP3   OH245519   2.348   6.040   5.316  0.2980 -0.5533  0.4269
 8035TIP3    H145520   2.292   6.022   5.392  0.7741 -2.9388  0.2868
 8035TIP3    H245521   2.414   5.970   5.318  2.0812  1.0207 -0.5540
 8036TIP3   OH245522   1.428   2.800  10.495 -0.1834  0.0657  0.1971
 8036TIP3    H145523   1.488   2.812  10.422  0.5353 -1.6201  0.4624
 8036TIP3    H245524   1.359   2.865  10.481  1.1396  1.3340 -0.6834
 8037TIP3   OH245525   3.635   4.426   5.577  0.0566  0.7887 -0.1410
 8037TIP3    H145526   3.550   4.408   5.616  0.0362  1.7939  0.2905
 8037TIP3    H245527   3.695   4.431   5.652  0.0829  2.3462 -0.2394
 8038TIP3   OH245528   0.196   6.704   2.244 -0.0493 -0.4294  0.1448
 8038TIP3    H145529   0.283   6.692   2.283 -0.0107 -1.7465 -0.3087
 8038TIP3    H245530   0.160   6.780   2.290  0.9572 -0.4548  1.0166
 8039TIP3   OH245531   6.495   2.924  17.398  0.0160 -0.0438  0.5830
 8039TIP3    H145532   6.461   2.900  17.311 -0.7065 -0.5574  0.9949
 8039TIP3    H245533   6.566   2.862  17.414  1.9146  1.6718 -0.7201
 8040TIP3   OH245534   1.312   2.566   5.880  0.3243 -0.2484 -0.2627
 8040TIP3    H145535   1.384   2.579   5.818 -1.2298 -1.9029 -2.5914
 8040TIP3    H245536   1.355   2.551   5.964  2.5671  1.2493 -1.0485
 8041TIP3   OH245537   2.623   3.319  14.285 -0.1349  0.0457 -0.0895
 8041TIP3    H145538   2.653   3.276  14.365 -0.5810  1.5699  0.9618
 8041TIP3    H245539   2.686   3.292  14.218 -0.7673 -2.6879  0.3199
 8042TIP3   OH245540   3.592   3.101  15.502  0.3084  0.3756  0.4694
 8042TIP3    H145541   3.499   3.100  15.523  0.2635 -1.3065  0.3159
 8042TIP3    H245542   3.610   3.014  15.466  2.5227 -0.4413  3.1413
 8043TIP3   OH245543   4.843   1.155  15.060 -0.2410 -0.0115  0.0638
 8043TIP3    H145544   4.834   1.139  15.154 -0.5243 -0.7659 -0.0780
 8043TIP3    H245545   4.919   1.103  15.034  0.5645  1.1312  0.0779
 8044TIP3   OH245546   4.549   5.807  16.663  0.5028  0.1553 -1.2107
 8044TIP3    H145547   4.545   5.717  16.696 -0.0756 -0.7562 -3.5670
 8044TIP3    H245548   4.467   5.847  16.691  1.2561  0.3664  0.8376
 8045TIP3   OH245549   1.120   2.916   3.828  0.3436 -0.1650  0.4963
 8045TIP3    H145550   1.040   2.968   3.836  0.0370 -0.7800  1.7747
 8045TIP3    H245551   1.089   2.829   3.804  0.6913 -0.2319  0.2904
 8046TIP3   OH245552   4.715   1.980   3.013 -0.2062  0.3604 -0.1711
 8046TIP3    H145553   4.735   1.904   2.959  1.1195  0.9815 -0.5809
 8046TIP3    H245554   4.669   2.040   2.953  0.4334  0.6590 -0.3717
 8047TIP3   OH245555   1.109   4.590  16.391  0.9553 -0.3510  0.6004
 8047TIP3    H145556   1.045   4.562  16.456 -1.8822  1.8493 -1.0294
 8047TIP3    H245557   1.100   4.528  16.320 -0.0846  0.4153  0.0248
 8048TIP3   OH245558   3.733   2.927   3.349  0.5918  0.8581  0.8399
 8048TIP3    H145559   3.804   2.867   3.327  0.7898  1.0962  0.8209
 8048TIP3    H245560   3.731   2.989   3.276 -0.1315  0.4096  0.4672
 8049TIP3   OH245561   6.583   3.134   0.116 -0.0856  0.1056  0.0294
 8049TIP3    H145562   6.671   3.136   0.078 -0.2289  0.3333 -0.2885
 8049TIP3    H245563   6.533   3.076   0.059 -0.9300  2.2214 -1.5280
 8050TIP3   OH245564   0.458   5.735   5.920  0.5250  0.3812 -0.2762
 8050TIP3    H145565   0.551   5.753   5.903  0.3690  1.8318  0.2507
 8050TIP3    H245566   0.453   5.730   6.016 -0.0727  1.2420 -0.2493
 8051TIP3   OH245567   2.683   1.840   1.038  0.0641  0.4643  0.0032
 8051TIP3    H145568   2.670   1.747   1.059  0.7987  0.6304  1.3244
 8051TIP3    H245569   2.698   1.882   1.123 -1.5738  2.0359 -0.4153
 8052TIP3   OH245570   4.057   3.034   4.093  0.0567  0.0433  0.0496
 8052TIP3    H145571   4.001   2.961   4.066  0.3903 -0.7703  1.4472
 8052TIP3    H245572   4.135   3.027   4.038 -0.1531 -0.3370 -0.1978
 8053TIP3   OH245573   1.911   4.036  10.931  0.3293  0.0218 -0.4219
 8053TIP3    H145574   1.857   3.961  10.906  2.5144 -1.3346 -1.3695
 8053TIP3    H245575   1.907   4.094  10.854  0.1164  0.0104 -0.4217
 8054TIP3   OH245576   1.469   3.517   4.655  0.3991 -0.0151 -0.2656
 8054TIP3    H145577   1.490   3.598   4.608  1.4775 -1.1145 -1.7487
 8054TIP3    H245578   1.378   3.528   4.682 -0.4616  0.4863 -3.0860
 8055TIP3   OH245579   4.730   3.927  17.124 -0.1399 -0.4422  0.2128
 8055TIP3    H145580   4.707   3.883  17.043  1.3795  0.6694 -0.8836
 8055TIP3    H245581   4.823   3.906  17.138  0.0369  0.6272  0.8183
 8056TIP3   OH245582   4.224   0.061   2.856 -0.5817 -0.1777  0.8825
 8056TIP3    H145583   4.249  -0.021   2.898 -0.6032 -0.4028  0.4571
 8056TIP3    H245584   4.234   0.045   2.762  0.6408  0.6972  0.8258
 8057TIP3   OH245585   5.587   4.839  12.473  0.1884  0.8045 -0.1396
 8057TIP3    H145586   5.523   4.863  12.406  0.1682  0.9649 -0.0629
 8057TIP3    H245587   5.549   4.762  12.515  1.0088 -0.3544 -1.4582
 8058TIP3   OH245588   3.503   1.759  10.951 -0.3659 -0.3912  0.3913
 8058TIP3    H145589   3.546   1.840  10.980 -3.2637  0.4192  2.9758
 8058TIP3    H245590   3.528   1.694  11.016 -1.0684 -0.5494  0.5128
 8059TIP3   OH245591   5.285   4.700  10.979  0.5008 -0.1396 -0.2543
 8059TIP3    H145592   5.216   4.717  11.043  1.9950 -0.8593  1.6744
 8059TIP3    H245593   5.257   4.747  10.900 -1.0711  1.4648  1.1606
 8060TIP3   OH245594   5.995   2.344   1.883 -0.7266 -0.0146 -0.5376
 8060TIP3    H145595   5.945   2.345   1.800  1.3174 -2.4840 -1.9231
 8060TIP3    H245596   5.984   2.255   1.916  0.6031  0.1781  0.4781
 8061TIP3   OH245597   2.047   5.628   4.393  0.7705 -0.0912 -0.3020
 8061TIP3    H145598   2.013   5.716   4.381  3.9569  1.2436 -0.5997
 8061TIP3    H245599   2.055   5.618   4.488 -0.3281 -0.4102 -0.2313
 8062TIP3   OH245600   3.551   3.839   3.207 -1.0629 -0.2596 -0.0085
 8062TIP3    H145601   3.488   3.885   3.263 -1.3948 -0.9605  0.1958
 8062TIP3    H245602   3.537   3.747   3.225 -0.6268 -0.4618 -0.6728
 8063TIP3   OH245603   4.551   2.364   0.526 -0.8211  0.0409 -0.1530
 8063TIP3    H145604   4.473   2.308   0.523 -1.6696  1.0703  1.3105
 8063TIP3    H245605   4.521   2.445   0.568  1.4693 -0.3269  2.5237
 8064TIP3   OH245606   1.019   3.125  15.421  0.2206  0.1120  0.1018
 8064TIP3    H145607   1.010   3.034  15.450  3.3851 -0.4970 -0.4659
 8064TIP3    H245608   1.112   3.145  15.435  0.2211  2.3291 -2.3771
 8065TIP3   OH245609   1.595   2.167  13.737 -0.8514 -0.2436 -0.0645
 8065TIP3    H145610   1.655   2.240  13.748 -0.5796 -0.4561 -0.1310
 8065TIP3    H245611   1.536   2.194  13.666 -1.6964  0.5239  0.9033
 8066TIP3   OH245612   6.153   0.601  12.317  0.3698 -0.0541  0.3249
 8066TIP3    H145613   6.127   0.692  12.301  1.8656  0.7466  2.0491
 8066TIP3    H245614   6.152   0.560  12.230  1.9316  2.2596 -0.9142
 8067TIP3   OH245615   6.062   2.426   3.792  0.3466 -0.2247  0.1523
 8067TIP3    H145616   6.054   2.516   3.761  1.3008  0.0145  0.5694
 8067TIP3    H245617   5.973   2.391   3.787  0.1384  0.4159 -0.9801
 8068TIP3   OH245618   4.963   5.273   0.927  0.1367 -0.4122 -0.0383
 8068TIP3    H145619   5.023   5.213   0.970  0.7512  0.3114  0.1392
 8068TIP3    H245620   4.997   5.281   0.838  0.5988  0.3659  0.1972
 8069TIP3   OH245621   0.777   1.171   1.300  0.2747 -0.6603  0.4503
 8069TIP3    H145622   0.857   1.218   1.323  0.8135 -0.2288 -2.0235
 8069TIP3    H245623   0.807   1.086   1.269 -0.2591 -0.6851 -0.0168
 8070TIP3   OH245624   6.151   1.626  10.526 -0.2372 -0.0125 -0.1838
 8070TIP3    H145625   6.059   1.625  10.499 -1.2147  0.0403  2.8021
 8070TIP3    H245626   6.184   1.540  10.501 -0.8369  0.2467 -1.9855
 8071TIP3   OH245627   2.505   3.315  17.189 -0.0603 -0.0358 -0.0455
 8071TIP3    H145628   2.586   3.337  17.234 -0.0939 -0.3020  0.1491
 8071TIP3    H245629   2.462   3.250  17.245 -1.4657  1.6738  0.9553
 8072TIP3   OH245630   3.097   5.161   2.076 -0.3107  0.1280  0.5155
 8072TIP3    H145631   3.137   5.224   2.017 -1.9216  0.1925 -0.5698
 8072TIP3    H245632   3.003   5.171   2.062 -0.6640 -1.3364  1.5558
 8073TIP3   OH245633   4.139   1.796  15.954 -0.3999  0.6428 -0.2965
 8073TIP3    H145634   4.153   1.819  16.046  1.2979  1.1129 -0.6298
 8073TIP3    H245635   4.212   1.838  15.908 -1.4603  0.7932 -1.9259
 8074TIP3   OH245636   6.585   5.906   2.181  0.3175 -0.7205  0.5265
 8074TIP3    H145637   6.662   5.938   2.134 -1.3926 -1.5010 -3.1723
 8074TIP3    H245638   6.589   5.811   2.172 -1.9894 -0.7137 -1.5537
 8075TIP3   OH245639   3.618   4.610   2.441 -0.2493  0.5675  0.1445
 8075TIP3    H145640   3.696   4.662   2.423 -0.1338  0.1411 -0.6041
 8075TIP3    H245641   3.639   4.564   2.523  0.6767 -0.2794 -0.5394
 8076TIP3   OH245642   1.395   5.857  11.565  0.0464 -0.4048  0.0143
 8076TIP3    H145643   1.470   5.860  11.505 -0.6865 -0.0465 -0.9115
 8076TIP3    H245644   1.415   5.785  11.624  0.7406 -0.8559 -0.7445
 8077TIP3   OH245645   0.739   4.455   0.120  0.5962  0.2041 -0.5738
 8077TIP3    H145646   0.811   4.517   0.108 -0.0398  1.2002  0.5306
 8077TIP3    H245647   0.693   4.455   0.035  1.0659  0.6389 -0.8309
 8078TIP3   OH245648   6.209   6.224   5.836 -0.2139 -0.2948  0.5219
 8078TIP3    H145649   6.129   6.268   5.865 -0.1640  1.6442 -1.9307
 8078TIP3    H245650   6.185   6.180   5.754  0.7011 -1.7190  0.9706
 8079TIP3   OH245651   1.308   5.712   3.805 -0.2930  0.0807 -0.0191
 8079TIP3    H145652   1.364   5.730   3.729  0.4296 -0.1084  0.4557
 8079TIP3    H245653   1.259   5.793   3.818 -1.4605 -0.3488 -1.5349
 8080TIP3   OH245654   2.549   0.348   0.178 -0.2474 -0.4730  0.5811
 8080TIP3    H145655   2.584   0.268   0.219  0.0398 -1.0882 -0.8115
 8080TIP3    H245656   2.598   0.356   0.096 -0.3520  1.0891  0.6530
 8081TIP3   OH245657   3.117   0.633  16.031  0.0832  0.0400 -0.0102
 8081TIP3    H145658   3.149   0.547  16.059  0.1319  0.5603  1.6648
 8081TIP3    H245659   3.072   0.667  16.108  0.0252  1.5056 -0.6679
 8082TIP3   OH245660   2.950   2.087   0.982  0.1056 -0.0470  0.2742
 8082TIP3    H145661   2.975   2.119   0.895 -0.5581 -1.8483 -0.6382
 8082TIP3    H245662   2.935   1.993   0.969 -0.4193 -0.2748  2.2562
 8083TIP3   OH245663   0.083   0.838  12.985  0.8105 -0.6727  0.0453
 8083TIP3    H145664   0.066   0.890  13.064  0.5601 -0.8151  0.0863
 8083TIP3    H245665   0.179   0.835  12.978  0.8375 -0.8480  0.4701
 8084TIP3   OH245666   3.346   4.586  13.161  0.1455  0.1689  0.2844
 8084TIP3    H145667   3.414   4.653  13.160 -0.4809  0.8688  1.6914
 8084TIP3    H245668   3.389   4.508  13.196  0.8628 -0.1898 -1.3011
 8085TIP3   OH245669   2.255   5.012  14.709  0.6312  0.2734  0.0805
 8085TIP3    H145670   2.286   4.922  14.721 -0.8138 -0.1468  0.9619
 8085TIP3    H245671   2.159   5.005  14.712  0.4434  1.6501 -1.3600
 8086TIP3   OH245672   3.504   0.116  13.310 -0.1509 -0.0727 -0.7035
 8086TIP3    H145673   3.504   0.122  13.406  0.9468  1.9271 -0.7793
 8086TIP3    H245674   3.589   0.079  13.288  0.5042  1.4839 -0.9376
 8087TIP3   OH245675   6.538   4.592   6.550  0.0283  0.3008 -0.2073
 8087TIP3    H145676   6.533   4.545   6.467 -0.3088 -0.2407  0.1128
 8087TIP3    H245677   6.546   4.523   6.616 -2.4186  0.5346  0.4540
 8088TIP3   OH245678   2.278   2.576   3.901  0.2271 -0.2360 -0.2006
 8088TIP3    H145679   2.331   2.656   3.894  1.6724 -1.0079  1.2719
 8088TIP3    H245680   2.263   2.565   3.995 -0.8834 -1.1170 -0.4661
 8089TIP3   OH245681   4.516   3.930  14.832 -0.4425  0.0572  0.2112
 8089TIP3    H145682   4.597   3.935  14.782 -0.5209  1.4941  0.1983
 8089TIP3    H245683   4.543   3.909  14.921  0.2518  3.3278  0.8724
 8090TIP3   OH245684   1.356   5.745   5.174  0.3104  0.1732  0.1219
 8090TIP3    H145685   1.426   5.680   5.169  1.0839  1.0690 -1.2489
 8090TIP3    H245686   1.315   5.743   5.088  0.5430  1.6843 -0.0591
 8091TIP3   OH245687   6.418   4.656   4.595  0.0666 -0.2754 -0.2568
 8091TIP3    H145688   6.324   4.673   4.597  0.2234  0.6505  1.9479
 8091TIP3    H245689   6.425   4.565   4.564 -1.3763  0.2700 -2.3952
 8092TIP3   OH245690   2.545   0.364   3.811 -0.0959  0.1664 -0.0126
 8092TIP3    H145691   2.575   0.438   3.759  0.0147 -0.4083 -0.7831
 8092TIP3    H245692   2.477   0.400   3.868  1.3938  1.3122  1.1329
 8093TIP3   OH245693   3.681   0.797  16.577 -0.0514 -0.3937  0.3843
 8093TIP3    H145694   3.620   0.868  16.560  1.0176  0.5246  0.2865
 8093TIP3    H245695   3.715   0.773  16.490  0.2182 -0.4556  0.5048
 8094TIP3   OH245696   0.151   0.311   5.946  0.0505 -0.4524 -0.1411
 8094TIP3    H145697   0.106   0.232   5.975 -1.9625  0.8807  0.6124
 8094TIP3    H245698   0.112   0.331   5.861 -0.6549  0.6005  0.4158
 8095TIP3   OH245699   5.653   2.577   2.704 -0.2266 -1.1060 -0.7827
 8095TIP3    H145700   5.733   2.525   2.695  0.7699  0.1632  0.3004
 8095TIP3    H245701   5.582   2.514   2.692  0.9277 -2.7688  0.6124
 8096TIP3   OH245702   6.374   2.675   3.014  0.0818  0.1657 -0.4761
 8096TIP3    H145703   6.346   2.620   3.087 -0.1801 -0.0709 -0.7507
 8096TIP3    H245704   6.314   2.750   3.016  0.3057  0.3405 -0.2288
 8097TIP3   OH245705   5.086   5.065  14.007 -0.0982 -0.1839 -0.6757
 8097TIP3    H145706   5.125   5.071  13.919 -0.4511  0.0304 -0.8195
 8097TIP3    H245707   5.007   5.013  13.995  0.1899 -0.7061 -0.3630
 8098TIP3   OH245708   0.861   2.686   2.319  0.3405 -0.1207  0.0914
 8098TIP3    H145709   0.868   2.613   2.258 -1.1718  0.4665 -0.8614
 8098TIP3    H245710   0.950   2.703   2.347  0.7665 -2.0936  0.0728
 8099TIP3   OH245711   6.727   4.089   4.035  0.1626 -0.4858 -0.1122
 8099TIP3    H145712   6.743   4.152   4.105 -0.7805 -0.1688 -0.1628
 8099TIP3    H245713   6.650   4.123   3.989  0.8089 -0.6444 -1.3638
 8100TIP3   OH245714   2.082   5.552   1.915 -0.8675  0.7133  0.3689
 8100TIP3    H145715   2.031   5.591   1.986 -1.7221  0.3577 -0.0412
 8100TIP3    H245716   2.025   5.557   1.838 -0.5782 -0.3370  0.0600
 8101TIP3   OH245717   6.093   6.168  15.867  0.7006 -0.6092  0.0671
 8101TIP3    H145718   6.187   6.164  15.849  0.8873 -0.5381  0.9830
 8101TIP3    H245719   6.082   6.246  15.922  0.3041 -1.3528  1.0792
 8102TIP3   OH245720   0.389   6.030  17.243 -0.2330  0.2140  0.2914
 8102TIP3    H145721   0.298   6.004  17.229 -0.3568  0.5474  0.4613
 8102TIP3    H245722   0.410   5.998  17.331 -0.5154  1.0435  0.6635
 8103TIP3   OH245723   4.040   1.017   3.906 -0.8116 -0.3114 -0.7906
 8103TIP3    H145724   4.022   0.998   3.998 -1.6560 -0.6081 -1.0126
 8103TIP3    H245725   4.136   1.016   3.900 -0.6305  1.9560  0.5646
 8104TIP3   OH245726   6.391   0.608  13.443 -0.0395 -0.7258  0.0397
 8104TIP3    H145727   6.366   0.641  13.357  0.1419 -1.9725 -0.5053
 8104TIP3    H245728   6.484   0.631  13.451 -0.6406  1.6566  1.0100
 8105TIP3   OH245729   5.210   6.133  16.785  0.4190 -0.2788 -0.0449
 8105TIP3    H145730   5.198   6.076  16.709  0.7107 -1.0417  0.4604
 8105TIP3    H245731   5.304   6.154  16.785  0.1101  1.2000 -0.9059
 8106TIP3   OH245732   2.543   3.045   1.591 -0.4903 -0.0156  0.4677
 8106TIP3    H145733   2.594   2.965   1.607  1.8363  1.7814  2.9856
 8106TIP3    H245734   2.459   3.029   1.634  0.2785 -0.8543  1.7527
 8107TIP3   OH245735   5.909   0.654  13.040  0.1673 -0.2104  0.5370
 8107TIP3    H145736   5.994   0.612  13.042  0.3737  0.0924 -0.8259
 8107TIP3    H245737   5.896   0.678  12.948 -0.3135  1.8890  1.0874
 8108TIP3   OH245738   2.221   4.851  17.209 -0.2214  1.2716 -0.1904
 8108TIP3    H145739   2.304   4.804  17.213  0.0411  1.5475 -1.7901
 8108TIP3    H245740   2.243   4.941  17.232  0.2412  1.6709 -2.0300
 8109TIP3   OH245741   6.593   3.951   1.934  0.2012  0.5979  0.4357
 8109TIP3    H145742   6.665   3.958   1.872 -0.2283  0.1455 -0.1314
 8109TIP3    H245743   6.524   3.906   1.885 -0.9401  2.1529  0.5361
 8110TIP3   OH245744   3.809   2.950  13.908  0.3646  0.3885 -0.1386
 8110TIP3    H145745   3.793   2.881  13.971 -1.0671  1.0431  0.2637
 8110TIP3    H245746   3.726   2.961  13.862  0.6373  1.6349 -0.3881
 8111TIP3   OH245747   1.668   0.277   2.255 -0.2670 -0.2731 -0.3602
 8111TIP3    H145748   1.628   0.352   2.211  0.1846 -0.8800 -1.8413
 8111TIP3    H245749   1.607   0.256   2.326 -0.1095  1.8556  0.4760
 8112TIP3   OH245750   6.279   3.171  16.663 -0.6132 -0.0679 -0.1777
 8112TIP3    H145751   6.257   3.095  16.717  0.1185  0.0096  0.2436
 8112TIP3    H245752   6.199   3.190  16.614 -0.4657 -1.8327 -1.1822
 8113TIP3   OH245753   0.533   1.774   3.062  0.2197  0.4901  0.0401
 8113TIP3    H145754   0.611   1.783   3.008  1.1182 -0.6203  1.0999
 8113TIP3    H245755   0.463   1.815   3.010  1.2907  0.6157 -1.3660
 8114TIP3   OH245756   2.095   5.331  17.409 -0.2833 -0.3640  0.3496
 8114TIP3    H145757   2.181   5.366  17.388 -0.3604  0.4618  1.3388
 8114TIP3    H245758   2.033   5.395  17.375 -0.5094 -0.8064 -0.0884
 8115TIP3   OH245759   6.711   6.581   0.086  0.0307 -0.4469 -0.5630
 8115TIP3    H145760   6.645   6.524   0.126 -2.3522  2.6449  0.2743
 8115TIP3    H245761   6.688   6.583  -0.007 -0.4384 -0.1586 -0.4420
 8116TIP3   OH245762   3.682   5.422  14.216  1.1147  0.8656 -0.4828
 8116TIP3    H145763   3.685   5.491  14.282 -0.0143  0.6715 -0.2026
 8116TIP3    H245764   3.747   5.358  14.245 -0.2787  0.1359  1.2219
 8117TIP3   OH245765   1.387   1.495  12.811 -0.2155 -0.3101  0.4813
 8117TIP3    H145766   1.423   1.427  12.754  0.2867  0.1061  0.2971
 8117TIP3    H245767   1.436   1.574  12.788 -2.4790  0.7432 -1.0956
 8118TIP3   OH245768   5.207   2.883  13.899 -0.0409 -0.2454  0.0952
 8118TIP3    H145769   5.144   2.814  13.880 -0.6758  0.5274 -0.7343
 8118TIP3    H245770   5.208   2.936  13.819  3.2041 -1.3760 -0.7472
 8119TIP3   OH245771   0.093   0.160  13.697 -0.2240  0.4427  0.0429
 8119TIP3    H145772   0.028   0.099  13.731 -0.9735  0.7115 -0.8610
 8119TIP3    H245773   0.091   0.234  13.757 -0.5513  0.3256  0.1770
 8120TIP3   OH245774   3.084   4.255   5.205 -0.1087  0.0353 -0.5527
 8120TIP3    H145775   3.144   4.280   5.275  1.1395 -2.4822 -0.5865
 8120TIP3    H245776   3.142   4.231   5.132 -1.2767 -0.1146 -1.4669
 8121TIP3   OH245777   2.454   3.078  10.878  0.0447 -0.0247 -0.0196
 8121TIP3    H145778   2.365   3.056  10.850  0.0755 -0.8344  0.5006
 8121TIP3    H245779   2.508   3.007  10.845  0.3532 -0.0341  0.4975
 8122TIP3   OH245780   6.231   6.002   5.315  0.2952  0.4390  0.2485
 8122TIP3    H145781   6.281   6.028   5.238  1.0132  1.4846  1.0479
 8122TIP3    H245782   6.263   5.914   5.336 -0.8424 -0.4328 -1.3778
 8123TIP3   OH245783   0.034   2.769  14.886  0.4014 -0.0888  0.0626
 8123TIP3    H145784   0.103   2.827  14.856 -0.1664 -0.4367 -2.1162
 8123TIP3    H245785  -0.046   2.820  14.877  0.1908 -0.2726  0.8545
 8124TIP3   OH245786   1.241   2.503  10.776 -0.8120  0.0750  0.4417
 8124TIP3    H145787   1.255   2.596  10.796 -0.2478 -0.0959  0.8580
 8124TIP3    H245788   1.154   2.501  10.737 -1.3753  0.6273  1.6047
 8125TIP3   OH245789   6.221   2.604   3.229  0.0181 -0.0536 -0.6608
 8125TIP3    H145790   6.227   2.622   3.322  1.4026  2.0178 -1.0582
 8125TIP3    H245791   6.127   2.599   3.210 -0.2782 -2.1841  1.0538
 8126TIP3   OH245792   4.234   3.021  10.509 -0.3356 -0.3067 -0.6888
 8126TIP3    H145793   4.177   2.973  10.449 -3.0163  0.1109  1.3287
 8126TIP3    H245794   4.208   3.113  10.498  0.6542  0.0188 -0.4074
 8127TIP3   OH245795   4.553   3.477   4.887 -0.0427  0.4410 -1.1531
 8127TIP3    H145796   4.520   3.390   4.865 -0.6029  0.4383 -0.3500
 8127TIP3    H245797   4.596   3.466   4.972  1.4997  0.5792 -1.8786
 8128TIP3   OH245798   2.064   3.361   5.001 -0.3601  1.1023 -0.1491
 8128TIP3    H145799   2.007   3.324   5.069  0.5181 -0.0914 -0.0319
 8128TIP3    H245800   2.006   3.415   4.948 -1.2690  1.2450  0.9408
 8129TIP3   OH245801   3.860   0.541  12.189  0.0810 -0.1553 -0.6171
 8129TIP3    H145802   3.768   0.515  12.178 -0.6050  1.5820  0.6337
 8129TIP3    H245803   3.903   0.506  12.111 -1.4494 -1.7502 -0.8261
 8130TIP3   OH245804   0.610   3.583  12.069  0.1032 -0.1698  0.4717
 8130TIP3    H145805   0.692   3.632  12.055  0.3978 -0.5412  0.8963
 8130TIP3    H245806   0.620   3.504  12.015  0.1318 -0.3371  0.7210
 8131TIP3   OH245807   2.553   2.438   3.999  0.3783 -0.1312  0.2106
 8131TIP3    H145808   2.507   2.385   3.935  0.0547  0.9172 -0.4421
 8131TIP3    H245809   2.489   2.452   4.069 -1.0248  2.8161 -1.4933
 8132TIP3   OH245810   1.002   1.855   3.645 -0.3419 -0.5872 -0.3304
 8132TIP3    H145811   0.977   1.937   3.602 -0.8029 -0.8113 -0.4885
 8132TIP3    H245812   1.086   1.832   3.606  0.0826  0.1120  0.1289
 8133TIP3   OH245813   4.553   3.204   2.830 -0.2198  0.1290 -0.5521
 8133TIP3    H145814   4.630   3.228   2.778 -1.4628 -0.9803 -3.0347
 8133TIP3    H245815   4.520   3.125   2.789 -0.7890 -1.4028  2.5464
 8134TIP3   OH245816   3.595   2.232  13.876 -0.4373  0.0619  0.5141
 8134TIP3    H145817   3.535   2.217  13.948 -0.9958  0.0181  0.0492
 8134TIP3    H245818   3.647   2.308  13.903 -0.1294 -0.4102  1.2768
 8135TIP3   OH245819   4.906   3.971   3.808 -0.1315  0.4500 -0.2365
 8135TIP3    H145820   4.994   3.932   3.801 -0.4060 -0.3751  0.6754
 8135TIP3    H245821   4.862   3.919   3.876 -0.9033  1.6691  0.2214
 8136TIP3   OH245822   5.404   5.684   1.582 -0.6397 -0.5808 -0.7555
 8136TIP3    H145823   5.404   5.594   1.614  0.1697 -0.3340 -0.0211
 8136TIP3    H245824   5.314   5.699   1.551 -1.0161 -1.3482 -0.0621
 8137TIP3   OH245825   2.894   2.953  16.258  0.2168  0.0286 -0.4741
 8137TIP3    H145826   2.882   3.046  16.239 -1.8420 -0.2744 -0.8628
 8137TIP3    H245827   2.815   2.928  16.304  1.4650 -1.2004  1.1111
 8138TIP3   OH245828   5.521   6.468  16.525  0.4279 -0.2171  0.0480
 8138TIP3    H145829   5.613   6.486  16.544  0.7569 -2.0462  0.3434
 8138TIP3    H245830   5.507   6.380  16.558 -1.1191 -0.4380 -1.1060
 8139TIP3   OH245831   3.280   1.929  15.122 -0.5697  0.1638 -0.5479
 8139TIP3    H145832   3.348   1.984  15.085 -0.3143  0.2641  0.0500
 8139TIP3    H245833   3.219   1.990  15.163  0.5756 -0.0208  1.5708
 8140TIP3   OH245834   3.711   0.605  15.862 -0.2187 -0.3504  0.3974
 8140TIP3    H145835   3.756   0.544  15.921 -2.5109 -0.6402  1.9620
 8140TIP3    H245836   3.668   0.667  15.921 -2.3986 -0.4825 -0.9742
 8141TIP3   OH245837   0.291   5.644   2.312  0.0730 -0.1272 -0.5601
 8141TIP3    H145838   0.371   5.594   2.294 -0.0415 -0.0853 -1.2132
 8141TIP3    H245839   0.256   5.605   2.392 -0.6325 -1.9004 -1.6669
 8142TIP3   OH245840   4.139   5.348  14.073 -0.2091  0.1549 -0.1177
 8142TIP3    H145841   4.234   5.349  14.057 -0.3232 -0.0404 -0.8448
 8142TIP3    H245842   4.124   5.419  14.135  0.2504  1.0004 -0.9580
 8143TIP3   OH245843   0.468   6.556   1.076 -0.2336 -0.2766 -0.1144
 8143TIP3    H145844   0.416   6.567   0.997  0.1633  2.0442 -0.1170
 8143TIP3    H245845   0.557   6.541   1.045 -0.2351 -0.2926 -0.1107
 8144TIP3   OH245846   0.296   1.675   1.928 -0.3239  0.3619 -0.0594
 8144TIP3    H145847   0.255   1.724   1.857  1.3919  1.7759 -0.1353
 8144TIP3    H245848   0.275   1.583   1.909 -2.4557  0.9160 -0.6759
 8145TIP3   OH245849   4.327   4.308   1.737  0.1569  0.7033 -0.1972
 8145TIP3    H145850   4.414   4.270   1.729 -0.1913 -0.1173 -0.1633
 8145TIP3    H245851   4.331   4.360   1.817  0.5099  0.3921 -0.0112
 8146TIP3   OH245852   1.068   4.785  15.364  0.4568 -0.1437 -0.1746
 8146TIP3    H145853   1.030   4.760  15.279 -1.7084  1.3773  0.2698
 8146TIP3    H245854   1.053   4.879  15.370 -0.5496 -0.3760  2.3703
 8147TIP3   OH245855   3.582   2.009  13.649 -0.1592 -0.3180 -0.5343
 8147TIP3    H145856   3.502   1.966  13.681  0.5637  0.7267  3.2615
 8147TIP3    H245857   3.599   2.078  13.714  2.9792  0.5292 -2.0615
 8148TIP3   OH245858   2.694   1.855  16.920 -0.1242  0.1953 -0.0834
 8148TIP3    H145859   2.613   1.900  16.945 -0.7315 -0.9000 -0.0203
 8148TIP3    H245860   2.740   1.917  16.864 -1.6451  0.3333 -1.2318
 8149TIP3   OH245861   5.002   3.846  17.177  0.4801 -0.2364 -0.3161
 8149TIP3    H145862   5.038   3.780  17.118  1.3023 -0.4027  0.3447
 8149TIP3    H245863   5.070   3.913  17.183 -0.3591  0.7056 -1.0040
 8150TIP3   OH245864   6.712   3.349  13.421 -0.1141  0.3680 -0.6657
 8150TIP3    H145865   6.625   3.318  13.446 -0.0395 -0.1005 -0.9767
 8150TIP3    H245866   6.739   3.407  13.493 -0.7190  0.5838 -0.6151
 8151TIP3   OH245867   4.052   1.628  15.284 -0.1117  0.1116  0.5637
 8151TIP3    H145868   4.130   1.674  15.252  0.1385 -0.3678  0.4803
 8151TIP3    H245869   4.061   1.629  15.379  0.5558 -0.9023  0.5214
 8152TIP3   OH245870   5.574   1.676  15.403 -1.1154  0.3944  0.4194
 8152TIP3    H145871   5.531   1.693  15.320 -1.1168 -1.1161  0.0843
 8152TIP3    H245872   5.503   1.677  15.468 -1.4314 -0.3837  0.1045
 8153TIP3   OH245873   1.899   3.947   1.037  0.4411 -0.1503  0.1112
 8153TIP3    H145874   1.900   4.029   0.986 -0.2070 -1.1986 -1.6982
 8153TIP3    H245875   1.818   3.903   1.009  0.8939 -1.5065  0.8699
 8154TIP3   OH245876   6.437   5.803  17.021 -0.3929  0.0767  0.0981
 8154TIP3    H145877   6.532   5.792  17.032 -0.3440  0.1821 -0.1949
 8154TIP3    H245878   6.428   5.885  16.973 -0.5651 -0.5156 -0.9101
 8155TIP3   OH245879   0.320   3.438   3.315 -0.2842  0.2344 -0.2405
 8155TIP3    H145880   0.296   3.524   3.281  0.4061  0.1338 -1.0228
 8155TIP3    H245881   0.414   3.446   3.335 -0.4086 -0.0780  0.5139
 8156TIP3   OH245882   4.949   2.779  13.023  0.5720  0.2981 -0.1187
 8156TIP3    H145883   4.879   2.715  13.015  0.9777 -0.1467 -0.1268
 8156TIP3    H245884   5.002   2.748  13.096  0.1461  1.2244  0.5967
 8157TIP3   OH245885   3.522   4.550  15.339 -0.4800 -0.5765 -0.5010
 8157TIP3    H145886   3.617   4.548  15.352 -0.4031  0.8366 -0.6516
 8157TIP3    H245887   3.500   4.464  15.304  0.5056 -1.5227  1.0685
 8158TIP3   OH245888   0.296   0.165   3.730  0.8764  0.0017 -0.0479
 8158TIP3    H145889   0.296   0.176   3.634 -0.1801  0.9019  0.0352
 8158TIP3    H245890   0.376   0.210   3.759 -0.2869  2.4283 -0.2825
 8159TIP3   OH245891   2.705   3.552  11.973  0.0086  0.2739 -0.1345
 8159TIP3    H145892   2.743   3.567  11.886 -0.8375  1.2299 -0.3576
 8159TIP3    H245893   2.627   3.500  11.957 -0.0307  0.2694  0.0729
 8160TIP3   OH245894   1.938   2.427   2.535 -0.0523  0.4765 -0.3244
 8160TIP3    H145895   1.873   2.497   2.523 -0.6016  0.0633  0.2118
 8160TIP3    H245896   1.923   2.395   2.624 -0.7561 -1.2878 -1.0382
 8161TIP3   OH245897   1.425   5.520  15.617  0.4588  0.3210  0.2991
 8161TIP3    H145898   1.422   5.541  15.523 -0.8551  0.5620  0.3829
 8161TIP3    H245899   1.453   5.428  15.619 -2.0727 -0.5504 -0.4975
 8162TIP3   OH245900   3.249   2.257   1.173  0.3285  0.6224  0.2875
 8162TIP3    H145901   3.275   2.326   1.112 -0.1659  0.9800  0.4673
 8162TIP3    H245902   3.266   2.176   1.127 -1.2480  0.8829 -0.8713
 8163TIP3   OH245903   6.090   5.674   6.068 -0.4324 -0.4241 -0.6915
 8163TIP3    H145904   6.141   5.745   6.030  0.9307 -0.1367  1.4995
 8163TIP3    H245905   6.152   5.602   6.077 -1.3617 -1.3311 -1.2650
 8164TIP3   OH245906   1.047   2.191   1.515  0.1286  0.1598  0.4566
 8164TIP3    H145907   1.054   2.245   1.594  1.9463  1.1407 -0.3227
 8164TIP3    H245908   0.959   2.208   1.482 -0.9516 -0.8493  2.6378
 8165TIP3   OH245909   0.368   6.472   0.815  0.0134  0.6042 -0.1852
 8165TIP3    H145910   0.397   6.382   0.827  1.2830  1.2316  1.9872
 8165TIP3    H245911   0.273   6.468   0.827 -0.0956 -0.5925 -1.2989
 8166TIP3   OH245912   2.457   5.816  10.380 -0.1152  0.4232 -0.3347
 8166TIP3    H145913   2.362   5.822  10.382 -0.1364 -0.0729  0.3041
 8166TIP3    H245914   2.475   5.723  10.364  0.2495 -0.2427  3.1382
 8167TIP3   OH245915   2.541   1.677  12.818  0.2040 -0.1690 -0.1289
 8167TIP3    H145916   2.558   1.734  12.894  0.8860 -1.3523  0.6340
 8167TIP3    H245917   2.618   1.689  12.762 -0.2789  0.6708 -0.6282
 8168TIP3   OH245918   1.919   6.556   0.281 -0.3004 -0.0834 -0.5750
 8168TIP3    H145919   1.920   6.651   0.295 -1.6057 -0.1869  0.4347
 8168TIP3    H245920   1.841   6.541   0.227  0.4255 -0.5120 -1.5376
 8169TIP3   OH245921   0.358   5.917  12.403  0.2001  0.3585 -0.0294
 8169TIP3    H145922   0.419   5.959  12.343 -0.0451  0.7557 -0.0040
 8169TIP3    H245923   0.299   5.867  12.347  0.1798  0.4571 -0.0955
 8170TIP3   OH245924   3.691   5.607   2.355  0.1285 -0.5572 -0.0959
 8170TIP3    H145925   3.642   5.535   2.395  0.8593 -0.5911  0.7841
 8170TIP3    H245926   3.710   5.577   2.266  2.8567 -2.7587  1.0744
 8171TIP3   OH245927   4.334   5.733   2.252  0.1958 -0.0064 -0.1327
 8171TIP3    H145928   4.365   5.677   2.180  1.9880  1.3527 -0.4825
 8171TIP3    H245929   4.411   5.744   2.308 -0.2498  1.7182  0.1743
 8172TIP3   OH245930   4.666   3.729   4.882 -0.0288 -0.3162  0.0702
 8172TIP3    H145931   4.633   3.639   4.883  1.8036 -1.0282 -0.3953
 8172TIP3    H245932   4.675   3.750   4.789  1.1641 -0.3002  0.1750
 8173TIP3   OH245933   5.835   5.939   6.397  0.0284 -0.2029  0.0959
 8173TIP3    H145934   5.794   5.987   6.325  0.9364  0.4757  0.0293
 8173TIP3    H245935   5.783   5.858   6.403 -0.1568 -0.2022 -1.2138
 8174TIP3   OH245936   6.416   3.878   0.559 -0.2688 -0.6294 -0.1091
 8174TIP3    H145937   6.439   3.798   0.510 -0.7674 -0.5038 -0.5591
 8174TIP3    H245938   6.326   3.896   0.533  0.1151  0.5705 -0.6850
 8175TIP3   OH245939   1.797   3.384  13.828  0.6660  0.2158  0.1300
 8175TIP3    H145940   1.877   3.383  13.882  0.2812 -0.8716  0.7217
 8175TIP3    H245941   1.787   3.293  13.800  0.5432  0.6642 -1.3491
 8176TIP3   OH245942   3.162   2.767  12.608  0.0128 -0.6051 -0.2430
 8176TIP3    H145943   3.084   2.729  12.649 -0.9313  0.5819 -0.8592
 8176TIP3    H245944   3.236   2.727  12.655 -0.9460 -1.8097  0.3160
 8177TIP3   OH245945   6.140   1.273  11.900  0.5817 -0.0863 -0.1793
 8177TIP3    H145946   6.085   1.351  11.910 -1.8988 -1.8221  0.8442
 8177TIP3    H245947   6.200   1.294  11.828 -0.7917  2.2930 -0.7220
 8178TIP3   OH245948   4.140   0.542  11.929  0.2685  0.1810 -0.4654
 8178TIP3    H145949   4.067   0.567  11.872 -0.4449  1.0715  0.7874
 8178TIP3    H245950   4.152   0.448  11.912 -1.0008  0.0670 -0.8836
 8179TIP3   OH245951   1.066   6.330  16.121  0.0391  0.7243 -0.1699
 8179TIP3    H145952   1.106   6.393  16.181 -0.9281  0.5710  0.6518
 8179TIP3    H245953   1.123   6.253  16.125 -1.1132 -0.0959  2.1895
 8180TIP3   OH245954   1.905   3.680  17.153  0.5937  0.0103 -0.1512
 8180TIP3    H145955   1.968   3.667  17.224 -1.0348 -1.0608  1.1892
 8180TIP3    H245956   1.890   3.775  17.152  1.6050  0.1816  0.0672
 8181TIP3   OH245957   1.758   5.377   2.412 -0.5878 -0.4262 -0.2402
 8181TIP3    H145958   1.770   5.471   2.427 -0.6277 -0.4170 -0.2648
 8181TIP3    H245959   1.663   5.366   2.409 -0.6140 -0.1139 -2.4442
 8182TIP3   OH245960   6.235   2.886   4.010  0.5854  0.5939  0.0314
 8182TIP3    H145961   6.150   2.894   4.054  0.6450 -1.0714  0.5407
 8182TIP3    H245962   6.214   2.862   3.920  0.4754 -0.9722  0.4360
 8183TIP3   OH245963   4.519   2.387   2.926 -0.5902  0.7560  0.6600
 8183TIP3    H145964   4.436   2.340   2.934  0.3217 -0.7975  1.5789
 8183TIP3    H245965   4.569   2.360   3.003  1.1930  0.7522 -0.4495
 8184TIP3   OH245966   4.628   2.492   0.164 -0.2136 -0.3125 -0.2099
 8184TIP3    H145967   4.636   2.586   0.183 -0.5299 -0.1101 -1.0330
 8184TIP3    H245968   4.715   2.457   0.181  0.4918  0.5145 -1.8376
 8185TIP3   OH245969   4.235   4.598   0.525  0.1731  0.0220  0.0850
 8185TIP3    H145970   4.276   4.536   0.465 -1.1989  0.3228 -1.2497
 8185TIP3    H245971   4.275   4.581   0.610  2.5724 -0.0677 -1.0079
 8186TIP3   OH245972   3.145   1.918  10.505  0.2842 -0.3563  0.2326
 8186TIP3    H145973   3.224   1.865  10.495  0.6967  0.1954  0.4935
 8186TIP3    H245974   3.148   1.948  10.596 -0.9939 -1.5293  0.6910
 8187TIP3   OH245975   3.211   2.402  14.642 -0.3324 -0.1705 -0.1287
 8187TIP3    H145976   3.197   2.355  14.560 -0.9756  0.8571 -0.6271
 8187TIP3    H245977   3.210   2.334  14.710 -0.1321 -0.9884 -0.9274
 8188TIP3   OH245978   3.288   6.646  15.407 -0.0577 -0.2393  0.3542
 8188TIP3    H145979   3.272   6.637  15.313 -2.3419  2.9544  0.2851
 8188TIP3    H245980   3.211   6.607  15.448  0.0337  0.0495  0.8063
 8189TIP3   OH245981   5.099   2.722  15.893 -0.1613 -0.1606 -0.7080
 8189TIP3    H145982   5.016   2.753  15.929  0.0719 -0.6753  0.3046
 8189TIP3    H245983   5.116   2.780  15.818  0.7206  2.8333  1.6030
 8190TIP3   OH245984   5.957   5.359   2.625 -0.1875 -0.0169  0.4419
 8190TIP3    H145985   5.908   5.317   2.555 -1.3042  1.5896  0.2134
 8190TIP3    H245986   5.935   5.452   2.618 -0.0833  0.2321  2.7191
 8191TIP3   OH245987   3.043   1.583   4.309 -0.1723 -0.1863 -0.3037
 8191TIP3    H145988   3.096   1.662   4.303 -1.4839  0.9016  1.5452
 8191TIP3    H245989   3.087   1.529   4.374 -0.0973 -0.2833 -0.4364
 8192TIP3   OH245990   1.288   6.484   5.829  0.1171 -0.2055 -0.3294
 8192TIP3    H145991   1.352   6.533   5.879 -1.9973  0.1814  2.2310
 8192TIP3    H245992   1.340   6.429   5.770  2.8056 -0.5417  2.1533
 8193TIP3   OH245993   2.354   5.632  11.965 -0.1332  0.2471 -0.1590
 8193TIP3    H145994   2.306   5.673  12.038  0.6793 -0.0873  0.5748
 8193TIP3    H245995   2.356   5.539  11.987 -0.0057  0.1238 -0.6873
 8194TIP3   OH245996   5.112   6.386   4.779 -0.3663 -0.2717 -0.0028
 8194TIP3    H145997   5.163   6.361   4.701 -0.6507 -1.3736  0.1600
 8194TIP3    H245998   5.179   6.407   4.845 -0.1251 -0.5585 -0.1530
 8195TIP3   OH245999   3.693   3.235   1.413 -0.4154  0.3510 -0.7318
 8195TIP3    H146000   3.612   3.198   1.449  0.0050  0.6634  0.5838
 8195TIP3    H246001   3.761   3.172   1.438  0.1665  1.5050  0.6973
 8196TIP3   OH246002   6.169   4.720   4.640 -0.5279  0.6731  0.1359
 8196TIP3    H146003   6.106   4.778   4.596 -1.8923 -1.7996 -1.4210
 8196TIP3    H246004   6.144   4.723   4.732 -0.5086  2.5591  0.1206
 8197TIP3   OH246005   4.486   5.027  10.366 -0.4460 -0.0454 -0.4250
 8197TIP3    H146006   4.409   4.972  10.351  0.0659 -0.4478 -1.6694
 8197TIP3    H246007   4.489   5.038  10.461 -1.9627 -0.1156 -0.3397
 8198TIP3   OH246008   6.727   0.047  13.477 -0.1474 -0.1370  0.3873
 8198TIP3    H146009   6.775   0.093  13.546 -0.8259  0.8479  0.2180
 8198TIP3    H246010   6.685  -0.026  13.522  0.4266 -0.2345  0.7817
 8199TIP3   OH246011   0.838   5.822   4.721  0.5121 -0.9822 -0.2049
 8199TIP3    H146012   0.882   5.831   4.805  0.8132 -0.5808 -0.4017
 8199TIP3    H246013   0.745   5.815   4.743  0.5012 -0.0117  0.1238
 8200TIP3   OH246014   0.609   4.520   2.598 -0.0532 -0.7879  0.2057
 8200TIP3    H146015   0.577   4.576   2.528 -1.2201 -1.9866 -0.2624
 8200TIP3    H246016   0.531   4.479   2.634  0.6124 -0.8753  1.6360
 8201TIP3   OH246017   1.146   5.570  12.136 -0.1233 -0.1364 -0.1237
 8201TIP3    H146018   1.157   5.482  12.099 -0.3090 -0.3506  0.3189
 8201TIP3    H246019   1.191   5.566  12.221 -2.0862 -0.5433  0.9879
 8202TIP3   OH246020   0.103   5.948   1.103 -0.2180 -0.1187 -0.3509
 8202TIP3    H146021   0.112   5.887   1.177  0.7098 -0.4796 -0.7535
 8202TIP3    H246022   0.163   6.020   1.124  1.9420 -1.3530 -1.8527
 8203TIP3   OH246023   6.339   1.084   4.338  0.4330 -0.3190 -0.4431
 8203TIP3    H146024   6.429   1.115   4.350 -0.0761  0.5290  1.5432
 8203TIP3    H246025   6.295   1.156   4.294  0.4165 -0.2272 -0.2751
 8204TIP3   OH246026   1.296   3.772   2.907 -0.5525  0.4199  0.1184
 8204TIP3    H146027   1.370   3.765   2.967  1.1215 -0.2362 -1.9391
 8204TIP3    H246028   1.297   3.862   2.878  0.1283  0.1382 -0.7442
 8205TIP3   OH246029   3.540   1.618  11.184 -0.3555 -0.3970  0.7917
 8205TIP3    H146030   3.459   1.567  11.174 -1.5876  1.5673  0.0699
 8205TIP3    H246031   3.548   1.631  11.278 -0.3858 -1.3325  0.9350
 8206TIP3   OH246032   0.415   6.243   6.158 -0.2755  0.4156  0.2308
 8206TIP3    H146033   0.453   6.159   6.184 -1.0591 -0.4764 -1.3733
 8206TIP3    H246034   0.351   6.263   6.226  0.1831 -0.0975  0.8232
 8207TIP3   OH246035   0.566   0.529   4.751 -0.0816  0.1174  0.5070
 8207TIP3    H146036   0.495   0.559   4.694  0.4005  0.3566  0.0164
 8207TIP3    H246037   0.523   0.501   4.831 -0.6719  0.8739  0.4668
 8208TIP3   OH246038   2.585   5.549  13.822  0.2995  0.1236 -0.0852
 8208TIP3    H146039   2.637   5.615  13.775  1.2619 -1.3469 -1.1933
 8208TIP3    H246040   2.539   5.502  13.754 -1.0211  0.1337  0.7599
 8209TIP3   OH246041   3.620   5.374   0.380 -0.0157  0.3222 -0.6604
 8209TIP3    H146042   3.628   5.467   0.360 -0.2688 -0.0645 -2.7516
 8209TIP3    H246043   3.678   5.361   0.455 -1.2381  2.4474  0.7596
 8210TIP3   OH246044   4.675   4.929   0.473  0.2476  0.0742  0.6277
 8210TIP3    H146045   4.694   5.004   0.529 -1.3663  1.7128 -0.8677
 8210TIP3    H246046   4.608   4.879   0.520 -0.9988  1.3623  0.3063
 8211TIP3   OH246047   5.702   5.745   0.572 -0.3897 -0.1170 -0.4163
 8211TIP3    H146048   5.627   5.705   0.528  0.9130 -2.4558 -0.7046
 8211TIP3    H246049   5.769   5.752   0.504 -0.2589  1.8402 -0.1414
 8212TIP3   OH246050   1.664   0.079  11.665 -0.0160 -0.4012 -0.0078
 8212TIP3    H146051   1.644   0.004  11.610  1.3501 -1.0384  0.3235
 8212TIP3    H246052   1.688   0.042  11.750 -1.9330  0.5507  1.0308
 8213TIP3   OH246053   0.238   3.645   1.574 -0.1479  0.0680  0.7759
 8213TIP3    H146054   0.240   3.596   1.656 -0.1761  0.6549  1.1345
 8213TIP3    H246055   0.231   3.737   1.601 -1.5787  0.1751  0.0881
 8214TIP3   OH246056   3.027   0.874   5.735  0.0188 -0.2750 -0.5261
 8214TIP3    H146057   3.013   0.784   5.704 -0.1341 -0.2285 -0.5924
 8214TIP3    H246058   3.072   0.864   5.819 -2.9555 -0.5096  1.1469
 8215TIP3   OH246059   6.196   6.529   6.570  0.0090  0.2652 -0.1159
 8215TIP3    H146060   6.210   6.485   6.486 -0.5978 -0.2658  0.0493
 8215TIP3    H246061   6.264   6.494   6.628 -0.5233 -0.5685  0.0420
 8216TIP3   OH246062   4.881   1.674  13.496 -0.7983 -0.1093  0.1904
 8216TIP3    H146063   4.927   1.675  13.413  0.2924  0.1834  0.7841
 8216TIP3    H246064   4.933   1.730  13.554 -2.6608  1.4248  0.4957
 8217TIP3   OH246065   5.264   3.204   3.282  0.3093  0.3887  0.3066
 8217TIP3    H146066   5.194   3.182   3.342  0.4753 -0.1468  0.3051
 8217TIP3    H246067   5.270   3.300   3.286  0.4798  0.3484  1.3253
 8218TIP3   OH246068   0.267   3.281   0.271  0.2041 -0.1907  0.4353
 8218TIP3    H146069   0.185   3.299   0.225  0.1764  1.1760  0.9686
 8218TIP3    H246070   0.274   3.186   0.272 -0.6539 -0.2894 -0.8685
 8219TIP3   OH246071   0.045   1.168   0.305 -0.9240 -0.9820  0.0201
 8219TIP3    H146072   0.013   1.237   0.363 -0.8539 -1.9042  1.1923
 8219TIP3    H246073   0.139   1.183   0.300 -1.1642  0.2304 -1.4118
 8220TIP3   OH246074   5.261   1.851  16.145  1.0592  0.7657 -0.2696
 8220TIP3    H146075   5.183   1.796  16.140  0.1671  2.0145 -0.7607
 8220TIP3    H246076   5.265   1.880  16.237  1.7505 -0.3798  0.0807
 8221TIP3   OH246077   6.402   6.229   0.870  0.1037  0.0932  0.1272
 8221TIP3    H146078   6.396   6.304   0.929  0.2422  1.0011 -0.9706
 8221TIP3    H246079   6.368   6.262   0.787  2.1882 -0.3972 -0.9882
 8222TIP3   OH246080   3.109   2.679  14.699  0.5787 -0.4904  0.4067
 8222TIP3    H146081   3.105   2.588  14.669 -3.0440 -0.1883 -0.5344
 8222TIP3    H246082   3.052   2.681  14.776 -0.0143  1.0724 -0.0287
 8223TIP3   OH246083   2.333   3.138  10.557 -0.0506  0.6440 -0.5073
 8223TIP3    H146084   2.282   3.104  10.483  1.3029 -0.0346 -1.1586
 8223TIP3    H246085   2.417   3.093  10.551  0.2334  0.8885  1.2215
 8224TIP3   OH246086   6.486   6.618   3.816 -0.4199  0.1327  0.4989
 8224TIP3    H146087   6.391   6.607   3.809 -0.3587 -1.3669  1.6141
 8224TIP3    H246088   6.516   6.621   3.725 -1.3243 -1.6186  0.1046
 8225TIP3   OH246089   4.633   5.478  11.787 -0.2995  0.7226 -0.0034
 8225TIP3    H146090   4.700   5.482  11.718 -1.5587 -1.2935 -1.4538
 8225TIP3    H246091   4.603   5.387  11.786 -1.5254  1.0305  2.1319
 8226TIP3   OH246092   2.336   1.848   0.748  0.4114 -0.1756 -0.0657
 8226TIP3    H146093   2.343   1.753   0.759 -2.2925 -0.4945 -0.3747
 8226TIP3    H246094   2.422   1.875   0.717  1.4091 -2.4466  0.5384
 8227TIP3   OH246095   2.266   3.356  10.226  0.3911 -0.3856 -0.4252
 8227TIP3    H146096   2.341   3.346  10.285 -1.0638 -3.0587  1.1775
 8227TIP3    H246097   2.301   3.340  10.138  1.8502 -0.8707  0.2244
 8228TIP3   OH246098   5.486   1.541  16.207  0.5374 -0.3841  0.3063
 8228TIP3    H146099   5.437   1.580  16.135  1.2994 -3.5151 -2.1383
 8228TIP3    H246100   5.541   1.475  16.165  1.9040 -1.5975  3.6858
 8229TIP3   OH246101   5.924   2.622   4.299 -0.0687 -0.1509  0.1474
 8229TIP3    H146102   5.970   2.706   4.301 -0.3062 -0.0172 -0.0936
 8229TIP3    H246103   5.834   2.644   4.322 -0.2952 -0.2360 -0.6454
 8230TIP3   OH246104   6.196   4.803  11.574  0.5528  0.1540 -0.3208
 8230TIP3    H146105   6.252   4.827  11.500  1.6795 -0.1742  0.3936
 8230TIP3    H246106   6.112   4.779  11.534  1.2710 -0.4330 -1.5364
 8231TIP3   OH246107   6.586   6.001  13.374 -0.3187 -0.2769  0.1705
 8231TIP3    H146108   6.524   5.934  13.344 -1.9016  0.4792  1.5776
 8231TIP3    H246109   6.596   5.984  13.468  0.3227  0.6264  0.2782
 8232TIP3   OH246110   3.814   4.899  15.685 -0.3992  0.0635  0.0285
 8232TIP3    H146111   3.800   4.867  15.774 -2.2884 -0.1374 -0.3096
 8232TIP3    H246112   3.831   4.820  15.634 -0.5598  0.0487 -0.0030
 8233TIP3   OH246113   3.798   2.182  15.544  0.5076 -0.0644  0.4853
 8233TIP3    H146114   3.813   2.240  15.470  0.5723  0.2112  0.7113
 8233TIP3    H246115   3.842   2.101  15.522 -0.8705 -0.5782 -0.5253
 8234TIP3   OH246116   6.738   1.354  16.187  0.3944 -0.0949 -0.2354
 8234TIP3    H146117   6.815   1.393  16.228  0.8975 -0.4726 -0.8076
 8234TIP3    H246118   6.679   1.428  16.172  0.9622  0.3148 -0.4892
 8235TIP3   OH246119   3.316   4.447  13.813 -0.0542 -0.0424 -0.2359
 8235TIP3    H146120   3.223   4.425  13.820 -0.3740  0.9347 -1.1786
 8235TIP3    H246121   3.346   4.454  13.904 -0.9296 -0.2403  0.0761
 8236TIP3   OH246122   0.488   5.041  14.875 -0.0923 -0.7324 -0.0014
 8236TIP3    H146123   0.572   5.060  14.834 -0.3016  0.6693  0.1639
 8236TIP3    H246124   0.501   4.958  14.921  0.2524 -2.1911 -2.5748
 8237TIP3   OH246125   3.211   3.678   3.234  0.2879 -0.2808 -0.1188
 8237TIP3    H146126   3.229   3.772   3.241  0.8976 -0.4131  0.1447
 8237TIP3    H246127   3.246   3.641   3.315  0.2474 -0.7630 -0.3213
 8238TIP3   OH246128   5.971   1.632  11.369  0.5178 -0.2527 -0.2588
 8238TIP3    H146129   6.030   1.624  11.444 -0.3158  1.5811  0.6420
 8238TIP3    H246130   5.895   1.678  11.403 -0.9793 -1.5640 -1.6697
 8239TIP3   OH246131   4.372   0.892  12.623  0.4865  0.2017 -0.0496
 8239TIP3    H146132   4.434   0.912  12.554  1.2687 -0.6100  0.3878
 8239TIP3    H246133   4.289   0.876  12.578  0.8386  0.2971 -0.7336
 8240TIP3   OH246134   2.885   3.570   5.455  0.0110 -0.6503  0.4965
 8240TIP3    H146135   2.915   3.547   5.543 -0.2227 -1.2879  0.4211
 8240TIP3    H246136   2.954   3.627   5.420 -0.8640  1.3189  1.8212
 8241TIP3   OH246137   3.275   1.904   0.234 -0.9104 -0.3258  0.3924
 8241TIP3    H146138   3.296   1.817   0.200  1.6221 -0.0320  1.0502
 8241TIP3    H246139   3.287   1.962   0.159  0.5178 -0.1971  0.6931
 8242TIP3   OH246140   0.458   4.144   6.012  0.0185 -0.0783 -0.7516
 8242TIP3    H146141   0.540   4.192   6.025  1.0622 -1.9441  0.0434
 8242TIP3    H246142   0.475   4.058   6.051 -2.1766 -0.6724 -0.9982
 8243TIP3   OH246143   4.368   4.931  12.188 -0.0841  0.2527 -0.4140
 8243TIP3    H146144   4.436   4.998  12.194 -0.4090  0.5564 -0.1234
 8243TIP3    H246145   4.378   4.896  12.099  0.3311  0.4209 -0.4395
 8244TIP3   OH246146   4.789   2.591  10.879 -0.1471 -0.8752 -0.0699
 8244TIP3    H146147   4.727   2.657  10.848  1.3876  0.4495 -0.4413
 8244TIP3    H246148   4.823   2.627  10.961  0.0641 -1.6554  0.1972
 8245TIP3   OH246149   2.477   5.196   5.005  0.5219 -0.6196  0.3877
 8245TIP3    H146150   2.458   5.110   5.043  2.5116 -0.1458  2.7535
 8245TIP3    H246151   2.428   5.257   5.061  0.9686 -0.0909  0.2083
 8246TIP3   OH246152   5.428   4.707   1.993  0.1174  0.0776 -0.3249
 8246TIP3    H146153   5.403   4.741   2.079 -0.3018  1.3025 -0.9094
 8246TIP3    H246154   5.512   4.664   2.008  1.6308  2.9539  0.1746
 8247TIP3   OH246155   6.494   6.730   5.016 -0.4273  0.1142  0.0336
 8247TIP3    H146156   6.507   6.805   4.958 -0.7565  0.4296  0.3619
 8247TIP3    H246157   6.418   6.754   5.069 -0.9943 -0.7655 -0.3589
 8248TIP3   OH246158   0.315   3.730   3.349  0.1484  0.0011  0.0007
 8248TIP3    H146159   0.228   3.746   3.311  0.3041  1.6821  0.2670
 8248TIP3    H246160   0.299   3.723   3.443  0.4558  2.0715  0.2546
 8249TIP3   OH246161   1.353   2.736   2.214 -0.0635  0.2233 -0.6532
 8249TIP3    H146162   1.329   2.652   2.254 -0.4657  1.0403  0.8977
 8249TIP3    H246163   1.445   2.748   2.236  0.0544  0.0942 -1.0664
 8250TIP3   OH246164   4.966   3.764   4.583 -0.1406  0.1812  0.2989
 8250TIP3    H146165   4.871   3.767   4.571 -0.2886  0.6650  1.5080
 8250TIP3    H246166   4.985   3.832   4.648  0.8954 -0.6574  0.9173
 8251TIP3   OH246167   3.019   6.730  14.492  0.3639 -0.1123 -0.3492
 8251TIP3    H146168   3.086   6.739  14.424  0.2085 -0.6315 -0.5752
 8251TIP3    H246169   3.045   6.793  14.560 -1.2452  2.8921 -2.2867
 8252TIP3   OH246170   5.206   5.980   4.946 -0.0672  0.6038 -0.2471
 8252TIP3    H146171   5.244   5.958   4.861  0.4049 -0.1289  0.1412
 8252TIP3    H246172   5.130   6.035   4.925 -0.0303  0.3301 -1.1453
 8253TIP3   OH246173   0.940   4.608  11.898  0.3497 -0.2015 -0.5669
 8253TIP3    H146174   0.913   4.553  11.971  2.1573 -0.6086 -0.1586
 8253TIP3    H246175   0.930   4.697  11.930  1.3388 -0.3772  0.2863
 8254TIP3   OH246176   4.572   5.365   6.026  0.1276 -0.5772 -0.1856
 8254TIP3    H146177   4.651   5.350   5.974  0.6969 -0.5190  0.6359
 8254TIP3    H246178   4.603   5.415   6.102 -1.2351  2.4835 -1.4745
 8255TIP3   OH246179   0.805   1.681  13.352  0.2243 -0.6819  0.6430
 8255TIP3    H146180   0.802   1.596  13.307 -0.8660  0.0937 -0.8331
 8255TIP3    H246181   0.872   1.670  13.419  1.0469 -2.2894 -0.3786
 8256TIP3   OH246182   0.838   1.755   4.113 -0.5537  0.0502  0.1292
 8256TIP3    H146183   0.880   1.831   4.074 -0.8613  0.5463  0.7493
 8256TIP3    H246184   0.866   1.756   4.204  0.0510 -1.0219 -0.0167
 8257TIP3   OH246185   5.921   3.755  16.937 -0.2046 -0.1667 -0.0695
 8257TIP3    H146186   5.888   3.840  16.906  0.5202  0.5658  1.0705
 8257TIP3    H246187   5.911   3.696  16.862  1.8444  1.5779 -1.8466
 8258TIP3   OH246188   3.702   6.585   3.291  0.2900 -0.2567 -0.2867
 8258TIP3    H146189   3.756   6.604   3.368  0.1029 -0.3890 -0.1210
 8258TIP3    H246190   3.730   6.649   3.226  0.3240 -0.0255 -0.0472
 8259TIP3   OH246191   4.477   2.223  16.914 -0.5347 -0.0420  0.2511
 8259TIP3    H146192   4.431   2.284  16.856 -0.2751 -0.1493 -0.0709
 8259TIP3    H246193   4.409   2.163  16.945 -0.6012 -0.2431 -0.2770
 8260TIP3   OH246194   5.809   1.040   1.540 -0.2489  0.0405 -0.1202
 8260TIP3    H146195   5.741   1.007   1.481 -0.1008 -0.0115 -0.2620
 8260TIP3    H246196   5.817   0.972   1.607 -1.0240  0.4896  0.4480
 8261TIP3   OH246197   5.192   0.249   5.171 -0.5608  0.0111  0.7108
 8261TIP3    H146198   5.146   0.174   5.133  0.0113 -0.0969  0.2058
 8261TIP3    H246199   5.123   0.306   5.204 -1.0532 -0.1126 -0.0842
 8262TIP3   OH246200   1.618   3.442  15.081 -0.1115 -0.2700 -0.5853
 8262TIP3    H146201   1.575   3.363  15.115  0.2865 -0.1690  0.1745
 8262TIP3    H246202   1.686   3.408  15.024 -0.3224 -0.4647 -0.7244
 8263TIP3   OH246203   4.043   0.100   4.655  0.0322  0.6703  0.0192
 8263TIP3    H146204   3.986   0.170   4.622 -1.2134  0.8325  2.3425
 8263TIP3    H246205   4.126   0.144   4.673  0.4190  0.7785 -1.7584
 8264TIP3   OH246206   0.597   5.260  17.301  0.2563  0.1346  0.7082
 8264TIP3    H146207   0.665   5.252  17.234 -0.7444  2.9781 -0.8134
 8264TIP3    H246208   0.634   5.321  17.365  0.7008 -1.5882  2.1767
 8265TIP3   OH246209   4.126   0.924   0.082  0.4544 -0.6202 -0.1554
 8265TIP3    H146210   4.160   1.006   0.118  0.0893 -1.1316  1.4775
 8265TIP3    H246211   4.046   0.908   0.132  0.8658 -2.2887  0.0425
 8266TIP3   OH246212   3.848   5.323  10.959 -0.4773 -0.2730  1.2745
 8266TIP3    H146213   3.902   5.251  10.925  0.8795  1.8554 -1.4958
 8266TIP3    H246214   3.770   5.322  10.903 -2.0708 -1.4957  3.3594
 8267TIP3   OH246215   2.157   4.592   1.042  0.5582 -0.4610 -0.1058
 8267TIP3    H146216   2.241   4.613   1.083  0.4872 -0.2547 -0.0648
 8267TIP3    H246217   2.094   4.651   1.084  0.4295 -0.4723 -0.2822
 8268TIP3   OH246218   1.194   1.806   4.593  0.1503  0.3425  0.4323
 8268TIP3    H146219   1.217   1.867   4.523  0.2809 -0.7486 -0.5054
 8268TIP3    H246220   1.233   1.845   4.672 -2.0270  2.8619  0.4324
 8269TIP3   OH246221   3.703   5.410   1.676  0.1693  0.4141 -0.0285
 8269TIP3    H146222   3.729   5.469   1.606 -1.1634  0.6093 -0.3875
 8269TIP3    H246223   3.778   5.410   1.736  1.8168 -0.6596 -1.9769
 8270TIP3   OH246224   0.809   2.134  16.265  0.2353 -0.1863  0.2816
 8270TIP3    H146225   0.763   2.097  16.189  0.6116 -1.9286  0.8615
 8270TIP3    H246226   0.739   2.154  16.327  0.0838 -1.1206  0.4370
 8271TIP3   OH246227   1.614   1.444   5.086 -0.4460  0.1603 -0.4728
 8271TIP3    H146228   1.533   1.399   5.109  1.0931 -2.2859  0.5190
 8271TIP3    H246229   1.647   1.397   5.010  0.2298  0.9402 -0.6777
 8272TIP3   OH246230   4.288   6.507  13.469  0.1367  0.2394 -0.4767
 8272TIP3    H146231   4.316   6.503  13.378 -0.8133  0.0436 -0.7767
 8272TIP3    H246232   4.369   6.519  13.519  0.6144  0.9079 -1.3823
 8273TIP3   OH246233   2.202   2.775   0.688 -0.2310 -0.3767 -0.2235
 8273TIP3    H146234   2.273   2.750   0.628  0.0263  2.8402 -1.4879
 8273TIP3    H246235   2.245   2.831   0.753 -1.2564 -0.1044  0.2313
 8274TIP3   OH246236   0.533   3.993   3.421 -0.3644  0.4122 -0.3761
 8274TIP3    H146237   0.554   3.940   3.498  0.9344  1.8721  0.3547
 8274TIP3    H246238   0.444   4.026   3.438 -1.2040 -1.5003 -0.8735
 8275TIP3   OH246239   2.165   6.579  15.454  0.1213  0.2096 -0.8177
 8275TIP3    H146240   2.213   6.530  15.388 -0.1234 -1.1837 -0.0059
 8275TIP3    H246241   2.175   6.527  15.534 -1.6648  0.5361 -0.3370
 8276TIP3   OH246242   0.537   3.896   6.156 -1.0019  0.5103 -0.4278
 8276TIP3    H146243   0.490   3.940   6.227 -0.6241 -1.1386  0.8812
 8276TIP3    H246244   0.564   3.812   6.192  1.9759  0.8855 -1.4780
 8277TIP3   OH246245   2.444   1.478   4.516 -0.4146  0.0048  0.2554
 8277TIP3    H146246   2.408   1.559   4.479  1.3922  0.9923  0.5383
 8277TIP3    H246247   2.455   1.498   4.609  1.5269  0.0450  0.0555
 8278TIP3   OH246248   0.083   2.902   0.424 -0.8142 -0.1909  0.5384
 8278TIP3    H146249   0.153   2.928   0.365 -0.7936 -1.2622  0.0657
 8278TIP3    H246250   0.127   2.881   0.507 -0.2116 -2.9537 -0.3569
 8279TIP3   OH246251   2.761   3.826   3.158  0.5286  0.2156 -1.4403
 8279TIP3    H146252   2.767   3.734   3.134  1.9654 -0.0916 -0.0719
 8279TIP3    H246253   2.667   3.845   3.161 -0.1017 -2.4287  2.5326
 8280TIP3   OH246254   2.176   0.735  11.566 -0.3801 -0.2112 -0.3005
 8280TIP3    H146255   2.221   0.728  11.650 -0.2959 -2.8050 -0.4727
 8280TIP3    H246256   2.242   0.768  11.505 -0.2525  1.0222  0.4846
 8281TIP3   OH246257   1.844   3.534   4.646 -0.4567 -0.1214 -0.2118
 8281TIP3    H146258   1.791   3.609   4.676 -0.1822  0.6308 -1.5239
 8281TIP3    H246259   1.884   3.500   4.726 -0.5681  1.1490  0.4180
 8282TIP3   OH246260   0.560   5.699  14.712 -0.7692 -0.2998 -0.0543
 8282TIP3    H146261   0.519   5.658  14.788 -1.0070  0.5410  0.2803
 8282TIP3    H246262   0.488   5.709  14.649 -0.2865 -2.3941 -1.0381
 8283TIP3   OH246263   5.831   5.401   1.203 -0.2163 -0.4521 -0.5127
 8283TIP3    H146264   5.849   5.379   1.295  0.3588 -0.6021 -0.6597
 8283TIP3    H246265   5.738   5.379   1.192 -0.3652 -0.1740  0.1063
 8284TIP3   OH246266   2.288   3.498   2.336 -0.2174  0.0942  0.1710
 8284TIP3    H146267   2.230   3.424   2.319 -0.3964  0.2959 -0.0901
 8284TIP3    H246268   2.343   3.504   2.258  0.1854 -0.1190  0.4302
 8285TIP3   OH246269   1.363   6.564   2.322 -0.5218 -0.1251  0.3434
 8285TIP3    H146270   1.413   6.528   2.395  0.2176 -1.4229 -0.7771
 8285TIP3    H246271   1.413   6.640   2.293 -0.0962 -0.4222  0.3033
 8286TIP3   OH246272   3.708   6.697  11.953  0.1941  0.0398  0.4495
 8286TIP3    H146273   3.773   6.646  11.903 -0.2776  0.7986 -0.9920
 8286TIP3    H246274   3.761   6.753  12.009  0.7411 -1.0685  1.0881
 8287TIP3   OH246275   1.549   0.892  15.153 -0.1102  0.8961 -0.7230
 8287TIP3    H146276   1.524   0.967  15.206 -2.5866 -1.9738  2.6510
 8287TIP3    H246277   1.645   0.889  15.160 -0.1660  2.1467  1.4745
 8288TIP3   OH246278   6.071   2.840  14.266 -0.2888 -0.1851  0.1959
 8288TIP3    H146279   6.042   2.781  14.335  0.7717  0.0534  0.8733
 8288TIP3    H246280   6.131   2.901  14.309 -0.4084  0.6191 -0.7319
 8289TIP3   OH246281   5.079   6.264  17.017  0.3329  0.2835  0.0242
 8289TIP3    H146282   5.077   6.190  17.079  4.5824  0.3195  0.5379
 8289TIP3    H246283   5.120   6.227  16.939  4.1855  2.2506  0.8953
 8290TIP3   OH246284   2.350   6.144  13.032 -0.1963 -0.5940  0.0438
 8290TIP3    H146285   2.329   6.236  13.050  1.7110 -0.3594  1.3004
 8290TIP3    H246286   2.297   6.122  12.955 -0.8162  1.4892 -0.1815
 8291TIP3   OH246287   2.565   4.254   5.007 -0.0325 -0.4409  0.1446
 8291TIP3    H146288   2.509   4.216   5.074 -0.6471 -1.5462 -0.9542
 8291TIP3    H246289   2.602   4.179   4.961  1.7606  0.2844  0.3505
 8292TIP3   OH246290   6.430   0.179   3.872 -0.3887  0.0261 -0.4469
 8292TIP3    H146291   6.444   0.163   3.779 -0.4081  1.9141 -0.8172
 8292TIP3    H246292   6.374   0.106   3.901 -0.8675 -0.2675 -2.0423
 8293TIP3   OH246293   0.119   5.652  15.518  0.4088  0.3803  0.7174
 8293TIP3    H146294   0.199   5.670  15.566 -0.0836  0.6495  1.4614
 8293TIP3    H246295   0.125   5.708  15.440  0.2564  1.5899  1.5377
 8294TIP3   OH246296   6.714   4.601  16.753 -0.5789 -0.3547 -0.0499
 8294TIP3    H146297   6.708   4.558  16.668 -0.2314  2.2989 -1.5402
 8294TIP3    H246298   6.803   4.584  16.782 -0.6699 -1.2156 -0.2482
 8295TIP3   OH246299   3.486   3.502  13.768  0.2938 -0.3881 -0.3334
 8295TIP3    H146300   3.425   3.562  13.725  0.4624 -0.3549 -0.5270
 8295TIP3    H246301   3.529   3.455  13.697 -1.6261 -2.5688 -0.1635
 8296TIP3   OH246302   4.760   3.163  11.887  0.1333  0.7099  0.1532
 8296TIP3    H146303   4.826   3.125  11.828 -0.2513  1.4447 -0.7762
 8296TIP3    H246304   4.677   3.125  11.857 -0.0218  0.7829  0.4873
 8297TIP3   OH246305   0.266   0.340  14.688  0.5732  0.5259  0.2880
 8297TIP3    H146306   0.180   0.301  14.673  1.0759 -0.4472 -0.1753
 8297TIP3    H246307   0.277   0.401  14.616  0.0986  0.9820  0.5903
 8298TIP3   OH246308   4.939   4.037   2.646  0.6082 -0.1905 -0.1229
 8298TIP3    H146309   4.915   3.983   2.571 -0.1906 -1.2951  0.8878
 8298TIP3    H246310   4.965   4.121   2.608 -1.7489 -0.0133 -1.5317
 8299TIP3   OH246311   2.389   1.694  16.453 -0.1914 -0.3129 -0.2570
 8299TIP3    H146312   2.399   1.730  16.365  1.2295 -0.0973 -0.0371
 8299TIP3    H246313   2.311   1.638  16.448  0.7234 -1.5314 -2.0624
 8300TIP3   OH246314   3.057   4.614  12.056  0.0914 -0.2588  0.4160
 8300TIP3    H146315   3.099   4.658  12.130  0.6034 -0.0575  0.0083
 8300TIP3    H246316   2.970   4.654  12.050 -0.3083 -0.9244  1.4803
 8301TIP3   OH246317   1.584   2.186  13.408 -0.5182  0.1724 -0.3683
 8301TIP3    H146318   1.573   2.282  13.404 -0.2866  0.1710 -1.8072
 8301TIP3    H246319   1.496   2.152  13.393 -0.2819  0.1864 -2.0200
 8302TIP3   OH246320   3.067   4.994  13.387 -0.6634 -0.0588 -0.0421
 8302TIP3    H146321   3.163   4.992  13.390 -0.6842 -0.1019  1.4196
 8302TIP3    H246322   3.043   5.069  13.442 -1.4937 -0.6951  0.4804
 8303TIP3   OH246323   3.431   6.420   1.695 -0.5439  0.4183 -0.1926
 8303TIP3    H146324   3.446   6.499   1.748  1.7346 -1.6605  2.6102
 8303TIP3    H246325   3.387   6.359   1.755  0.2101 -1.3412 -1.3397
 8304TIP3   OH246326   4.113   5.622  13.222  0.2773  0.6434  0.4355
 8304TIP3    H146327   4.072   5.694  13.175 -1.5157  0.9088  2.2458
 8304TIP3    H246328   4.155   5.569  13.154 -0.8194  1.8300 -1.2416
 8305TIP3   OH246329   3.468   3.712  16.434 -0.6329  0.1496  0.0492
 8305TIP3    H146330   3.508   3.778  16.378  1.2637  0.1836  1.3454
 8305TIP3    H246331   3.404   3.760  16.487 -0.3034  0.6670 -0.0236
 8306TIP3   OH246332   0.062   1.667  17.277 -0.2144  0.1156 -0.0528
 8306TIP3    H146333   0.078   1.753  17.239  0.7837 -0.2882 -0.6088
 8306TIP3    H246334  -0.029   1.670  17.307 -0.8453  0.6998 -1.8780
 8307TIP3   OH246335   4.284   0.943  11.965 -0.3780 -0.5775  0.8848
 8307TIP3    H146336   4.318   0.965  12.052 -0.2074 -1.1567  0.9722
 8307TIP3    H246337   4.226   1.015  11.943  2.0853  1.3000  0.0354
 8308TIP3   OH246338   4.718   2.942  14.051 -0.4807 -0.1198 -0.2882
 8308TIP3    H146339   4.731   2.858  14.007  2.5262 -0.2873  0.6914
 8308TIP3    H246340   4.777   3.003  14.006 -0.2039  0.6459  1.0574
 8309TIP3   OH246341   6.386   2.795  13.846 -0.3545  0.2349 -0.1258
 8309TIP3    H146342   6.384   2.890  13.859  0.8239  0.2550  0.0076
 8309TIP3    H246343   6.296   2.767  13.859 -0.5989  1.2562  0.4825
 8310TIP3   OH246344   6.699   6.154   5.802 -0.3523 -0.3650 -0.8657
 8310TIP3    H146345   6.711   6.079   5.742 -0.2188  0.0602 -1.3774
 8310TIP3    H246346   6.613   6.140   5.841 -0.3731 -0.7355 -1.0377
 8311TIP3   OH246347   1.227   4.523  12.779  0.1128 -0.0703  0.3995
 8311TIP3    H146348   1.165   4.580  12.824 -1.0710  0.2281 -1.5168
 8311TIP3    H246349   1.180   4.491  12.702  1.9896 -0.6512 -0.5799
 8312TIP3   OH246350   3.031   3.781  11.275  0.1588  0.2511  0.5083
 8312TIP3    H146351   2.990   3.694  11.273 -1.5711  1.0279 -0.7408
 8312TIP3    H246352   3.086   3.783  11.196  0.2666  0.2664  0.5837
 8313TIP3   OH246353   5.652   3.645   2.184  0.7040 -0.2715  0.2491
 8313TIP3    H146354   5.635   3.585   2.110 -0.6351  0.9639 -0.5065
 8313TIP3    H246355   5.697   3.719   2.144 -1.3497  1.1014  0.2984
 8314TIP3   OH246356   2.341   6.011   1.706  0.1562  0.3162 -0.5487
 8314TIP3    H146357   2.265   6.018   1.649 -0.8268 -0.0379  0.6938
 8314TIP3    H246358   2.343   5.919   1.733 -2.1481  1.2577  3.5990
 8315TIP3   OH246359   4.902   0.467   1.851 -0.2338  0.1040 -0.3391
 8315TIP3    H146360   4.926   0.556   1.876 -1.1647  0.3155 -0.1645
 8315TIP3    H246361   4.965   0.411   1.896  0.6782  0.6860 -0.8468
 8316TIP3   OH246362   6.507   1.250   2.253 -0.0022  0.5590  0.0292
 8316TIP3    H146363   6.508   1.154   2.263 -0.5722  0.6574  1.2662
 8316TIP3    H246364   6.565   1.281   2.322 -0.9570  1.1570  0.5836
 8317TIP3   OH246365   4.726   4.569  15.670 -0.3789 -0.3354  0.2944
 8317TIP3    H146366   4.692   4.639  15.726  1.4024  0.6691  0.1727
 8317TIP3    H246367   4.671   4.571  15.592 -1.5582 -0.3744  1.1019
 8318TIP3   OH246368   1.177   0.142   1.588 -0.0972  0.0239 -0.5684
 8318TIP3    H146369   1.090   0.177   1.570 -0.4402  0.1093  1.1103
 8318TIP3    H246370   1.164   0.048   1.600  0.0633  0.0110 -0.4899
 8319TIP3   OH246371   3.545   2.138  12.671  0.0757 -0.1544 -0.0640
 8319TIP3    H146372   3.569   2.170  12.583  1.1263 -1.2309 -0.1924
 8319TIP3    H246373   3.541   2.217  12.724  0.7539  0.3926 -0.7935
 8320TIP3   OH246374   0.281   4.423   2.308  0.0392 -0.1429  0.0896
 8320TIP3    H146375   0.303   4.339   2.267 -0.9866 -0.9469  1.1441
 8320TIP3    H246376   0.187   4.434   2.293  0.2936  1.2051 -0.6930
 8321TIP3   OH246377   6.325   4.608   4.128 -0.4704  0.1140 -0.3965
 8321TIP3    H146378   6.326   4.680   4.065  0.4924  0.7882  0.3905
 8321TIP3    H246379   6.281   4.643   4.205  1.1574  0.2877  0.4764
 8322TIP3   OH246380   2.749   2.358   4.742 -0.0194  0.1853  0.0392
 8322TIP3    H146381   2.654   2.350   4.748  0.0515 -2.0244 -1.1063
 8322TIP3    H246382   2.779   2.356   4.833 -0.9293 -1.5305  0.3257
 8323TIP3   OH246383   0.636   2.183  13.763 -0.0098 -0.2235 -0.8934
 8323TIP3    H146384   0.616   2.096  13.728  1.4183  0.2085 -2.9119
 8323TIP3    H246385   0.562   2.237  13.737 -1.4198 -0.9732  1.2611
 8324TIP3   OH246386   4.685   2.676   5.008 -0.0408 -0.3984 -0.0703
 8324TIP3    H146387   4.643   2.748   5.055 -0.7763 -0.5115 -0.5306
 8324TIP3    H246388   4.683   2.703   4.916  0.0232 -0.8304 -0.2013
 8325TIP3   OH246389   0.806   6.084   1.307 -0.0592  0.0391 -0.5865
 8325TIP3    H146390   0.774   5.997   1.334  0.6884  0.2714  1.1696
 8325TIP3    H246391   0.885   6.098   1.360  0.0633  1.6308 -1.1462
 8326TIP3   OH246392   2.778   6.378  15.590  0.1370 -0.5127  0.3660
 8326TIP3    H146393   2.787   6.378  15.495 -1.6968 -0.4768  0.1544
 8326TIP3    H246394   2.864   6.351  15.622  1.3193  1.1072 -1.2266
 8327TIP3   OH246395   6.724   1.258   2.463  0.0855 -0.0532  0.2383
 8327TIP3    H146396   6.820   1.252   2.465  0.1458  0.8906  1.1819
 8327TIP3    H246397   6.703   1.318   2.535 -1.2864 -1.0720  0.7156
 8328TIP3   OH246398   6.066   3.154   4.642 -0.0158 -0.0165 -0.2642
 8328TIP3    H146399   6.030   3.229   4.595 -0.0678  0.0214 -0.1644
 8328TIP3    H246400   5.997   3.087   4.636 -0.8792  0.6451  1.4418
 8329TIP3   OH246401   3.087   2.141  16.436  0.4190  0.5062  0.5823
 8329TIP3    H146402   3.010   2.085  16.437  0.0895  0.8204 -1.5511
 8329TIP3    H246403   3.160   2.080  16.427  0.1388  0.3181 -0.6619
 8330TIP3   OH246404   2.288   5.550  11.401  0.3441 -0.8065 -0.3885
 8330TIP3    H146405   2.194   5.560  11.390  0.5799  1.6226 -0.9168
 8330TIP3    H246406   2.323   5.639  11.391  2.4443 -1.1495  2.6068
 8331TIP3   OH246407   4.134   6.724   6.085 -0.0788  0.4410 -0.6394
 8331TIP3    H146408   4.227   6.737   6.106 -0.2840 -0.1438  0.7275
 8331TIP3    H246409   4.118   6.631   6.100 -0.7002  0.3494 -1.7342
 8332TIP3   OH246410   5.590   0.747  11.469  0.1235 -0.1523  0.3120
 8332TIP3    H146411   5.541   0.665  11.476  0.6576 -0.5040  0.0306
 8332TIP3    H246412   5.590   0.782  11.558 -0.8045 -0.0395  0.2820
 8333TIP3   OH246413   1.397   0.893   5.381 -0.2110  0.4610 -0.2135
 8333TIP3    H146414   1.330   0.826   5.392 -0.3704  0.4823 -1.0004
 8333TIP3    H246415   1.479   0.849   5.402 -0.3438  0.0908 -0.4592
 8334TIP3   OH246416   4.125   1.591  11.336 -0.0989  0.0499 -0.3492
 8334TIP3    H146417   4.085   1.667  11.294 -2.0433  0.7267  2.4958
 8334TIP3    H246418   4.214   1.620  11.358  0.1869  0.4258 -1.8379
 8335TIP3   OH246419   6.696   3.280  11.076  0.1740 -0.1867  0.0034
 8335TIP3    H146420   6.775   3.264  11.025  0.3184 -0.7470  0.3992
 8335TIP3    H246421   6.650   3.349  11.028 -1.7714 -3.4063 -3.3361
 8336TIP3   OH246422   3.818   6.467  11.823  0.0552 -0.6080 -0.0407
 8336TIP3    H146423   3.831   6.438  11.732 -1.8565  0.9363 -0.8832
 8336TIP3    H246424   3.753   6.407  11.858 -0.4151 -0.2349 -0.2544
 8337TIP3   OH246425   6.614   0.172   5.264 -0.2136  0.2086  0.1794
 8337TIP3    H146426   6.632   0.186   5.172  1.2922 -0.4043  0.3564
 8337TIP3    H246427   6.678   0.227   5.310  1.3533 -2.0414  0.8333
 8338TIP3   OH246428   5.249   1.794  14.901  0.5388 -0.2311 -0.1640
 8338TIP3    H146429   5.226   1.883  14.929  0.3040  0.0420 -1.1884
 8338TIP3    H246430   5.321   1.769  14.959 -0.0815  0.2207  0.8225
 8339TIP3   OH246431   1.747   3.820  10.924  0.5024 -0.1077  0.2661
 8339TIP3    H146432   1.697   3.840  10.845  0.5868  0.7970  0.4279
 8339TIP3    H246433   1.685   3.776  10.982  0.2459 -0.1362 -0.0294
 8340TIP3   OH246434   2.294   6.133  16.210 -0.2608  0.4651  0.2747
 8340TIP3    H146435   2.209   6.112  16.174 -0.2009  0.8488 -0.1000
 8340TIP3    H246436   2.312   6.222  16.180  1.2305 -0.3628 -1.4944
 8341TIP3   OH246437   4.709   3.355  17.109  0.8461  0.4284  0.5038
 8341TIP3    H146438   4.667   3.269  17.108  0.4529  0.6162 -0.1341
 8341TIP3    H246439   4.797   3.339  17.076  0.4657  0.4079 -0.5464
 8342TIP3   OH246440   0.255   4.670  11.846  0.1869 -0.2273 -0.1365
 8342TIP3    H146441   0.307   4.742  11.883  0.4505 -0.7749  0.5922
 8342TIP3    H246442   0.165   4.692  11.868  0.0279  0.9838 -1.8416
 8343TIP3   OH246443   5.479   5.480  12.485  0.1034 -0.0490  0.2187
 8343TIP3    H146444   5.416   5.471  12.556  0.4870 -1.0237  0.4467
 8343TIP3    H246445   5.454   5.413  12.422 -0.1551  0.7242 -0.5180
 8344TIP3   OH246446   2.437   3.647   0.892  0.4271 -0.0498 -0.6823
 8344TIP3    H146447   2.522   3.663   0.851  0.1858  0.2951 -1.0572
 8344TIP3    H246448   2.397   3.577   0.840  0.8621 -0.8738  0.0600
 8345TIP3   OH246449   1.077   0.646  10.538  0.5438 -0.6310 -0.0013
 8345TIP3    H146450   1.030   0.675  10.615  0.5243 -2.1920  0.6206
 8345TIP3    H246451   1.034   0.564  10.512  0.4070 -0.0391 -1.8180
 8346TIP3   OH246452   1.064   4.126  11.160 -0.5753  0.2463  0.1634
 8346TIP3    H146453   1.119   4.110  11.083  0.4119 -2.2647  1.2671
 8346TIP3    H246454   0.975   4.132  11.125 -0.3338 -2.3047 -1.1222
 8347TIP3   OH246455   4.509   0.817   0.802  0.6094 -0.4000 -0.1368
 8347TIP3    H146456   4.423   0.774   0.798  0.6293 -0.6628  1.5430
 8347TIP3    H246457   4.568   0.758   0.755  0.4060 -1.6533  1.1353
 8348TIP3   OH246458   6.280   6.492   4.979 -0.2068 -0.2265 -0.1224
 8348TIP3    H146459   6.307   6.449   4.898  0.1910  0.1977 -0.2211
 8348TIP3    H246460   6.327   6.576   4.979 -0.0279 -0.3147  0.6488
 8349TIP3   OH246461   2.607   1.526  10.188 -0.1294 -0.1356 -0.3933
 8349TIP3    H146462   2.538   1.467  10.158  0.5514 -0.2994 -1.6898
 8349TIP3    H246463   2.587   1.540  10.281 -1.9630 -0.0810 -0.7480
 8350TIP3   OH246464   5.834   5.675  15.345  0.0169 -0.0937  0.0033
 8350TIP3    H146465   5.797   5.613  15.282 -0.2750  2.2663 -2.3595
 8350TIP3    H246466   5.925   5.685  15.318  0.2646 -0.0744  0.8338
 8351TIP3   OH246467   0.330   0.025   1.194  0.0097 -0.5474  0.2999
 8351TIP3    H146468   0.279   0.031   1.114  1.8970  0.7950 -0.9043
 8351TIP3    H246469   0.380  -0.057   1.185 -0.4280 -0.8466  0.5445
 8352TIP3   OH246470   0.775   0.749  16.345 -0.4306 -0.0433 -0.2256
 8352TIP3    H146471   0.848   0.704  16.303 -1.0141  0.9499 -2.4037
 8352TIP3    H246472   0.737   0.683  16.403  0.9403 -1.1974 -0.5871
 8353TIP3   OH246473   3.442   1.922   3.673  0.2081  0.1005  0.0026
 8353TIP3    H146474   3.417   2.013   3.690  1.1708  0.5762 -0.9838
 8353TIP3    H246475   3.466   1.921   3.580 -0.4184 -1.3225 -0.1747
 8354TIP3   OH246476   0.192   2.995  13.610  1.1317  0.5979 -0.2479
 8354TIP3    H146477   0.224   3.047  13.535  0.5011  0.7231 -0.4319
 8354TIP3    H246478   0.190   2.905  13.578 -0.7607  0.8496 -0.9563
 8355TIP3   OH246479   4.936   2.083  16.249  0.1555 -0.0793  0.4778
 8355TIP3    H146480   4.965   2.143  16.179  1.2337 -0.1441  0.8520
 8355TIP3    H246481   4.863   2.129  16.290  1.1724  1.1593  0.9714
 8356TIP3   OH246482   2.231   4.988   1.088  0.2152  0.2739  0.3048
 8356TIP3    H146483   2.322   4.964   1.074  0.2529 -0.8405  2.1610
 8356TIP3    H246484   2.181   4.923   1.040  0.3784  0.2207  0.2061
 8357TIP3   OH246485   6.389   3.635   2.298  0.2951 -0.2191  0.0420
 8357TIP3    H146486   6.449   3.561   2.309 -0.2376 -0.4583  1.6710
 8357TIP3    H246487   6.312   3.596   2.256  1.5075  0.2579 -2.8819
 8358TIP3   OH246488   1.528   1.802   5.134  0.0012 -0.2062 -0.5351
 8358TIP3    H146489   1.513   1.745   5.058  1.6829 -2.4533  0.6882
 8358TIP3    H246490   1.620   1.827   5.127 -0.2114  0.7809  0.0334
 8359TIP3   OH246491   6.731   2.466  12.905  0.0984 -0.0215 -0.1999
 8359TIP3    H146492   6.639   2.484  12.925  0.1545  0.0169  0.0288
 8359TIP3    H246493   6.779   2.531  12.956  0.2883 -0.5941  0.3747
 8360TIP3   OH246494   0.567   3.442   1.111 -0.3919  0.2161  0.1337
 8360TIP3    H146495   0.490   3.477   1.156 -0.8723 -0.5410 -0.0686
 8360TIP3    H246496   0.540   3.354   1.083  0.3534  0.1657 -0.4530
 8361TIP3   OH246497   2.558   3.505  11.058  0.5992 -0.0580  0.0564
 8361TIP3    H146498   2.599   3.548  11.132  0.9329 -1.4046  0.6756
 8361TIP3    H246499   2.464   3.508  11.077  0.6896 -0.4941  0.6013
 8362TIP3   OH246500   4.239   6.682   2.594 -0.6050  0.3426 -0.1640
 8362TIP3    H146501   4.154   6.651   2.563  0.2450 -0.9245 -1.3207
 8362TIP3    H246502   4.280   6.722   2.518  0.5321 -0.6444 -0.1011
 8363TIP3   OH246503   4.700   2.187  16.044 -0.2173 -0.4600  0.1266
 8363TIP3    H146504   4.734   2.129  15.975 -1.6581 -0.2905 -0.7608
 8363TIP3    H246505   4.774   2.243  16.067  0.6528 -1.3761 -0.3687
 8364TIP3   OH246506   2.018   5.528  15.545  0.2413 -0.2089  0.1866
 8364TIP3    H146507   1.997   5.599  15.484  2.6628  1.4016  1.0886
 8364TIP3    H246508   2.095   5.486  15.508 -0.5412 -1.7197  0.2184
 8365TIP3   OH246509   5.956   2.923   5.700  0.8266  0.2913  0.5114
 8365TIP3    H146510   5.906   2.841   5.701  1.3663 -0.0503  0.2309
 8365TIP3    H246511   6.021   2.913   5.769  0.9063  0.4741  0.4636
 8366TIP3   OH246512   4.977   1.567   4.122 -0.3603 -0.3139 -0.4553
 8366TIP3    H146513   4.894   1.614   4.127 -0.1903  0.3618 -2.7023
 8366TIP3    H246514   5.038   1.619   4.175 -1.0445 -0.1031  0.1434
 8367TIP3   OH246515   1.753   5.112   5.190 -0.2002 -0.2198 -0.0096
 8367TIP3    H146516   1.753   5.033   5.243 -1.9507 -0.2610 -0.0131
 8367TIP3    H246517   1.668   5.152   5.206  1.0456  2.2931  0.8691
 8368TIP3   OH246518   2.997   0.439   2.372  0.2287  0.4771 -0.5178
 8368TIP3    H146519   2.984   0.369   2.307 -1.0152  1.0603 -0.9231
 8368TIP3    H246520   3.014   0.517   2.320 -0.8425  0.9641 -0.1719
 8369TIP3   OH246521   1.311   2.297  11.207 -0.7647  0.4433 -0.5743
 8369TIP3    H146522   1.217   2.278  11.209 -0.6066 -0.3101  0.0916
 8369TIP3    H246523   1.316   2.391  11.225 -1.3313  0.2455  0.7958
 8370TIP3   OH246524   4.216   0.546   1.000 -0.1558 -0.6058 -0.4043
 8370TIP3    H146525   4.283   0.561   0.933  2.0685  0.7809  1.9285
 8370TIP3    H246526   4.219   0.451   1.015  1.2415 -0.5965 -0.4360
 8371TIP3   OH246527   0.699   6.436   1.004  0.4765  0.0510  0.2938
 8371TIP3    H146528   0.720   6.449   0.912  0.5551 -0.6281  0.2077
 8371TIP3    H246529   0.762   6.369   1.033 -0.5300 -0.8656  0.4412
 8372TIP3   OH246530   4.498   5.136  15.442 -0.0415 -0.7469  0.0291
 8372TIP3    H146531   4.592   5.152  15.439 -0.2241  0.3454 -0.3290
 8372TIP3    H246532   4.473   5.119  15.350 -0.5985  1.6489 -0.3329
 8373TIP3   OH246533   1.884   5.383  11.743  0.5894  0.0415 -0.5738
 8373TIP3    H146534   1.852   5.454  11.687  0.8065 -0.8005 -1.7822
 8373TIP3    H246535   1.965   5.418  11.781 -0.6696  1.4590  1.0197
 8374TIP3   OH246536   4.564   2.614  11.091  0.0323 -0.4715  0.3935
 8374TIP3    H146537   4.526   2.669  11.023  0.6308  0.5720  0.8947
 8374TIP3    H246538   4.570   2.670  11.168  0.3774 -1.3201  1.0093
 8375TIP3   OH246539   4.167   6.562  13.881  0.1671 -0.2363 -0.3394
 8375TIP3    H146540   4.138   6.547  13.791  0.2842 -0.0123 -0.4151
 8375TIP3    H246541   4.232   6.494  13.898 -2.0892 -2.3011  0.6394
 8376TIP3   OH246542   2.511   5.603  14.137 -0.5769  0.2603  0.6074
 8376TIP3    H146543   2.573   5.664  14.177  0.5146  0.2685 -0.9784
 8376TIP3    H246544   2.513   5.626  14.044  1.1579 -3.2061 -0.3859
 8377TIP3   OH246545   5.900   1.303   0.969  0.3011  0.0002 -0.4881
 8377TIP3    H146546   5.832   1.366   0.945 -1.3980 -0.6887  2.0153
 8377TIP3    H246547   5.877   1.277   1.059  4.3988  0.3616  0.8714
 8378TIP3   OH246548   6.169   0.787   3.103 -0.1275  0.6479 -0.4418
 8378TIP3    H146549   6.209   0.840   3.173  3.0418 -0.1858 -1.4487
 8378TIP3    H246550   6.093   0.747   3.145 -0.3623  2.8824  1.4834
 8379TIP3   OH246551   0.290   1.509   2.987  0.1741 -0.4078 -0.1677
 8379TIP3    H146552   0.306   1.601   2.965  1.6697 -0.3528  1.0406
 8379TIP3    H246553   0.321   1.500   3.077  0.1209 -2.1240 -0.2902
 8380TIP3   OH246554   2.310   4.285   5.752 -0.1247 -0.7446 -0.3993
 8380TIP3    H146555   2.311   4.281   5.848 -2.7425 -0.1800 -0.2679
 8380TIP3    H246556   2.342   4.199   5.724  1.4693 -0.6383  0.9161
 8381TIP3   OH246557   4.533   0.034   3.630  0.3146 -0.3259 -0.2411
 8381TIP3    H146558   4.465   0.084   3.677 -0.2486 -0.6850 -0.6620
 8381TIP3    H246559   4.489   0.003   3.551  1.5854  1.2633 -1.6227
 8382TIP3   OH246560   4.402   6.714  12.003 -0.0203  0.0144  0.1773
 8382TIP3    H146561   4.354   6.766  12.068  0.6972 -1.5093  2.0238
 8382TIP3    H246562   4.486   6.696  12.045  0.5723 -0.8204 -1.3125
 8383TIP3   OH246563   2.712   2.915  16.474  0.3425  0.1849  0.1099
 8383TIP3    H146564   2.678   3.004  16.472  0.3362  0.1874  0.2661
 8383TIP3    H246565   2.702   2.888  16.566  0.3882  0.0416  0.0731
 8384TIP3   OH246566   4.847   3.675   5.703  0.2460  0.3707  0.0183
 8384TIP3    H146567   4.790   3.711   5.771 -0.2650 -0.6469  0.1444
 8384TIP3    H246568   4.863   3.585   5.730  0.6356  0.1730 -0.8389
 8385TIP3   OH246569   4.032   2.843   5.525  0.1440  0.1624 -1.0288
 8385TIP3    H146570   4.074   2.788   5.459  0.0244 -1.2129  0.0015
 8385TIP3    H246571   3.942   2.812   5.528 -0.4520  1.6979 -1.7385
 8386TIP3   OH246572   4.681   2.437  13.620 -0.0307 -0.3171  0.4199
 8386TIP3    H146573   4.773   2.457  13.637  0.1121  1.4308 -1.9523
 8386TIP3    H246574   4.633   2.513  13.652 -0.5010 -0.5201  0.2056
 8387TIP3   OH246575   1.153   1.990  12.282  0.5419 -0.0561 -0.3001
 8387TIP3    H146576   1.155   2.082  12.309 -1.0659 -0.1226  0.1303
 8387TIP3    H246577   1.137   1.993  12.188 -2.0623  0.1206  0.0941
 8388TIP3   OH246578   3.088   0.337  11.458 -0.5460 -0.4390 -0.3742
 8388TIP3    H146579   3.068   0.415  11.407 -0.1487 -0.1038 -0.0224
 8388TIP3    H246580   3.070   0.264  11.399 -1.2094 -0.0965 -0.6084
 8389TIP3   OH246581   1.115   0.231   6.873 -0.0017 -0.4203  0.3484
 8389TIP3    H146582   1.068   0.215   6.791  1.5649 -2.6404 -0.2418
 8389TIP3    H246583   1.049   0.223   6.941 -1.0994  0.1474 -0.6238
 8390TIP3   OH246584   1.381   1.486  10.992  0.2315  0.6164  0.4633
 8390TIP3    H146585   1.474   1.505  10.979  0.3933 -1.4695 -2.5573
 8390TIP3    H246586   1.365   1.408  10.938 -3.4463  1.3811  0.1875
 8391TIP3   OH246587   5.768   1.584   4.522  0.3963 -0.2187  0.2037
 8391TIP3    H146588   5.751   1.673   4.554 -0.3582 -0.4948  0.5903
 8391TIP3    H246589   5.862   1.571   4.537  0.3025  0.1106  1.1825
 8392TIP3   OH246590   6.717   4.957   4.658 -0.1183  0.1209  0.2641
 8392TIP3    H146591   6.809   4.949   4.635  0.3665  0.2176  2.0219
 8392TIP3    H246592   6.702   5.051   4.666 -0.6986  0.1757 -1.1245
 8393TIP3   OH246593   6.620   6.375  16.900 -0.1893  0.0262 -0.0349
 8393TIP3    H146594   6.683   6.447  16.893 -0.1183 -0.0569 -0.2470
 8393TIP3    H246595   6.664   6.310  16.956  0.3662 -0.5115 -1.0688
 8394TIP3   OH246596   5.532   0.026  11.781  0.5327  0.0383  0.0886
 8394TIP3    H146597   5.469   0.086  11.820  0.4882 -0.0260  0.1147
 8394TIP3    H246598   5.585   0.082  11.724 -1.5580 -0.4044 -2.4570
 8395TIP3   OH246599   0.188   3.910  16.518 -0.5774  0.0308  0.0780
 8395TIP3    H146600   0.206   3.961  16.438 -0.0875 -0.9446 -0.4493
 8395TIP3    H246601   0.190   3.975  16.588  1.5436  0.5397 -0.3856
 8396TIP3   OH246602   5.344   3.303  15.499  0.2590  0.4879 -0.3002
 8396TIP3    H146603   5.280   3.233  15.484  0.7822 -0.3981  1.4339
 8396TIP3    H246604   5.298   3.365  15.556  0.8906 -0.1040  0.8717
 8397TIP3   OH246605   3.364   3.737  14.020 -0.3499  0.2463 -0.2087
 8397TIP3    H146606   3.377   3.829  13.997  2.4604 -0.2538 -0.9788
 8397TIP3    H246607   3.399   3.688  13.945 -0.2750 -1.4517  0.8766
 8398TIP3   OH246608   4.480   5.021   1.917  0.1176  0.1362 -0.1882
 8398TIP3    H146609   4.490   5.040   1.823  1.2865 -1.1029 -0.3491
 8398TIP3    H246610   4.438   5.099   1.953  1.0829  1.3058 -1.4766
 8399TIP3   OH246611   3.653   5.222   1.047  0.4256  0.0451  0.0102
 8399TIP3    H146612   3.663   5.252   0.956  4.1513  0.9638  0.5610
 8399TIP3    H246613   3.640   5.302   1.097  0.3421 -0.2682  0.4880
 8400TIP3   OH246614   6.061   1.490   4.112  0.0471  0.3936  0.0330
 8400TIP3    H146615   6.136   1.432   4.096  0.4647  1.2546 -1.2690
 8400TIP3    H246616   5.991   1.431   4.139  0.5069 -0.7259 -1.1136
 8401TIP3   OH246617   1.060   1.353  14.222 -0.4085  0.0345 -0.3621
 8401TIP3    H146618   1.028   1.443  14.227 -0.4110 -0.0134  0.5787
 8401TIP3    H246619   1.029   1.321  14.137  0.2079  1.1503 -1.0242
 8402TIP3   OH246620   0.000   5.415  12.852 -0.0415  0.2253 -0.4288
 8402TIP3    H146621   0.027   5.415  12.759 -0.5629  0.9078 -0.5910
 8402TIP3    H246622  -0.093   5.392  12.850  0.3572 -1.5638  0.0884
 8403TIP3   OH246623   1.138   6.181  14.249 -0.2062  0.5890  0.0187
 8403TIP3    H146624   1.072   6.152  14.313 -0.2915  2.8139  1.0020
 8403TIP3    H246625   1.194   6.104  14.237 -2.8659 -1.3767 -0.7841
 8404TIP3   OH246626   1.861   3.435  14.724 -0.0853 -0.5002  0.7367
 8404TIP3    H146627   1.777   3.458  14.685 -0.6887 -0.2151  2.1605
 8404TIP3    H246628   1.924   3.447  14.653 -1.2161 -0.6221 -0.3266
 8405TIP3   OH246629   2.578   2.825  11.529  0.0855 -0.1437  0.6666
 8405TIP3    H146630   2.524   2.806  11.606 -0.7265 -1.1021 -0.1101
 8405TIP3    H246631   2.523   2.800  11.455  1.3689 -0.5667 -0.1701
 8406TIP3   OH246632   4.857   6.363   5.578  0.0878 -0.0082  0.3751
 8406TIP3    H146633   4.783   6.335   5.523 -0.4607 -0.9254  1.5477
 8406TIP3    H246634   4.911   6.415   5.519 -0.6841 -0.6278 -0.9443
 8407TIP3   OH246635   3.882   3.580   1.527  0.3251 -0.6217  0.2004
 8407TIP3    H146636   3.968   3.549   1.555  0.0251 -1.3407  0.3375
 8407TIP3    H246637   3.856   3.642   1.595  0.8626 -0.1654  0.0015
 8408TIP3   OH246638   3.385   2.214   3.778  0.3467 -0.3948 -0.4527
 8408TIP3    H146639   3.413   2.292   3.729  0.0641 -0.5313 -0.8324
 8408TIP3    H246640   3.407   2.234   3.869  3.1060 -1.0919 -0.8730
 8409TIP3   OH246641   2.982   4.421  13.124 -0.0349  0.2876 -0.4998
 8409TIP3    H146642   3.026   4.442  13.041 -1.9025  1.2718 -1.3010
 8409TIP3    H246643   3.035   4.351  13.162  1.6514  0.7682 -1.8490
 8410TIP3   OH246644   3.418   1.298  11.675  0.2281 -0.4315  0.4892
 8410TIP3    H146645   3.495   1.315  11.729  0.5155  3.2018 -0.7375
 8410TIP3    H246646   3.343   1.317  11.732  0.3744 -0.4139  0.6764
 8411TIP3   OH246647   6.391   5.933  10.611 -0.0425 -0.0635 -0.2080
 8411TIP3    H146648   6.467   5.947  10.667 -0.7970 -0.0304  0.8325
 8411TIP3    H246649   6.428   5.917  10.524  1.2085 -1.6436  0.5720
 8412TIP3   OH246650   6.173   1.184  11.128  0.0775  0.2766 -0.1028
 8412TIP3    H146651   6.092   1.223  11.162 -0.0001  0.2614 -0.2723
 8412TIP3    H246652   6.168   1.092  11.152  0.8457  0.5968  1.4312
 8413TIP3   OH246653   0.672   1.862  14.071  0.0644  0.3593  0.4463
 8413TIP3    H146654   0.706   1.941  14.114  0.5381 -0.1162  0.9512
 8413TIP3    H246655   0.599   1.834  14.126 -0.4978  0.7839 -0.0678
 8414TIP3   OH246656   1.531   3.277  10.966 -0.2075  0.8049  0.1806
 8414TIP3    H146657   1.554   3.357  10.917 -0.0165  0.7339  0.1509
 8414TIP3    H246658   1.548   3.206  10.904 -0.4575  0.7477  0.1791
 8415TIP3   OH246659   5.220   5.789  15.050 -0.6529 -0.5895 -0.2354
 8415TIP3    H146660   5.250   5.831  14.969 -0.5052  1.7195  0.9279
 8415TIP3    H246661   5.291   5.728  15.072 -0.1042 -0.3203 -1.1793
 8416TIP3   OH246662   0.773   0.574   4.980 -0.5306  0.9103 -0.3269
 8416TIP3    H146663   0.783   0.588   4.886  1.3642 -1.2687 -0.5405
 8416TIP3    H246664   0.727   0.490   4.988  0.4645  0.4252  0.6501
 8417TIP3   OH246665   1.666   4.447  11.830  0.0508  0.2193  0.0631
 8417TIP3    H146666   1.731   4.478  11.893 -0.0957  1.3259 -0.3019
 8417TIP3    H246667   1.709   4.458  11.745 -0.3165  0.2070 -0.1249
 8418TIP3   OH246668   1.414   3.240   4.677  0.5531  1.1797 -0.4851
 8418TIP3    H146669   1.425   3.335   4.668 -1.2312  1.5854  1.0580
 8418TIP3    H246670   1.346   3.218   4.613  1.0892  0.8872 -0.9657
 8419TIP3   OH246671   2.855   6.576  12.147  0.4362 -0.3810  0.2233
 8419TIP3    H146672   2.816   6.651  12.192  0.3997 -0.1248 -0.2320
 8419TIP3    H246673   2.843   6.503  12.208 -0.5824 -0.2721  0.1811
 8420TIP3   OH246674   2.080   3.118  11.416  0.3243 -0.3936  0.1996
 8420TIP3    H146675   1.991   3.154  11.423  0.3173 -0.4453  0.3972
 8420TIP3    H246676   2.138   3.194  11.424  0.2951 -0.3511 -0.0027
 8421TIP3   OH246677   4.945   5.043  13.737 -0.3422  0.1084 -0.0805
 8421TIP3    H146678   4.936   4.949  13.751 -1.8932  0.2667  0.1666
 8421TIP3    H246679   4.878   5.082  13.793  0.6167  1.4016  0.2181
 8422TIP3   OH246680   4.037   4.759   0.454  0.1097 -0.3687 -0.3968
 8422TIP3    H146681   3.974   4.715   0.396 -0.8428  0.7100 -0.1975
 8422TIP3    H246682   4.104   4.692   0.471 -0.2123 -1.0784 -1.7796
 8423TIP3   OH246683   1.021   3.698   2.002 -0.2153  0.6140  0.4057
 8423TIP3    H146684   1.112   3.670   2.007 -0.2421  0.7283  2.2672
 8423TIP3    H246685   0.971   3.617   2.003 -0.1590  0.5614 -0.3473
 8424TIP3   OH246686   0.295   0.312   0.624 -0.0486 -0.2032 -0.3561
 8424TIP3    H146687   0.380   0.266   0.628 -0.3758 -0.7559  0.3877
 8424TIP3    H246688   0.314   0.393   0.577  1.1893  0.3145  0.9675
 8425TIP3   OH246689   4.168   3.956   1.787 -0.0906  0.5260  0.2167
 8425TIP3    H146690   4.102   3.922   1.727 -0.4326  2.4156 -0.5542
 8425TIP3    H246691   4.241   3.982   1.730 -0.3076  2.0894  0.5975
 8426TIP3   OH246692   0.502   5.606   1.735  0.2516  0.3237  0.1580
 8426TIP3    H146693   0.518   5.639   1.823  1.4200  0.5881 -0.1437
 8426TIP3    H246694   0.500   5.511   1.744  1.0901  0.3259  0.3527
 8427TIP3   OH246695   2.137   3.586  12.332 -0.4951 -0.4384 -0.4446
 8427TIP3    H146696   2.228   3.559  12.320  0.2703  1.8044 -0.2110
 8427TIP3    H246697   2.103   3.595  12.244 -1.2749 -3.4580 -0.5508
 8428TIP3   OH246698   5.666   0.189   2.034 -0.2239  0.0826 -0.4833
 8428TIP3    H146699   5.694   0.270   1.990 -1.8559  0.4974 -0.8107
 8428TIP3    H246700   5.693   0.201   2.125 -1.4140  1.4993 -0.2871
 8429TIP3   OH246701   0.991   0.505   3.953 -0.7331 -0.8630 -0.0392
 8429TIP3    H146702   1.069   0.511   4.007 -0.1360 -0.5604 -0.9157
 8429TIP3    H246703   1.009   0.560   3.877 -2.1982  0.0355  0.2171
 8430TIP3   OH246704   4.820   5.301  13.507  0.4109 -0.2105  0.2708
 8430TIP3    H146705   4.839   5.342  13.591  0.8206  0.9132 -0.3439
 8430TIP3    H246706   4.850   5.365  13.442  2.0135 -1.9047 -0.7571
 8431TIP3   OH246707   3.649   1.013   0.775 -0.3420 -0.6763  0.7701
 8431TIP3    H146708   3.706   0.987   0.847 -0.2879 -1.1361  0.5687
 8431TIP3    H246709   3.584   0.943   0.769  0.2287 -1.1541 -0.2370
 8432TIP3   OH246710   1.624   1.035  17.360 -0.3045 -0.0190  0.4812
 8432TIP3    H146711   1.559   0.970  17.332 -1.6320  1.2167  0.5850
 8432TIP3    H246712   1.667   1.062  17.278 -1.3143  0.5767  0.1243
 8433TIP3   OH246713   0.215   3.169   4.538 -0.2975  0.1049 -0.4696
 8433TIP3    H146714   0.194   3.100   4.475  0.2882  1.7951 -2.6861
 8433TIP3    H246715   0.139   3.228   4.534  0.1404  0.6915 -0.2855
 8434TIP3   OH246716   1.767   5.625   2.555 -0.2753 -0.0891  0.2792
 8434TIP3    H146717   1.767   5.673   2.638  0.6775 -0.6419  0.6089
 8434TIP3    H246718   1.776   5.693   2.488  0.4469  0.2494  0.7098
 8435TIP3   OH246719   5.277   4.059  11.782 -0.4146 -0.2255  0.1617
 8435TIP3    H146720   5.218   3.985  11.765  0.1800 -0.5244 -0.6754
 8435TIP3    H246721   5.362   4.029  11.750  0.1296  0.3297  1.0486
 8436TIP3   OH246722   2.562   6.197   5.195 -0.1803 -0.1514 -0.2909
 8436TIP3    H146723   2.547   6.219   5.104  1.6287 -2.4917 -1.2644
 8436TIP3    H246724   2.482   6.154   5.224 -0.5241  0.0209 -0.9875
 8437TIP3   OH246725   3.636   5.356  13.419  0.4067  0.0036  0.4535
 8437TIP3    H146726   3.542   5.351  13.437  0.1352  1.0304 -0.6143
 8437TIP3    H246727   3.643   5.403  13.337  1.8692 -0.1399  0.4629
 8438TIP3   OH246728   5.624   0.324  16.103 -0.0440  0.0818  0.0085
 8438TIP3    H146729   5.528   0.321  16.108 -0.2391  0.2731 -2.3777
 8438TIP3    H246730   5.648   0.240  16.063  0.4708  1.1594 -2.1208
 8439TIP3   OH246731   3.121   3.820  11.558  0.3433  0.0991 -0.4055
 8439TIP3    H146732   3.128   3.737  11.606 -0.0617  0.4418  0.2613
 8439TIP3    H246733   3.106   3.793  11.467  0.6053 -0.5618 -0.2621
 8440TIP3   OH246734   1.939   6.143  14.566  0.2988 -0.0327 -0.3104
 8440TIP3    H146735   2.029   6.177  14.562 -0.0574  1.2585  1.3892
 8440TIP3    H246736   1.947   6.061  14.615  0.5990 -0.1256 -0.5102
 8441TIP3   OH246737   1.823   0.303  15.225 -0.4529  0.0261  0.2667
 8441TIP3    H146738   1.739   0.340  15.199 -0.7667 -1.7602 -1.4896
 8441TIP3    H246739   1.885   0.375  15.216 -1.5355  0.9492  0.0447
 8442TIP3   OH246740   6.183   4.725   6.390  0.1083 -0.0633 -0.2724
 8442TIP3    H146741   6.164   4.634   6.369  0.6273 -0.2067 -0.1147
 8442TIP3    H246742   6.214   4.723   6.481 -0.0013  0.2854 -0.2233
 8443TIP3   OH246743   3.372   6.010  15.233 -0.0311  0.3182 -0.3233
 8443TIP3    H146744   3.288   5.978  15.200  0.8352 -1.8558 -0.5835
 8443TIP3    H246745   3.431   6.004  15.158  0.1815  2.8291 -0.4451
 8444TIP3   OH246746   3.642   0.535   2.685  0.2682 -0.0170  0.4442
 8444TIP3    H146747   3.687   0.453   2.704 -0.5398 -0.0013  2.6910
 8444TIP3    H246748   3.549   0.512   2.687  0.0584  0.7700  0.0639
 8445TIP3   OH246749   0.334   4.669  15.875 -0.4882  0.2323  0.0028
 8445TIP3    H146750   0.380   4.738  15.922 -0.7258 -0.1438  0.7900
 8445TIP3    H246751   0.358   4.683  15.783  0.1366  0.8424  0.2524
 8446TIP3   OH246752   6.547   0.243  17.376 -0.1283 -0.2448  0.5696
 8446TIP3    H146753   6.635   0.205  17.385  0.3059  0.5889  0.0256
 8446TIP3    H246754   6.512   0.243  17.465  0.9040  0.5152  0.9938
 8447TIP3   OH246755   4.151   2.159  14.438 -0.2505 -0.4985 -0.0198
 8447TIP3    H146756   4.066   2.159  14.393  0.5128  1.2937 -1.6622
 8447TIP3    H246757   4.144   2.231  14.500  0.0933 -0.2629 -0.2522
 8448TIP3   OH246758   6.636   1.632   2.042 -0.1873 -0.8336  0.0574
 8448TIP3    H146759   6.545   1.653   2.023 -0.0665  0.1946  0.5568
 8448TIP3    H246760   6.686   1.690   1.985  0.1724  1.6421  2.6429
 8449TIP3   OH246761   1.312   0.370   3.440 -0.3112 -0.0453 -0.3686
 8449TIP3    H146762   1.370   0.444   3.457 -1.2998  0.7044 -0.1241
 8449TIP3    H246763   1.361   0.314   3.380  0.8112  0.3552  0.1433
 8450TIP3   OH246764   0.163   2.565   0.458  0.1668 -0.2419 -0.2194
 8450TIP3    H146765   0.195   2.622   0.387  0.1306 -0.7557 -0.6552
 8450TIP3    H246766   0.102   2.506   0.415 -0.2535 -0.2241  0.3444
 8451TIP3   OH246767   0.110   5.980   0.822  0.1501 -0.0092  0.2821
 8451TIP3    H146768   0.021   5.964   0.788 -0.1494 -0.1475  1.1071
 8451TIP3    H246769   0.106   5.952   0.914  0.9793  0.2323  0.3984
 8452TIP3   OH246770   4.788   4.812  11.218  0.1792 -0.3910  0.2392
 8452TIP3    H146771   4.716   4.765  11.174 -0.4592 -0.1951  1.0541
 8452TIP3    H246772   4.823   4.870  11.151 -0.6061 -0.2891 -0.0955
 8453TIP3   OH246773   1.050   1.408  13.804  0.3179  0.1473 -0.2196
 8453TIP3    H146774   0.973   1.393  13.749 -0.6901  0.5813  1.0425
 8453TIP3    H246775   1.033   1.493  13.845  2.4199  1.2655 -1.4674
 8454TIP3   OH246776   5.179   4.642  11.422 -0.0610 -0.4120  0.0964
 8454TIP3    H146777   5.150   4.551  11.409 -0.5574 -0.2007 -0.3087
 8454TIP3    H246778   5.166   4.683  11.336 -1.0713  0.3760  0.6101
 8455TIP3   OH246779   0.171   1.688  11.404  0.3005 -0.0599 -0.7156
 8455TIP3    H146780   0.158   1.597  11.377  0.4158 -0.6112  0.9687
 8455TIP3    H246781   0.094   1.709  11.457  0.5170  0.6468 -0.6676
 8456TIP3   OH246782   6.284   5.751   2.082 -0.0786 -0.4453 -0.0604
 8456TIP3    H146783   6.233   5.812   2.028 -2.2030 -0.2904  1.9434
 8456TIP3    H246784   6.223   5.678   2.097  1.1935 -1.4229  0.4613
 8457TIP3   OH246785   1.725   6.660   6.092  0.5935 -0.1645 -0.2183
 8457TIP3    H146786   1.821   6.663   6.095  0.6085  1.6633 -1.1006
 8457TIP3    H246787   1.702   6.716   6.017 -1.2733  3.2027  2.5575
 8458TIP3   OH246788   3.731   6.044   4.403 -0.2378  0.2520 -0.0178
 8458TIP3    H146789   3.709   6.091   4.323 -0.0982 -0.2061 -0.3307
 8458TIP3    H246790   3.825   6.030   4.398 -0.3191 -0.3377 -0.0918
 8459TIP3   OH246791   1.792   1.364   3.729  0.3797 -0.6268  0.4794
 8459TIP3    H146792   1.813   1.452   3.760  1.3198 -1.0515  1.0758
 8459TIP3    H246793   1.876   1.321   3.715 -0.0556 -1.2406 -0.4102
 8460TIP3   OH246794   4.052   2.534  12.550  0.4457  0.3940 -0.4461
 8460TIP3    H146795   4.132   2.483  12.561  0.7162  0.8191 -0.3997
 8460TIP3    H246796   3.995   2.479  12.496  0.5445 -0.1510  0.0046
 8461TIP3   OH246797   6.695   0.324  14.509  0.1296  0.2408 -0.5658
 8461TIP3    H146798   6.601   0.343  14.509 -0.6178 -2.7647 -1.3341
 8461TIP3    H246799   6.718   0.315  14.601 -0.5684  0.1274 -0.3989
 8462TIP3   OH246800   5.375   1.634  13.691  0.4520  0.4169 -0.1596
 8462TIP3    H146801   5.384   1.728  13.674  1.2215  0.8300  2.0555
 8462TIP3    H246802   5.398   1.592  13.608  1.7281  2.1590 -0.7667
 8463TIP3   OH246803   0.168   4.799  17.324  0.0149 -0.6503  0.2268
 8463TIP3    H146804   0.191   4.707  17.331  2.5899 -0.0431  0.8131
 8463TIP3    H246805   0.146   4.826  17.413 -0.3808 -0.5892  0.1165
 8464TIP3   OH246806   4.016   1.362   4.901  0.4651  0.1447  0.1095
 8464TIP3    H146807   3.955   1.421   4.856 -1.2271 -2.0506 -0.6426
 8464TIP3    H246808   4.026   1.289   4.841  1.7335 -0.7972  1.4234
 8465TIP3   OH246809   5.564   2.483  11.976 -0.3053 -0.3139 -0.0160
 8465TIP3    H146810   5.523   2.454  12.057  0.5309 -0.1752  0.4622
 8465TIP3    H246811   5.558   2.578  11.979 -1.5712 -0.3306 -0.8176
 8466TIP3   OH246812   6.280   1.242  10.873  0.1622  0.1941  0.3611
 8466TIP3    H146813   6.302   1.180  10.943 -1.6925 -1.3296 -0.2867
 8466TIP3    H246814   6.188   1.264  10.890  0.1037  0.9065 -0.8092
 8467TIP3   OH246815   4.665   5.374  14.802  0.2496 -0.7315 -0.4502
 8467TIP3    H146816   4.636   5.347  14.889 -0.6650 -0.4873 -0.6699
 8467TIP3    H246817   4.595   5.431  14.770  1.0728  0.0291 -0.9301
 8468TIP3   OH246818   4.442   5.837   4.022 -0.1652 -0.4185  0.3719
 8468TIP3    H146819   4.521   5.825   3.969 -0.3225 -0.5255  0.1585
 8468TIP3    H246820   4.397   5.753   4.016 -0.7201 -0.0882 -0.2119
 8469TIP3   OH246821   0.295   5.716  14.560 -0.0428 -0.2431  0.0255
 8469TIP3    H146822   0.205   5.694  14.538  0.7211 -1.8759 -1.8406
 8469TIP3    H246823   0.299   5.811  14.557 -1.6355 -0.1650 -0.1538
 8470TIP3   OH246824   1.842   6.295   1.602  0.0938  0.1872  0.3610
 8470TIP3    H146825   1.859   6.212   1.557  3.5268  0.6071  0.6148
 8470TIP3    H246826   1.805   6.351   1.534  1.9871 -0.2226 -1.0799
 8471TIP3   OH246827   4.178   2.426  16.012 -0.3301 -0.3218 -0.6896
 8471TIP3    H146828   4.176   2.501  16.072  1.6730  0.1541 -1.1779
 8471TIP3    H246829   4.270   2.405  16.002 -0.8175 -2.7303 -0.7707
 8472TIP3   OH246830   5.866   6.591   5.064  0.1351 -0.3430  0.1527
 8472TIP3    H146831   5.773   6.573   5.079  0.3372 -1.2996  0.3413
 8472TIP3    H246832   5.886   6.544   4.983  0.5854 -0.6302  0.4246
 8473TIP3   OH246833   2.916   6.313  11.728 -0.1202 -0.0920  0.2397
 8473TIP3    H146834   2.822   6.307  11.743  0.1543 -1.6745  1.7123
 8473TIP3    H246835   2.955   6.308  11.815  1.3374  0.8489 -0.3135
 8474TIP3   OH246836   2.267   0.154   3.199 -0.2150 -0.0831 -0.0192
 8474TIP3    H146837   2.332   0.184   3.263  0.6749  0.6469 -1.2154
 8474TIP3    H246838   2.258   0.227   3.137  1.0543 -1.7142 -2.2806
 8475TIP3   OH246839   2.181   2.834  12.137  0.2122 -0.1564  0.5359
 8475TIP3    H146840   2.088   2.855  12.132  0.6070  1.6418 -0.5093
 8475TIP3    H246841   2.224   2.911  12.099  2.2993  0.4159  3.7355
 8476TIP3   OH246842   0.836   2.304  13.046  0.1110  0.0776  0.2627
 8476TIP3    H146843   0.768   2.317  12.980  0.9943  0.2780 -0.6327
 8476TIP3    H246844   0.808   2.358  13.120 -1.4529 -1.0205  0.4997
 8477TIP3   OH246845   4.353   4.225  12.861  0.2800  0.0655 -0.2613
 8477TIP3    H146846   4.258   4.229  12.871  0.2269 -1.9680  0.5314
 8477TIP3    H246847   4.387   4.224  12.950  0.9332 -0.7171 -0.5034
 8478TIP3   OH246848   4.635   1.648  12.223  0.4681  0.4614 -0.1376
 8478TIP3    H146849   4.553   1.629  12.268  1.0805 -0.0872  0.7638
 8478TIP3    H246850   4.678   1.563  12.214  0.1223  0.4396 -2.2967
 8479TIP3   OH246851   3.408   6.499   3.831 -0.0838 -0.2800 -0.3242
 8479TIP3    H146852   3.376   6.561   3.766  0.0050 -1.7823 -1.8837
 8479TIP3    H246853   3.369   6.415   3.806  1.8748 -1.3918  0.0711
 8480TIP3   OH246854   2.389   5.268   4.514 -0.6493  0.0455 -0.7466
 8480TIP3    H146855   2.341   5.285   4.433 -1.9306  2.3249  0.3775
 8480TIP3    H246856   2.328   5.292   4.583  0.6975 -1.0351  0.8973
 8481TIP3   OH246857   5.397   5.185  13.943  0.0141 -0.0833  0.3800
 8481TIP3    H146858   5.400   5.189  13.847 -0.1426 -0.5765  0.3503
 8481TIP3    H246859   5.388   5.092  13.963  1.8846 -0.1834  0.9343
 8482TIP3   OH246860   1.975   0.940  13.696  0.1147  0.3105  0.5496
 8482TIP3    H146861   2.042   1.002  13.724  1.5614 -1.0205  0.1768
 8482TIP3    H246862   1.902   0.955  13.755  0.8165  1.6637  1.1070
 8483TIP3   OH246863   6.419   1.271   6.431  0.4818  0.3999  0.0047
 8483TIP3    H146864   6.435   1.206   6.499  1.6303 -1.3711 -1.8536
 8483TIP3    H246865   6.501   1.320   6.424  0.0921  1.1373  0.4145
 8484TIP3   OH246866   0.493   4.842  13.900 -0.0882  0.4213 -0.0656
 8484TIP3    H146867   0.484   4.878  13.987 -1.5978  0.0067 -0.0167
 8484TIP3    H246868   0.450   4.906  13.842  1.7518  1.1762 -0.6610
 8485TIP3   OH246869   4.463   1.040  17.221 -0.4417 -0.1806 -0.0914
 8485TIP3    H146870   4.509   0.959  17.202  1.0268  0.6286 -0.1932
 8485TIP3    H246871   4.477   1.055  17.315  2.1620  1.5562 -0.6503
 8486TIP3   OH246872   1.009   3.042  11.514  0.4756  0.4481 -0.6035
 8486TIP3    H146873   0.976   2.967  11.464 -0.5543  0.6748 -0.2995
 8486TIP3    H246874   1.021   3.008  11.603 -0.1827  0.6812 -0.4197
 8487TIP3   OH246875   4.392   1.327   5.279 -0.1362  0.6326  0.3048
 8487TIP3    H146876   4.485   1.344   5.265  0.0450  0.1387  0.8528
 8487TIP3    H246877   4.355   1.320   5.191  0.3540  0.7721  0.0841
 8488TIP3   OH246878   3.116   0.108   0.202 -1.1836  0.2791  0.8612
 8488TIP3    H146879   3.154   0.167   0.267  1.3223 -2.3463  2.0124
 8488TIP3    H246880   3.186   0.094   0.138 -2.6718  0.6472 -0.9384
 8489TIP3   OH246881   2.168   2.366  14.257 -1.0361 -0.6642 -0.0744
 8489TIP3    H146882   2.108   2.369  14.332  0.0091  0.2982  0.7496
 8489TIP3    H246883   2.222   2.445  14.266  0.5051 -1.6093 -0.6575
 8490TIP3   OH246884   5.629   4.602  15.483 -0.1394 -0.0846 -0.2802
 8490TIP3    H146885   5.702   4.570  15.535 -2.4185 -1.2523  2.4423
 8490TIP3    H246886   5.562   4.534  15.490 -2.2839  1.8165 -0.8656
 8491TIP3   OH246887   6.588   5.664  15.531  0.2605  0.5825  0.2701
 8491TIP3    H146888   6.567   5.754  15.506  1.5131  0.2622 -2.1944
 8491TIP3    H246889   6.684   5.661  15.533  0.2668 -0.8905 -0.5687
 8492TIP3   OH246890   1.515   3.059   0.046 -0.5743  0.1725  0.0252
 8492TIP3    H146891   1.571   3.122   0.001 -1.7207  0.2486 -1.3552
 8492TIP3    H246892   1.478   3.108   0.119  1.7219 -0.1025  1.4866
 8493TIP3   OH246893   0.245   3.308   4.970  0.0038 -0.5981 -0.6875
 8493TIP3    H146894   0.243   3.363   5.048 -2.9844 -2.2932  0.5983
 8493TIP3    H246895   0.237   3.369   4.897 -3.1756  0.8145  0.6569
 8494TIP3   OH246896   5.427   4.804   2.243  0.4876 -0.7279  0.4896
 8494TIP3    H146897   5.413   4.886   2.291  0.1086 -0.0593 -0.7149
 8494TIP3    H246898   5.491   4.756   2.295  1.1152  0.5716  0.9493
 8495TIP3   OH246899   2.912   4.717   2.328  0.1669  0.1969  0.2239
 8495TIP3    H146900   2.884   4.808   2.325  1.3226  0.5603 -1.1966
 8495TIP3    H246901   2.959   4.709   2.411  1.1531  1.2732 -0.2007
 8496TIP3   OH246902   4.226   1.079   2.794  0.0373 -0.1627  0.2084
 8496TIP3    H146903   4.160   1.148   2.803 -0.2711 -0.5313  0.8235
 8496TIP3    H246904   4.252   1.058   2.883  1.8126  0.7288 -0.0487
 8497TIP3   OH246905   0.856   3.681   4.719  0.3112 -0.1136  0.1516
 8497TIP3    H146906   0.878   3.608   4.661  1.3406 -0.9141  1.4855
 8497TIP3    H246907   0.877   3.649   4.807  0.0114  1.5078  0.8521
 8498TIP3   OH246908   5.657   2.230   2.534 -0.3180  0.5412 -0.1984
 8498TIP3    H146909   5.671   2.178   2.613 -2.4291  2.8953  1.9261
 8498TIP3    H246910   5.655   2.167   2.463  0.3120 -1.8717  1.7934
 8499TIP3   OH246911   2.258   1.653   3.696 -0.1147 -0.0284  0.1426
 8499TIP3    H146912   2.333   1.615   3.649 -1.1991 -0.2392 -1.5210
 8499TIP3    H246913   2.294   1.726   3.744  1.1132  0.1443 -0.9742
 8500TIP3   OH246914   0.944   3.292   1.532 -0.1232 -0.1112 -0.1687
 8500TIP3    H146915   0.956   3.343   1.452 -0.9790  1.1873  0.4826
 8500TIP3    H246916   0.864   3.328   1.571 -1.7965 -3.1325 -0.5320
 8501TIP3   OH246917   3.958   0.959  13.669 -0.0396  0.2171 -0.6100
 8501TIP3    H146918   3.939   0.926  13.581 -0.0991  0.7641 -0.8011
 8501TIP3    H246919   3.978   1.051  13.657 -1.5741  0.6762  0.1377
 8502TIP3   OH246920   6.321   2.505  11.780  0.4992  0.2988 -0.1627
 8502TIP3    H146921   6.352   2.585  11.822  1.8053  0.2019 -0.9017
 8502TIP3    H246922   6.311   2.528  11.688  1.5106 -0.5480 -0.4983
 8503TIP3   OH246923   2.038   1.335   2.169  0.2386  0.4646 -0.2596
 8503TIP3    H146924   2.075   1.250   2.143  1.9455  0.4596  1.8732
 8503TIP3    H246925   2.114   1.392   2.175 -0.9694  2.5196 -2.5922
 8504TIP3   OH246926   3.326   3.822   1.930  0.0544 -0.4592 -0.1093
 8504TIP3    H146927   3.310   3.801   1.838  0.3626 -0.1046 -0.2455
 8504TIP3    H246928   3.240   3.821   1.970 -0.3432  1.4548 -0.8379
 8505TIP3   OH246929   6.359   3.021  15.193 -0.3191 -0.7334 -0.0178
 8505TIP3    H146930   6.266   2.998  15.187 -0.0797 -1.9552  0.6798
 8505TIP3    H246931   6.370   3.093  15.131 -0.8619 -3.2560 -3.3380
 8506TIP3   OH246932   4.519   1.677  14.410 -0.3456 -0.0964  0.2981
 8506TIP3    H146933   4.428   1.654  14.429 -0.1320 -0.0691  1.4047
 8506TIP3    H246934   4.517   1.710  14.320 -1.2264 -1.1676 -0.0962
 8507TIP3   OH246935   3.168   3.951   2.628 -0.0706 -0.3667 -0.5258
 8507TIP3    H146936   3.218   3.875   2.599 -0.0035 -0.8494  0.8042
 8507TIP3    H246937   3.086   3.947   2.578  0.2821 -0.8292 -1.0747
 8508TIP3   OH246938   4.182   1.064   4.253  0.2254  0.0706  0.6852
 8508TIP3    H146939   4.094   1.031   4.238  0.9279 -1.3710 -0.5297
 8508TIP3    H246940   4.175   1.158   4.242 -0.6261 -0.2608 -2.4108
 8509TIP3   OH246941   0.578   0.996   2.483  0.2826  0.1397  0.0593
 8509TIP3    H146942   0.645   1.056   2.450 -0.8352  1.8680  0.8038
 8509TIP3    H246943   0.552   1.032   2.567 -2.5172  0.3318 -0.7635
 8510TIP3   OH246944   0.234   3.787  12.296  0.1714  0.2162 -0.3176
 8510TIP3    H146945   0.253   3.837  12.217  1.3789  1.1552  0.5268
 8510TIP3    H246946   0.293   3.711  12.291 -0.8298 -0.5303 -1.0333
 8511TIP3   OH246947   4.454   2.942  13.281 -0.0224 -0.9280 -0.0695
 8511TIP3    H146948   4.410   2.902  13.356 -0.5248 -1.5651 -0.6961
 8511TIP3    H246949   4.541   2.901  13.280 -0.2179 -1.3430 -0.1726
 8512TIP3   OH246950   5.907   5.613  11.396 -0.0098  0.1873 -0.0906
 8512TIP3    H146951   5.999   5.589  11.390 -0.2417 -0.7693 -0.0163
 8512TIP3    H246952   5.860   5.529  11.392 -0.8879  0.6835 -0.4989
 8513TIP3   OH246953   2.025   2.556  15.736  0.6950  0.2252  0.4074
 8513TIP3    H146954   2.004   2.467  15.764 -2.1278  0.9521  0.9345
 8513TIP3    H246955   1.961   2.575  15.667 -0.5364  2.6944  2.1076
 8514TIP3   OH246956   3.757   3.470  10.589 -0.0527 -0.4765 -0.2760
 8514TIP3    H146957   3.793   3.425  10.666 -1.0851  1.4383  1.4292
 8514TIP3    H246958   3.791   3.560  10.596  0.3155 -0.3954 -2.4408
 8515TIP3   OH246959   1.567   2.627   1.080 -0.5323 -0.1146  0.0006
 8515TIP3    H146960   1.501   2.560   1.095 -1.0503 -0.1479 -2.1133
 8515TIP3    H246961   1.539   2.672   1.000  1.5595  0.4157 -0.5056
 8516TIP3   OH246962   4.906   0.125   2.219  0.5412  0.2503  0.4299
 8516TIP3    H146963   4.841   0.111   2.150  1.6338 -2.7209 -0.1543
 8516TIP3    H246964   4.864   0.186   2.279 -1.6853  0.5509 -1.2838
 8517TIP3   OH246965   6.061   1.788   3.418  0.2048 -0.1087  0.1816
 8517TIP3    H146966   6.007   1.727   3.468  0.0526  0.1533  0.3393
 8517TIP3    H246967   6.077   1.861   3.478 -0.4223  0.4629 -0.3220
 8518TIP3   OH246968   6.466   5.475  11.453 -0.1427  0.4994  0.1750
 8518TIP3    H146969   6.484   5.473  11.359 -1.2944  0.2931 -0.0628
 8518TIP3    H246970   6.409   5.400  11.468  0.3216  0.3178  1.1146
 8519TIP3   OH246971   2.197   3.526   0.469 -0.2952 -0.8572 -0.4392
 8519TIP3    H146972   2.146   3.578   0.532  1.6920 -3.4554  3.7878
 8519TIP3    H246973   2.153   3.441   0.468  1.7814 -2.0086  0.5086
 8520TIP3   OH246974   3.276   2.980   5.216 -0.4418  0.8875 -0.0612
 8520TIP3    H146975   3.247   2.889   5.221 -0.5887  0.8970 -0.6440
 8520TIP3    H246976   3.225   3.018   5.144 -0.2467  1.3772  0.0553
 8521TIP3   OH246977   6.530   3.327   5.567  0.2380  0.1795  0.3857
 8521TIP3    H146978   6.576   3.263   5.621 -1.3297 -1.0681  0.3106
 8521TIP3    H246979   6.476   3.375   5.629 -2.6823 -2.2198 -0.0972
 8522TIP3   OH246980   0.672   1.276  13.439 -0.1689  0.1047  0.6919
 8522TIP3    H146981   0.613   1.351  13.436 -0.1370  0.1145  0.3018
 8522TIP3    H246982   0.704   1.266  13.349 -0.7143 -0.7963  0.5773
 8523TIP3   OH246983   3.952   1.216   0.277  0.4062 -0.0109  0.4504
 8523TIP3    H146984   3.967   1.226   0.371  0.4269  0.1770  0.4271
 8523TIP3    H246985   4.036   1.186   0.242  0.1645 -0.9173  0.6161
 8524TIP3   OH246986   2.411   3.610  11.446  0.4303 -0.4357  0.4565
 8524TIP3    H146987   2.319   3.588  11.456  0.5722 -1.3634 -0.1324
 8524TIP3    H246988   2.430   3.670  11.518 -1.2302  1.7784 -0.8329
 8525TIP3   OH246989   0.192   2.990  14.300  0.0893 -0.1593 -1.1076
 8525TIP3    H146990   0.158   3.071  14.262 -1.2032 -0.4164 -0.5689
 8525TIP3    H246991   0.117   2.953  14.348  0.8697 -1.2815 -0.7113
 8526TIP3   OH246992   1.582   6.081  11.609 -0.4192 -0.3014 -0.2488
 8526TIP3    H146993   1.518   6.048  11.547 -2.1091  0.4430  1.0016
 8526TIP3    H246994   1.540   6.071  11.695  1.2251  0.0404  0.6470
 8527TIP3   OH246995   1.881   4.690   1.645  0.3882  0.0246 -0.4076
 8527TIP3    H146996   1.973   4.678   1.671  0.3593 -0.8848 -0.6851
 8527TIP3    H246997   1.864   4.617   1.586  0.1616  1.4948 -2.2329
 8528TIP3   OH246998   6.351   2.277  16.550 -0.2305 -0.0740 -0.3770
 8528TIP3    H146999   6.422   2.341  16.561  0.3870 -0.8770  0.5172
 8528TIP3    H247000   6.329   2.250  16.640  1.0988 -2.7777 -0.7632
 8529TIP3   OH247001   1.261   3.614  13.329 -0.1691 -0.0386 -0.0254
 8529TIP3    H147002   1.245   3.694  13.379 -0.3750 -0.6347  0.8847
 8529TIP3    H247003   1.356   3.604  13.329  0.0119  1.2185 -1.7934
 8530TIP3   OH247004   0.428   4.926  11.056  0.2502 -0.1133 -0.0824
 8530TIP3    H147005   0.365   4.855  11.043  0.5395 -0.0564 -2.1337
 8530TIP3    H247006   0.469   4.906  11.140 -0.9625 -1.3373  0.2703
 8531TIP3   OH247007   3.330   5.942  14.736  0.8028 -0.1755 -0.2926
 8531TIP3    H147008   3.275   5.956  14.659 -0.9186 -0.7862  0.7724
 8531TIP3    H247009   3.392   5.875  14.710  0.7456  0.1701 -1.3714
 8532TIP3   OH247010   5.238   3.037   0.156  0.0861  0.3048 -0.3480
 8532TIP3    H147011   5.321   2.996   0.180 -0.1007  1.1033  1.8284
 8532TIP3    H247012   5.259   3.093   0.081  1.5782  0.7581  0.3878
 8533TIP3   OH247013   6.063   5.088   1.313 -0.1588  0.1600 -0.5148
 8533TIP3    H147014   6.119   5.149   1.361  0.8074 -0.0379 -1.3498
 8533TIP3    H247015   6.038   5.136   1.234 -1.3609  0.3189 -0.0587
 8534TIP3   OH247016   6.546   5.391   0.654  0.7361 -0.2491  0.4052
 8534TIP3    H147017   6.638   5.412   0.641  1.4915 -2.5036  1.5170
 8534TIP3    H247018   6.518   5.354   0.570  1.3876 -1.2033  0.5896
 8535TIP3   OH247019   3.334   0.367  13.581  0.0478  0.0770  0.8361
 8535TIP3    H147020   3.244   0.384  13.556 -0.2726  0.4004  2.1182
 8535TIP3    H247021   3.333   0.369  13.677  1.3358 -0.3191  0.8813
 8536TIP3   OH247022   5.473   6.033   4.093 -0.1599  0.0847 -0.2072
 8536TIP3    H147023   5.534   6.015   4.164 -0.7157  1.1680  0.5760
 8536TIP3    H247024   5.455   5.947   4.054  0.9061 -0.3996  0.3138
 8537TIP3   OH247025   1.674   2.224  12.677  0.0223  0.3085 -0.2190
 8537TIP3    H147026   1.654   2.283  12.750  0.7565 -0.1431  0.3572
 8537TIP3    H247027   1.659   2.136  12.712  3.5813 -0.1510  0.5458
 8538TIP3   OH247028   0.654   0.451   1.511  0.2768  0.1040 -0.5222
 8538TIP3    H147029   0.646   0.511   1.437  0.4114 -1.8432 -2.2118
 8538TIP3    H247030   0.726   0.485   1.563  1.0002  0.8559 -1.9687
 8539TIP3   OH247031   1.006   6.699  14.587  0.0051 -0.4653 -0.3729
 8539TIP3    H147032   1.023   6.624  14.644  1.1121 -0.5556 -0.7969
 8539TIP3    H247033   0.948   6.664  14.519  1.6335 -1.3693 -1.3838
 8540TIP3   OH247034   5.460   4.527   4.973  0.5063  0.5084 -0.3074
 8540TIP3    H147035   5.551   4.502   4.988  0.4674  0.5526  0.0169
 8540TIP3    H247036   5.437   4.488   4.889 -0.0239 -1.8365  0.8371
 8541TIP3   OH247037   1.424   1.627   3.116 -0.8505  0.0049  0.3259
 8541TIP3    H147038   1.416   1.717   3.148 -0.3092  1.0050 -2.1064
 8541TIP3    H247039   1.392   1.573   3.188 -1.8528  2.1730  1.6140
 8542TIP3   OH247040   0.043   5.796   2.815 -0.6163  0.1013  0.0438
 8542TIP3    H147041   0.068   5.888   2.812 -0.6070  0.0722 -1.9074
 8542TIP3    H247042   0.121   5.750   2.846 -0.9020  0.7875  1.9496
 8543TIP3   OH247043   6.469   2.295   5.248 -0.1119  0.1367 -0.5423
 8543TIP3    H147044   6.415   2.216   5.237 -0.7542  0.7820 -2.3866
 8543TIP3    H247045   6.557   2.268   5.219 -0.0681 -0.2045 -0.0921
 8544TIP3   OH247046   5.557   3.759  15.051  1.0115  0.0553  0.1625
 8544TIP3    H147047   5.496   3.829  15.031  2.6921  1.3066 -0.9250
 8544TIP3    H247048   5.520   3.682  15.008  0.5434  0.9451 -1.1135
 8545TIP3   OH247049   4.176   6.141   1.560 -0.2736 -0.0726  0.0932
 8545TIP3    H147050   4.081   6.147   1.559 -0.2044  1.4638  0.5980
 8545TIP3    H247051   4.204   6.204   1.626  1.0943 -0.7012  0.1556
 8546TIP3   OH247052   4.246   5.268  14.989  0.0049 -0.0714  0.4942
 8546TIP3    H147053   4.198   5.264  15.072 -0.8379  1.5865  0.1359
 8546TIP3    H247054   4.317   5.330  15.005 -0.2268  0.3449 -0.0320
 8547TIP3   OH247055   5.281   1.290   5.165 -0.9476 -0.1226 -0.1517
 8547TIP3    H147056   5.314   1.368   5.121  0.0222 -0.0382  0.7005
 8547TIP3    H247057   5.318   1.293   5.253  0.1002 -2.1352 -0.4494
 8548TIP3   OH247058   6.216   6.492   1.381  0.2256  0.1316 -0.2355
 8548TIP3    H147059   6.209   6.404   1.418 -1.0197  0.8119  1.2834
 8548TIP3    H247060   6.308   6.502   1.360  0.6648 -1.0141  0.9790
 8549TIP3   OH247061   5.848   0.767  12.794  0.3382  0.0489  0.2038
 8549TIP3    H147062   5.903   0.845  12.789  1.4331 -0.7159 -0.0440
 8549TIP3    H247063   5.795   0.770  12.715  0.0344  0.7756  0.4253
 8550TIP3   OH247064   0.934   0.453  17.066 -0.1905 -0.0101 -0.8057
 8550TIP3    H147065   1.025   0.472  17.092 -0.1408  0.3033 -1.2086
 8550TIP3    H247066   0.881   0.505  17.125 -0.1552 -1.1138  0.2406
 8551TIP3   OH247067   5.904   4.952   5.201 -0.7568  0.0020  0.2535
 8551TIP3    H147068   5.952   5.013   5.256  1.2627 -0.9202 -0.4116
 8551TIP3    H247069   5.882   5.002   5.123 -1.5523  0.6307  0.8596
 8552TIP3   OH247070   5.658   2.730   2.192  0.2336 -0.2238 -0.1451
 8552TIP3    H147071   5.619   2.779   2.120 -0.4440  0.7324  0.8438
 8552TIP3    H247072   5.727   2.787   2.227  1.1269 -1.0290 -0.5420
 8553TIP3   OH247073   5.253   2.120   2.891 -0.0814  0.3726 -0.2878
 8553TIP3    H147074   5.337   2.073   2.895 -0.7210 -0.7654  0.6232
 8553TIP3    H247075   5.191   2.053   2.864 -0.9205  0.8696  0.3859
 8554TIP3   OH247076   2.901   2.764  11.254 -0.3521  0.9168  0.2596
 8554TIP3    H147077   2.981   2.711  11.243 -0.7906  0.0411  1.1621
 8554TIP3    H247078   2.896   2.780  11.348 -2.0546 -0.3798  0.4393
 8555TIP3   OH247079   4.581   0.558   2.084  0.0677  0.1276  0.5430
 8555TIP3    H147080   4.533   0.488   2.128  0.5062 -0.8606 -0.5070
 8555TIP3    H247081   4.673   0.533   2.093  0.2036  0.2959 -0.2628
 8556TIP3   OH247082   6.354   1.510  17.327  0.4942  0.2411 -0.2387
 8556TIP3    H147083   6.297   1.510  17.404  3.3267 -0.7690  2.0171
 8556TIP3    H247084   6.387   1.421  17.322 -0.4116 -0.0410 -3.4003
 8557TIP3   OH247085   2.347   0.778  15.088  0.3448  1.1658 -0.3270
 8557TIP3    H147086   2.337   0.834  15.166  2.0858  1.9651 -0.6275
 8557TIP3    H247087   2.359   0.840  15.016  2.5652  0.4724 -0.6371
 8558TIP3   OH247088   2.351   4.156  11.964  0.7294 -0.8831  0.1106
 8558TIP3    H147089   2.262   4.172  11.997  0.1804 -2.0594 -0.7404
 8558TIP3    H247090   2.346   4.180  11.871  0.2463 -4.3148 -0.8799
 8559TIP3   OH247091   1.252   2.408   2.407 -0.5042  0.0553  0.2876
 8559TIP3    H147092   1.280   2.485   2.456  0.0637 -0.4758  0.8137
 8559TIP3    H247093   1.273   2.334   2.464  0.0644 -0.5727 -0.7089
 8560TIP3   OH247094   0.493   5.406   4.423  0.6460  0.4461  0.1591
 8560TIP3    H147095   0.452   5.341   4.366  1.1499  0.0535  0.2373
 8560TIP3    H247096   0.421   5.464   4.449 -0.0544 -0.7843  1.0589
 8561TIP3   OH247097   5.666   6.448   4.762 -0.2511  0.4472  0.3953
 8561TIP3    H147098   5.631   6.411   4.843  1.9704  0.0958  1.2511
 8561TIP3    H247099   5.632   6.390   4.693 -2.2061  0.7817  0.9953
 8562TIP3   OH247100   2.683   6.437  16.514  0.4340 -0.0597 -0.1783
 8562TIP3    H147101   2.742   6.453  16.441  0.1766 -0.9401 -0.5916
 8562TIP3    H247102   2.615   6.504  16.506  2.1324  1.9729  1.1932
 8563TIP3   OH247103   5.425   3.187  15.074  0.2292  0.4586  0.3153
 8563TIP3    H147104   5.511   3.160  15.106 -0.6069 -1.5435  1.0621
 8563TIP3    H247105   5.386   3.106  15.040 -1.5795  1.1886  0.5276
 8564TIP3   OH247106   2.984   2.901   2.151 -0.0049 -0.0656  0.3277
 8564TIP3    H147107   2.980   2.887   2.246 -1.7706 -1.4133  0.1008
 8564TIP3    H247108   2.898   2.934   2.128 -1.1431 -3.7396 -1.3265
 8565TIP3   OH247109   0.391   4.701  12.375 -0.0496 -0.3874 -0.0679
 8565TIP3    H147110   0.423   4.781  12.335 -0.0559 -0.4141 -0.1277
 8565TIP3    H247111   0.340   4.658  12.306 -0.6846 -0.0728  0.2003
 8566TIP3   OH247112   0.111   6.585   4.839  0.0815 -0.2293 -0.2876
 8566TIP3    H147113   0.157   6.562   4.759  2.0804 -0.0539  0.7274
 8566TIP3    H247114   0.081   6.502   4.875 -0.4620 -0.3449 -1.0026
 8567TIP3   OH247115   0.116   3.500  10.813  0.4412  0.3206  0.6018
 8567TIP3    H147116   0.049   3.567  10.820  0.5442  0.5633 -0.4968
 8567TIP3    H247117   0.170   3.511  10.891 -0.1202  0.8677  0.9163
 8568TIP3   OH247118   0.544   1.023  17.396 -0.3587  1.0257 -0.2045
 8568TIP3    H147119   0.452   1.049  17.402 -0.5465  0.1394  1.4096
 8568TIP3    H247120   0.583   1.052  17.478 -0.0226 -1.4950  0.6313
 8569TIP3   OH247121   5.586   6.426  13.371  0.5771  0.8959  0.3384
 8569TIP3    H147122   5.616   6.344  13.332  2.0998  1.0025  1.1953
 8569TIP3    H247123   5.491   6.416  13.378  0.6427 -0.4272 -0.3863
 8570TIP3   OH247124   6.598   4.092  11.647 -0.2235 -0.3897  0.2779
 8570TIP3    H147125   6.644   4.043  11.715 -2.2110 -1.5559  0.8519
 8570TIP3    H247126   6.573   4.174  11.689 -0.4927 -0.6446  0.6208
 8571TIP3   OH247127   3.045   2.665   2.004  0.3467 -0.1141 -0.1208
 8571TIP3    H147128   3.032   2.744   2.055 -0.9349 -1.9565  2.6871
 8571TIP3    H247129   2.957   2.632   1.987  0.7631 -0.0568 -2.8920
 8572TIP3   OH247130   3.922   0.833  17.161  0.1281  0.8450  0.0658
 8572TIP3    H147131   3.853   0.841  17.227 -0.5642  1.2077 -0.6943
 8572TIP3    H247132   3.877   0.809  17.081  0.8512  1.3457 -0.5036
 8573TIP3   OH247133   4.291   5.999  10.635  0.2226 -1.0087  0.1136
 8573TIP3    H147134   4.226   5.995  10.565  1.2449 -1.8902 -0.8233
 8573TIP3    H247135   4.335   5.914  10.633  1.8913 -0.1982  0.2228
 8574TIP3   OH247136   4.186   2.861  15.226  1.1299 -0.6167 -0.2301
 8574TIP3    H147137   4.202   2.884  15.317  0.3444  1.2007 -0.5075
 8574TIP3    H247138   4.272   2.868  15.184  1.0348  1.4477 -0.1767
 8575TIP3   OH247139   3.118   6.360   0.189  0.1664 -0.2384 -0.1568
 8575TIP3    H147140   3.127   6.294   0.258 -1.6122 -0.5279 -0.1627
 8575TIP3    H247141   3.117   6.443   0.236 -1.6860 -0.4662  0.2836
 8576TIP3   OH247142   4.735   5.738  14.942 -0.2218 -0.3307 -0.4986
 8576TIP3    H147143   4.703   5.692  15.019 -0.4847 -0.8669 -0.9177
 8576TIP3    H247144   4.774   5.818  14.976  0.3361 -0.9101  0.2597
 8577TIP3   OH247145   3.861   0.543   4.949 -0.3881 -0.2225  0.2804
 8577TIP3    H147146   3.847   0.449   4.940  0.3474 -0.2079 -1.3870
 8577TIP3    H247147   3.952   0.550   4.978 -0.3902 -0.0298  0.2418
 8578TIP3   OH247148   3.368   3.618   2.758 -0.4401  0.2243  0.2712
 8578TIP3    H147149   3.419   3.537   2.748 -0.7315  0.1973 -1.4615
 8578TIP3    H247150   3.428   3.680   2.799 -0.2602 -0.8894  1.7776
 8579TIP3   OH247151   4.576   5.497  17.258  0.4837  0.4497 -0.4941
 8579TIP3    H147152   4.590   5.403  17.268  3.0596  0.6819 -1.3229
 8579TIP3    H247153   4.482   5.509  17.276  0.4355 -1.9862  1.5095
 8580TIP3   OH247154   3.157   4.038  12.584  0.5018 -0.0298 -0.5278
 8580TIP3    H147155   3.115   4.117  12.619 -0.9091 -1.2853  0.7187
 8580TIP3    H247156   3.244   4.038  12.625  0.7851  1.2218 -1.0854
 8581TIP3   OH247157   4.573   0.211  14.490  0.0328  0.2307  0.8134
 8581TIP3    H147158   4.586   0.134  14.545 -0.3611  0.5366  1.3367
 8581TIP3    H247159   4.524   0.272  14.544  0.2685  0.8242  0.3752
 8582TIP3   OH247160   3.482   3.107   1.555 -0.4718 -0.0289  0.5453
 8582TIP3    H147161   3.399   3.153   1.540 -0.6416 -0.6606 -0.5038
 8582TIP3    H247162   3.460   3.039   1.619 -0.8484 -0.4198  0.0094
 8583TIP3   OH247163   4.716   2.833  13.362 -0.0679 -0.2477  0.1130
 8583TIP3    H147164   4.777   2.905  13.345 -0.0643  0.0748  1.3781
 8583TIP3    H247165   4.764   2.754  13.338 -0.0092  0.1467 -1.1267
 8584TIP3   OH247166   1.927   2.865  14.179  0.4169 -0.0484  0.5317
 8584TIP3    H147167   1.893   2.929  14.241  0.1266 -0.4395  0.7816
 8584TIP3    H247168   2.022   2.876  14.183  0.3210  1.4392 -0.5952
 8585TIP3   OH247169   1.927   2.268  13.318 -0.3087  0.0134  0.0931
 8585TIP3    H147170   1.960   2.210  13.387  0.1833 -0.6528 -0.6944
 8585TIP3    H247171   1.853   2.220  13.280 -0.1464  0.0745 -0.3026
 8586TIP3   OH247172   1.365   0.111  11.672 -0.2026  0.5440  0.1727
 8586TIP3    H147173   1.393   0.074  11.588 -2.7465  0.4164 -0.6923
 8586TIP3    H247174   1.438   0.094  11.731  1.4101  0.0698 -1.8348
 8587TIP3   OH247175   6.217   3.483   2.138 -0.0373  0.1712  0.2132
 8587TIP3    H147176   6.197   3.396   2.102 -0.4162  0.1554  0.4643
 8587TIP3    H247177   6.208   3.542   2.063 -0.4076  0.0794  0.1821
 8588TIP3   OH247178   2.218   6.655  13.216 -0.2124  0.2519  0.3039
 8588TIP3    H147179   2.311   6.633  13.224 -0.7410 -2.3224  0.2395
 8588TIP3    H247180   2.205   6.726  13.280  1.4439 -0.5154  1.5822
 8589TIP3   OH247181   5.007   6.437  14.980 -0.3087  0.7927  0.1306
 8589TIP3    H147182   5.083   6.424  14.924 -1.9479 -1.7149 -1.7284
 8589TIP3    H247183   5.011   6.364  15.043 -0.9982  0.7910  0.1799
 8590TIP3   OH247184   0.849   2.190  17.094  0.4279 -0.0177  0.2879
 8590TIP3    H147185   0.809   2.106  17.116  0.5919  0.0120  0.7155
 8590TIP3    H247186   0.883   2.222  17.178  0.8773  0.1987  0.0241
 8591TIP3   OH247187   6.653   2.328   1.117 -0.5288 -0.0184 -0.6309
 8591TIP3    H147188   6.653   2.411   1.165 -0.8608  0.0573 -0.7549
 8591TIP3    H247189   6.708   2.345   1.040  4.8020 -1.7195  2.2934
 8592TIP3   OH247190   1.087   0.928   6.453  0.6579 -0.0602 -0.8978
 8592TIP3    H147191   1.034   0.986   6.399 -0.4838 -0.8452 -0.6491
 8592TIP3    H247192   1.097   0.975   6.536  0.8663  0.3492 -1.1504
 8593TIP3   OH247193   2.234   2.130   4.012 -0.0695  0.0263 -0.1925
 8593TIP3    H147194   2.200   2.041   4.022  0.5916 -0.3984 -1.4834
 8593TIP3    H247195   2.299   2.139   4.081  0.3189 -0.7373 -0.4464
 8594TIP3   OH247196   3.311   4.157   2.450  0.0160  0.0515  0.2565
 8594TIP3    H147197   3.320   4.065   2.475  2.4674  0.4242  0.9749
 8594TIP3    H247198   3.383   4.201   2.494  0.1756  1.9717 -1.7452
 8595TIP3   OH247199   2.848   0.069   3.125  0.1774 -0.0583 -0.6383
 8595TIP3    H147200   2.793   0.011   3.176  1.2167 -1.0143 -0.5686
 8595TIP3    H247201   2.792   0.100   3.054 -1.3114  1.3443  1.0583
 8596TIP3   OH247202   1.331   6.516  14.656  0.3325 -0.0630 -0.3383
 8596TIP3    H147203   1.395   6.469  14.709  0.3804  0.4843  0.1001
 8596TIP3    H247204   1.248   6.501  14.701  0.3545  0.3008 -0.1734
 8597TIP3   OH247205   2.847   3.655  11.744 -0.0533  0.0647  0.1933
 8597TIP3    H147206   2.820   3.703  11.666  2.2062  0.9039 -0.1705
 8597TIP3    H247207   2.837   3.717  11.815 -2.1205 -0.7032  0.6565
 8598TIP3   OH247208   0.246   4.747  12.853 -0.0862 -0.1039 -0.1749
 8598TIP3    H147209   0.239   4.787  12.766 -0.3246 -0.0751 -0.1427
 8598TIP3    H247210   0.289   4.814  12.907 -2.1128  0.8649  0.3508
 8599TIP3   OH247211   4.879   4.930  16.706 -0.2023  0.2218  0.4606
 8599TIP3    H147212   4.785   4.945  16.713 -0.1306 -0.0197  2.4943
 8599TIP3    H247213   4.915   4.962  16.788  1.7758  1.9755 -0.9790
 8600TIP3   OH247214   3.708   1.240  16.669  0.0119 -0.2154  0.1737
 8600TIP3    H147215   3.617   1.237  16.700  0.4817 -0.2614  1.6506
 8600TIP3    H247216   3.712   1.317  16.612 -1.0532 -0.4803 -0.2723
 8601TIP3   OH247217   6.058   5.531   0.450 -0.5725 -0.5127 -0.4159
 8601TIP3    H147218   6.110   5.611   0.465 -3.1623  1.3171 -0.5556
 8601TIP3    H247219   6.061   5.485   0.534 -0.3731  0.5797  0.2025
 8602TIP3   OH247220   4.811   6.683  17.251 -0.3475 -0.1159  0.4866
 8602TIP3    H147221   4.862   6.619  17.201 -1.3078 -0.9862  0.5963
 8602TIP3    H247222   4.724   6.679  17.212 -0.2381  1.7136 -0.0344
 8603TIP3   OH247223   5.248   5.656   0.875 -0.2319  0.6456  0.4442
 8603TIP3    H147224   5.338   5.686   0.887 -0.2635  1.8228 -1.7013
 8603TIP3    H247225   5.220   5.696   0.792 -0.9559 -3.7388 -1.7672
 8604TIP3   OH247226   0.087   3.501  12.528  0.4263  0.1184  0.5221
 8604TIP3    H147227   0.163   3.444  12.518  1.4695  1.2162  1.7732
 8604TIP3    H247228   0.032   3.482  12.452  1.4567 -1.4371  0.1309
 8605TIP3   OH247229   0.340   4.763   5.096  0.1870  0.1358 -0.3097
 8605TIP3    H147230   0.398   4.695   5.064 -1.4549 -0.1339 -3.0696
 8605TIP3    H247231   0.257   4.719   5.112 -0.3924  1.1706 -0.3560
 8606TIP3   OH247232   3.874   6.399   1.720  0.2077  0.2443  0.0571
 8606TIP3    H147233   3.863   6.430   1.631  0.4893 -0.0293 -0.0768
 8606TIP3    H247234   3.817   6.323   1.727  0.9018 -0.3100 -0.1922
 8607TIP3   OH247235   3.197   1.289  12.045 -0.7363 -0.4039 -0.1988
 8607TIP3    H147236   3.220   1.330  11.961  1.5705  1.4078  1.1885
 8607TIP3    H247237   3.262   1.220  12.056 -0.9588 -0.5563  0.1511
 8608TIP3   OH247238   5.258   6.548  13.373  0.4857 -0.0061 -0.0836
 8608TIP3    H147239   5.172   6.517  13.345  1.2565 -1.4317 -0.9866
 8608TIP3    H247240   5.284   6.488  13.443  1.8822 -1.3555 -1.6722
 8609TIP3   OH247241   6.048   3.397  14.255 -0.0221 -0.0583  0.3724
 8609TIP3    H147242   6.001   3.373  14.175  2.1345 -4.3931  0.1463
 8609TIP3    H247243   6.125   3.445  14.224 -1.4087  2.3706  0.3794
 8610TIP3   OH247244   4.934   5.973  11.286 -0.1806  0.3810 -0.1730
 8610TIP3    H147245   5.021   5.998  11.253  0.0252  0.8986  0.7244
 8610TIP3    H247246   4.893   6.056  11.310 -0.4369  0.0486  0.5707
 8611TIP3   OH247247   5.422   4.859  13.748 -0.3288  0.0324 -0.2242
 8611TIP3    H147248   5.404   4.799  13.675  0.6076 -0.3551 -0.1470
 8611TIP3    H247249   5.429   4.945  13.708 -1.4717  0.0759 -0.3668
 8612TIP3   OH247250   5.446   1.352   5.380 -0.6221  0.0543  0.5679
 8612TIP3    H147251   5.473   1.372   5.469  0.0041  1.0948  0.1548
 8612TIP3    H247252   5.518   1.383   5.325 -0.9090 -0.7538 -0.2984
 8613TIP3   OH247253   5.370   2.109  12.243 -0.6261  0.0784  0.0211
 8613TIP3    H147254   5.363   2.070  12.156 -0.5601  1.1288 -0.4651
 8613TIP3    H247255   5.390   2.201  12.227 -1.1819  0.4139  1.1381
 8614TIP3   OH247256   4.768   0.439  14.788  0.2883 -0.4417  0.2273
 8614TIP3    H147257   4.817   0.361  14.814  0.4172 -0.9433 -1.4116
 8614TIP3    H247258   4.683   0.406  14.758  0.2189  0.0780 -0.1718
 8615TIP3   OH247259   3.837   4.858  13.898 -0.3671 -0.3236 -0.2057
 8615TIP3    H147260   3.796   4.941  13.873  0.6256  0.6391  1.2153
 8615TIP3    H247261   3.881   4.877  13.981  0.7996 -1.9962 -0.3953
 8616TIP3   OH247262   3.412   1.085  14.140 -0.4781  0.1850  0.4111
 8616TIP3    H147263   3.424   1.009  14.196  1.1704 -2.6124 -3.2979
 8616TIP3    H247264   3.326   1.072  14.099  0.2847 -0.4009 -1.0796
 8617TIP3   OH247265   4.583   5.116  12.110  0.2769 -0.3266  0.4837
 8617TIP3    H147266   4.654   5.169  12.145  0.0955 -0.2895  0.8022
 8617TIP3    H247267   4.626   5.037  12.076  0.6113  0.2839 -0.5325
 8618TIP3   OH247268   6.743   1.044  10.884 -0.1540 -0.2721 -0.2671
 8618TIP3    H147269   6.676   1.067  10.949 -2.8926 -1.0138 -2.6601
 8618TIP3    H247270   6.789   1.127  10.868  0.6103 -0.0423  2.4517
 8619TIP3   OH247271   1.189   0.398  15.168  0.0216  0.0067  0.1598
 8619TIP3    H147272   1.187   0.475  15.225  0.1142 -0.9661  1.5287
 8619TIP3    H247273   1.131   0.420  15.095  0.6158  1.6373  0.1571
 8620TIP3   OH247274   2.466   3.792  11.003 -0.2576  0.6416 -0.9474
 8620TIP3    H147275   2.511   3.771  10.921 -2.6775  0.5835 -2.3589
 8620TIP3    H247276   2.402   3.722  11.015 -0.1346  0.7824  0.8861
 8621TIP3   OH247277   6.742   3.329   4.586  0.4024  0.4041  0.0990
 8621TIP3    H147278   6.681   3.380   4.533  0.8994 -0.7413 -1.6700
 8621TIP3    H247279   6.697   3.245   4.600  1.2366 -0.1810 -0.5940
 8622TIP3   OH247280   0.402   3.858   0.717  0.1002  0.6401  0.0827
 8622TIP3    H147281   0.421   3.940   0.763 -0.8111  0.6980  0.3647
 8622TIP3    H247282   0.315   3.832   0.747  0.8797 -1.1056  0.9771
 8623TIP3   OH247283   1.586   0.227   5.204 -0.4553 -0.0250 -0.3837
 8623TIP3    H147284   1.605   0.228   5.297 -0.4070  0.1072 -0.3950
 8623TIP3    H247285   1.587   0.319   5.178 -2.5596  0.1348 -0.0863
 8624TIP3   OH247286   3.102   3.783  13.564 -0.1979  0.0075  0.2356
 8624TIP3    H147287   3.064   3.871  13.571 -2.8434 -1.0696  0.7174
 8624TIP3    H247288   3.028   3.727  13.538  1.4024 -2.0969 -0.0732
 8625TIP3   OH247289   1.151   2.827  10.360  0.1463  0.4889  0.2981
 8625TIP3    H147290   1.079   2.843  10.299  0.0339  0.6956  0.4839
 8625TIP3    H247291   1.212   2.773  10.311  0.2422  0.9864 -0.1353
 8626TIP3   OH247292   1.096   4.031   4.312 -0.1002 -0.0370  0.0170
 8626TIP3    H147293   1.036   3.997   4.379  0.0823 -0.2171  0.0913
 8626TIP3    H247294   1.134   4.110   4.352 -1.8096  1.2686 -0.8175
 8627TIP3   OH247295   3.832   4.580   5.767  0.3816 -0.0693 -0.6013
 8627TIP3    H147296   3.787   4.540   5.841 -1.2977  2.2045 -0.2737
 8627TIP3    H247297   3.918   4.539   5.766 -0.3988 -1.9245  1.0724
 8628TIP3   OH247298   6.446   2.587  17.358  0.1574  0.1496  0.0040
 8628TIP3    H147299   6.508   2.609  17.288  0.1104 -0.1502 -0.1310
 8628TIP3    H247300   6.362   2.578  17.314  0.2843 -0.9024 -0.0347
 8629TIP3   OH247301   5.971   0.210  15.324  0.3197 -0.3868 -0.1997
 8629TIP3    H147302   5.968   0.218  15.419 -0.0185  0.2031 -0.2592
 8629TIP3    H247303   5.902   0.268  15.292  1.2953  0.4625 -0.8619
 8630TIP3   OH247304   1.985   2.900   5.234 -0.4278  0.1674  0.0576
 8630TIP3    H147305   1.935   2.886   5.154 -1.2360  0.7424  0.4495
 8630TIP3    H247306   2.076   2.892   5.207 -0.7158 -1.3228 -0.5901
 8631TIP3   OH247307   1.894   3.909  13.122  0.0933  0.2484  0.4392
 8631TIP3    H147308   1.874   4.002  13.132 -3.2530 -0.0932 -1.5961
 8631TIP3    H247309   1.924   3.900  13.032  2.4825 -0.4625  1.2166
 8632TIP3   OH247310   3.262   3.849   5.436 -0.2686 -0.0779  0.4688
 8632TIP3    H147311   3.181   3.844   5.385 -0.2423 -2.2026  0.5438
 8632TIP3    H247312   3.323   3.898   5.381 -0.7699 -0.8315 -0.8045
 8633TIP3   OH247313   2.485   4.855   3.172  0.0829 -1.1627 -0.5101
 8633TIP3    H147314   2.535   4.886   3.096 -0.4642  2.1418  0.3015
 8633TIP3    H247315   2.527   4.899   3.247 -2.2339 -0.5580  0.5104
 8634TIP3   OH247316   2.912   2.663   6.065  0.1518  0.2057 -0.3340
 8634TIP3    H147317   3.003   2.635   6.080  0.2729 -0.5596 -2.2128
 8634TIP3    H247318   2.919   2.757   6.048  0.2215  0.7104  2.1428
 8635TIP3   OH247319   0.485   2.279  11.456 -0.0329 -0.3573  0.3610
 8635TIP3    H147320   0.437   2.198  11.441 -1.6344 -0.0062  2.8585
 8635TIP3    H247321   0.421   2.349  11.442  1.3751  0.5990 -1.9859
 8636TIP3   OH247322   4.069   1.765   0.065 -0.0911 -0.0805 -0.2604
 8636TIP3    H147323   4.031   1.697   0.010  0.2386 -2.6875  2.4784
 8636TIP3    H247324   3.997   1.825   0.082 -0.3806  0.4211 -2.7839
 8637TIP3   OH247325   1.452   6.075  16.275 -0.2455  0.0706 -0.1684
 8637TIP3    H147326   1.496   6.155  16.247  0.8544 -0.3890  0.2030
 8637TIP3    H247327   1.463   6.014  16.202 -0.4739  0.0246 -0.1663
 8638TIP3   OH247328   2.534   2.029   4.894 -0.4037  0.9061  0.4586
 8638TIP3    H147329   2.597   1.983   4.949  2.4332  1.9696 -1.6081
 8638TIP3    H247330   2.495   1.961   4.839 -0.6573  0.2863  1.3896
 8639TIP3   OH247331   6.644   4.154  13.120  0.0541 -0.0126  0.1482
 8639TIP3    H147332   6.733   4.190  13.126 -0.1634  0.5252  0.2236
 8639TIP3    H247333   6.646   4.077  13.177  0.9704 -1.0791 -1.2587
 8640TIP3   OH247334   5.430   2.621  15.230  0.0958 -0.2303 -0.0290
 8640TIP3    H147335   5.414   2.558  15.160 -0.3146 -0.1217 -0.0362
 8640TIP3    H247336   5.509   2.589  15.274 -0.1933 -0.8320  0.0647
 8641TIP3   OH247337   3.524   1.462  16.957 -0.3585  0.4702  0.3342
 8641TIP3    H147338   3.438   1.467  16.999 -1.0551  2.4592 -1.1409
 8641TIP3    H247339   3.550   1.553  16.945  2.0465 -0.0897  0.8348
 8642TIP3   OH247340   0.948   6.230  11.345  0.9791 -0.1558  0.3783
 8642TIP3    H147341   1.004   6.306  11.324 -0.6178  1.4887  1.7703
 8642TIP3    H247342   0.996   6.183  11.413  0.8423  1.1009  1.3841
 8643TIP3   OH247343   2.366   6.706  16.712  0.6457 -0.3027  0.1786
 8643TIP3    H147344   2.407   6.783  16.672 -0.1472 -0.3272 -0.6960
 8643TIP3    H247345   2.329   6.739  16.794  0.7439  0.1321  0.0516
 8644TIP3   OH247346   0.659   3.012  11.251 -0.0588  0.1764  0.5820
 8644TIP3    H147347   0.729   2.978  11.305 -0.7174 -0.6537  0.9315
 8644TIP3    H247348   0.583   2.958  11.272 -0.2801 -0.3585 -1.3533
 8645TIP3   OH247349   0.961   4.936   5.160 -0.1480  0.5406  0.1304
 8645TIP3    H147350   0.912   4.997   5.215 -0.3852  0.2036  0.2994
 8645TIP3    H247351   0.901   4.915   5.088 -0.7516 -0.8594  1.0115
 8646TIP3   OH247352   4.695   1.303  16.742 -0.7959  0.0998  0.1194
 8646TIP3    H147353   4.767   1.357  16.774 -0.0603  0.2860 -1.7321
 8646TIP3    H247354   4.729   1.261  16.663 -2.0259 -1.5187  0.3975
 8647TIP3   OH247355   1.363   2.562  14.564 -0.0257 -0.5389 -0.4239
 8647TIP3    H147356   1.269   2.566  14.545 -0.0090  0.5976 -0.2968
 8647TIP3    H247357   1.398   2.505  14.496 -0.4682  0.8490 -1.8575
 8648TIP3   OH247358   4.332   5.728  13.955  0.4465  0.3723 -0.3908
 8648TIP3    H147359   4.344   5.821  13.937  0.4835  0.1770 -1.4306
 8648TIP3    H247360   4.290   5.693  13.877 -0.7246 -0.2590  0.4799
 8649TIP3   OH247361   6.079   2.623  16.843 -0.1426 -0.3894  0.0727
 8649TIP3    H147362   6.018   2.621  16.769  0.8196 -1.2756 -0.7370
 8649TIP3    H247363   6.069   2.537  16.884 -1.1122  0.3169  1.3785
 8650TIP3   OH247364   2.587   1.721  14.592  0.0721  0.3964  0.0267
 8650TIP3    H147365   2.630   1.660  14.532  0.8624  0.4268  0.5555
 8650TIP3    H247366   2.506   1.745  14.546  0.5579  0.2604 -0.9364
 8651TIP3   OH247367   4.759   4.491   0.230 -0.5123  0.2653 -0.2877
 8651TIP3    H147368   4.781   4.583   0.216  3.3845 -0.7147 -1.8774
 8651TIP3    H247369   4.827   4.459   0.290 -0.4021 -2.0570 -1.5508
 8652TIP3   OH247370   1.011   3.415   2.410  0.2219  0.0933  0.5626
 8652TIP3    H147371   1.059   3.333   2.416 -0.0439 -0.2272 -1.1641
 8652TIP3    H247372   0.923   3.390   2.383 -0.0526  0.9020  0.6581
 8653TIP3   OH247373   4.669   4.705  16.933  0.2400  0.2149  0.6474
 8653TIP3    H147374   4.699   4.705  16.843  0.8224  1.8955  0.8012
 8653TIP3    H247375   4.631   4.618  16.946  2.3059 -0.9275 -0.4756
 8654TIP3   OH247376   5.471   1.791   4.061  0.1478  0.4169  0.1917
 8654TIP3    H147377   5.510   1.770   4.146  1.5501  0.6663 -0.3593
 8654TIP3    H247378   5.423   1.872   4.077  2.6338  1.9992  0.2035
 8655TIP3   OH247379   4.065   2.791   3.919  0.3507  0.2410 -0.4273
 8655TIP3    H147380   4.004   2.758   3.986  2.3132 -0.2510  1.2219
 8655TIP3    H247381   4.104   2.712   3.882  1.3615  0.5605 -0.0753
 8656TIP3   OH247382   6.132   1.244  15.379  0.3852 -0.0407 -0.0007
 8656TIP3    H147383   6.038   1.264  15.387  0.3241  0.0361 -0.7799
 8656TIP3    H247384   6.134   1.151  15.356  0.4524  0.1334 -0.7396
 8657TIP3   OH247385   1.637   6.215  15.235 -0.9251 -0.0043  0.2059
 8657TIP3    H147386   1.710   6.159  15.261 -0.8495 -1.6479 -2.9908
 8657TIP3    H247387   1.563   6.185  15.288 -0.1158 -0.8256  0.8946
 8658TIP3   OH247388   1.738   4.622   0.989  0.1195  0.0008 -0.2248
 8658TIP3    H147389   1.811   4.560   0.984  0.0120 -0.1483  0.0312
 8658TIP3    H247390   1.667   4.580   0.941  0.4820  0.5499 -1.2607
 8659TIP3   OH247391   5.932   2.909   3.904  0.1570  0.2093 -0.5241
 8659TIP3    H147392   5.945   2.838   3.967  0.6839  2.7286  2.4542
 8659TIP3    H247393   5.837   2.921   3.900  0.1581  1.0417  1.1418
 8660TIP3   OH247394   2.370   6.718  13.849  0.1127 -0.1988  0.2500
 8660TIP3    H147395   2.455   6.697  13.888  1.3428  2.2996 -0.8848
 8660TIP3    H247396   2.335   6.788  13.905 -0.4800 -0.1288 -0.2001
 8661TIP3   OH247397   4.377   5.401   3.795  0.2824  0.4893  0.0077
 8661TIP3    H147398   4.460   5.398   3.748 -0.2758  1.6144 -1.1417
 8661TIP3    H247399   4.370   5.316   3.838  1.4767 -0.0695 -0.8457
 8662TIP3   OH247400   1.147   1.990  10.991  0.0783  0.0526  0.1952
 8662TIP3    H147401   1.232   1.968  11.028 -0.0732 -2.3618 -0.7349
 8662TIP3    H247402   1.162   1.992  10.896 -0.4814  1.7570  0.0983
 8663TIP3   OH247403   0.772   4.275  11.317 -0.4956  0.0569 -0.0993
 8663TIP3    H147404   0.733   4.204  11.267 -1.6992  0.3976  0.3137
 8663TIP3    H247405   0.786   4.345  11.254  1.3749 -0.7491 -0.6643
 8664TIP3   OH247406   0.501   2.497   2.545  0.7397 -0.0127 -0.4961
 8664TIP3    H147407   0.439   2.569   2.552 -0.8198 -0.9860 -2.8157
 8664TIP3    H247408   0.451   2.419   2.570  2.3132 -0.3951  1.7334
 8665TIP3   OH247409   4.986   2.108  10.910 -0.1260  0.5276  0.0342
 8665TIP3    H147410   5.076   2.132  10.934 -0.4366  1.1919  0.5718
 8665TIP3    H247411   4.976   2.140  10.820 -0.4187  2.1788  0.6181
 8666TIP3   OH247412   4.265   5.408   0.924 -0.2299 -0.3674 -0.0648
 8666TIP3    H147413   4.171   5.391   0.923 -0.2900 -0.2606  1.5863
 8666TIP3    H247414   4.294   5.389   0.834 -1.5342 -1.9866 -0.1859
 8667TIP3   OH247415   4.098   1.108   1.878 -0.2837 -0.3123 -0.5505
 8667TIP3    H147416   4.097   1.201   1.856 -0.8769 -0.7303 -2.5140
 8667TIP3    H247417   4.186   1.079   1.858  1.2847  0.5369  3.9246
 8668TIP3   OH247418   5.214   2.325  16.355 -0.1629 -0.1902  0.4993
 8668TIP3    H147419   5.260   2.256  16.403 -1.7277 -0.2818  1.9559
 8668TIP3    H247420   5.246   2.406  16.394  0.0145 -0.1871  0.3467
 8669TIP3   OH247421   2.750   6.076  11.180  0.3528 -0.4284  0.0519
 8669TIP3    H147422   2.828   6.108  11.225  0.9192  0.2179 -1.3179
 8669TIP3    H247423   2.740   6.134  11.104 -1.7377 -0.2061  0.4203
 8670TIP3   OH247424   5.271   1.421  14.575  0.1026  0.6104  0.1199
 8670TIP3    H147425   5.225   1.496  14.612  0.7890  0.6838  0.8525
 8670TIP3    H247426   5.219   1.345  14.603 -0.2202  0.7641 -0.0572
 8671TIP3   OH247427   0.525   2.226  12.150 -0.0262  0.2238 -0.1705
 8671TIP3    H147428   0.455   2.237  12.086 -0.0434 -0.0928 -0.2089
 8671TIP3    H247429   0.558   2.138  12.134 -0.8648 -0.3537  1.0677
 8672TIP3   OH247430   0.555   3.274   4.594 -0.6868  0.5782  0.3530
 8672TIP3    H147431   0.563   3.253   4.501  0.3533 -1.2738  0.8130
 8672TIP3    H247432   0.467   3.310   4.603 -0.4958  1.6295 -1.4698
 8673TIP3   OH247433   0.493   3.331  12.348  0.7290  0.2371  0.1735
 8673TIP3    H147434   0.432   3.306  12.417 -0.3897  1.3523 -0.3766
 8673TIP3    H247435   0.482   3.264  12.281 -1.5436  1.5355 -0.8723
 8674TIP3   OH247436   3.511   3.083  15.862 -0.0019  0.6198  0.3144
 8674TIP3    H147437   3.445   3.129  15.810  2.3976  2.8202 -1.0351
 8674TIP3    H247438   3.585   3.072  15.802  1.7256  0.3638  2.3806
 8675TIP3   OH247439   5.548   6.700  13.833 -0.4264 -0.0200  0.2797
 8675TIP3    H147440   5.581   6.611  13.821 -0.2139  0.0389  0.4257
 8675TIP3    H247441   5.604   6.753  13.776 -0.3374  0.0663  0.4494
 8676TIP3   OH247442   6.347   3.032   0.465  0.1267  0.7382 -0.2079
 8676TIP3    H147443   6.376   2.955   0.514  0.0055  1.1084  0.4465
 8676TIP3    H247444   6.427   3.064   0.421  0.2929  0.5728 -0.0249
 8677TIP3   OH247445   0.782   3.137  11.839  0.5917  0.4331 -0.0927
 8677TIP3    H147446   0.753   3.046  11.847 -2.3043  1.3283  0.7093
 8677TIP3    H247447   0.849   3.147  11.907  1.8479 -1.3329 -0.9791
 8678TIP3   OH247448   3.039   2.064  14.944  0.1133 -0.0949  0.2209
 8678TIP3    H147449   3.029   2.057  15.039  0.6534 -3.8010  0.1284
 8678TIP3    H247450   3.050   1.974  14.914  2.7190  1.1167 -3.0932
 8679TIP3   OH247451   5.475   6.282  14.125 -0.0096 -0.1582 -0.3816
 8679TIP3    H147452   5.505   6.201  14.083  0.7649 -0.5697  0.9113
 8679TIP3    H247453   5.554   6.318  14.166 -0.0101  2.0597 -2.1312
 8680TIP3   OH247454   3.794   2.152   5.451 -0.6629 -0.0530  0.3238
 8680TIP3    H147455   3.860   2.150   5.520 -0.8021  0.6246  0.4788
 8680TIP3    H247456   3.772   2.060   5.436 -0.1520 -0.2411  0.7169
 8681TIP3   OH247457   3.560   0.114   1.667 -0.4223  0.4134 -0.5936
 8681TIP3    H147458   3.563   0.095   1.761  0.7281 -1.8965 -1.0299
 8681TIP3    H247459   3.593   0.204   1.660  0.5127  0.2545  1.1457
 8682TIP3   OH247460   2.439   0.382  11.883 -0.7238  0.0705 -0.0526
 8682TIP3    H147461   2.462   0.319  11.815  0.5765 -1.2498  1.5340
 8682TIP3    H247462   2.347   0.403  11.867 -0.2771  0.4323 -2.6581
 8683TIP3   OH247463   5.763   2.523  16.262 -0.4356  0.1145  0.3470
 8683TIP3    H147464   5.810   2.499  16.183 -0.9066 -1.6194  0.5594
 8683TIP3    H247465   5.805   2.604  16.291  2.2371 -1.1644  0.3634
 8684TIP3   OH247466   3.496   4.947   1.566  0.5613 -0.3799  0.1832
 8684TIP3    H147467   3.496   4.872   1.626  0.4089 -0.2320  0.3721
 8684TIP3    H247468   3.420   4.999   1.594  0.7966 -0.0429  0.1976
 8685TIP3   OH247469   3.833   5.152   0.028  0.2145  0.0855 -0.4842
 8685TIP3    H147470   3.896   5.099  -0.021 -0.9468 -1.1425 -0.7228
 8685TIP3    H247471   3.753   5.149  -0.024 -0.8219 -0.5941  1.0640
 8686TIP3   OH247472   0.236   2.608   3.808  0.8404 -0.4963 -0.1733
 8686TIP3    H147473   0.171   2.632   3.874  1.5607 -0.7703  0.6557
 8686TIP3    H247474   0.217   2.665   3.734  0.1382 -0.0401  0.3412
 8687TIP3   OH247475   2.413   1.557  15.198  0.2795 -0.1275 -0.1280
 8687TIP3    H147476   2.503   1.554  15.230 -0.1725 -0.7522  1.1534
 8687TIP3    H247477   2.414   1.623  15.129  1.4513  0.8211  0.7571
 8688TIP3   OH247478   3.090   4.387  15.741  0.2201 -0.4763  0.4520
 8688TIP3    H147479   3.036   4.448  15.791  1.3074 -2.1299  3.9510
 8688TIP3    H247480   3.028   4.343  15.682 -1.7907 -0.4908  2.4593
 8689TIP3   OH247481   2.140   3.159  11.719 -0.4490 -0.0255 -0.8559
 8689TIP3    H147482   2.079   3.132  11.650  0.8577 -1.6416 -1.4617
 8689TIP3    H247483   2.208   3.092  11.718 -0.7137 -0.5102  2.4963
 8690TIP3   OH247484   4.501   2.178   3.860  0.1178  0.2414 -0.6888
 8690TIP3    H147485   4.514   2.228   3.779  0.5948  1.4421  0.0903
 8690TIP3    H247486   4.435   2.112   3.839 -0.5168  1.2003 -1.7714
 8691TIP3   OH247487   1.837   3.516  16.588 -0.1468  0.0910 -0.6400
 8691TIP3    H147488   1.795   3.541  16.670  1.8762  1.5067  0.0218
 8691TIP3    H247489   1.836   3.420  16.589  0.3081  0.0750  1.2867
 8692TIP3   OH247490   5.703   5.468   5.941  0.1352 -0.5613 -0.1608
 8692TIP3    H147491   5.772   5.406   5.965  0.7192  0.3345  0.5370
 8692TIP3    H247492   5.748   5.553   5.936 -0.7652 -0.0961 -0.4906
 8693TIP3   OH247493   6.412   3.835  14.451  0.7216 -0.2432 -0.1825
 8693TIP3    H147494   6.422   3.740  14.465  2.1286 -0.2001 -0.7070
 8693TIP3    H247495   6.324   3.845  14.415  0.6966 -1.3929 -0.4930
 8694TIP3   OH247496   3.781   5.639   2.857  0.2520  0.3580 -0.3538
 8694TIP3    H147497   3.841   5.707   2.826  0.4926  0.7731  0.9639
 8694TIP3    H247498   3.834   5.586   2.916 -1.0514  1.7678  2.2337
 8695TIP3   OH247499   0.484   2.720  12.574  0.4148 -0.7404  0.0599
 8695TIP3    H147500   0.564   2.732  12.522  0.1135  1.0836 -0.0529
 8695TIP3    H247501   0.496   2.777  12.650  0.0080 -1.8951  1.0267
 8696TIP3   OH247502   4.300   5.538   0.350 -0.6669  0.2022 -0.2076
 8696TIP3    H147503   4.206   5.556   0.353 -0.9411 -1.0547 -0.5257
 8696TIP3    H247504   4.306   5.447   0.320  0.5575 -0.5563  2.0764
 8697TIP3   OH247505   1.208   1.938  17.096 -0.1416 -0.1364 -0.3271
 8697TIP3    H147506   1.226   2.010  17.158 -2.1466  1.2074 -1.1686
 8697TIP3    H247507   1.248   1.967  17.014 -2.0223  0.7044 -1.0031
 8698TIP3   OH247508   5.051   2.843  17.343 -0.3915 -0.5372  0.6389
 8698TIP3    H147509   4.997   2.814  17.417 -1.5833 -2.0067 -0.7328
 8698TIP3    H247510   4.998   2.909  17.299 -1.1426 -1.9428 -0.6783
 8699TIP3   OH247511   0.832   1.822  12.225  0.0052 -0.1821  0.7365
 8699TIP3    H147512   0.765   1.859  12.167  1.0357 -0.5489 -0.7466
 8699TIP3    H247513   0.838   1.885  12.297 -1.0617  0.4832  0.2725
 8700TIP3   OH247514   1.421   1.738   1.651  0.2712 -0.2097 -0.4422
 8700TIP3    H147515   1.437   1.645   1.664  0.6462 -0.1241 -0.2752
 8700TIP3    H247516   1.420   1.749   1.556 -1.2952 -0.6360 -0.4950
 8701TIP3   OH247517   4.973   1.533  11.208 -0.0737  0.1071  0.6968
 8701TIP3    H147518   4.907   1.576  11.262 -1.1310 -1.4843  0.7096
 8701TIP3    H247519   4.940   1.445  11.193  2.2182 -0.8957  1.0309
 8702TIP3   OH247520   1.504   5.142  13.902  0.0151 -0.4299  0.1688
 8702TIP3    H147521   1.509   5.109  13.812  0.2893 -2.2486  0.8097
 8702TIP3    H247522   1.410   5.145  13.921 -0.1092  1.1176 -0.5482
 8703TIP3   OH247523   0.924   3.718   2.596 -0.2117 -0.1749 -0.3180
 8703TIP3    H147524   0.964   3.803   2.579 -1.7993  1.3443  2.7028
 8703TIP3    H247525   0.830   3.735   2.594 -0.5651 -1.8451  0.3881
 8704TIP3   OH247526   5.276   5.014  11.143  0.0885  0.1043  0.2048
 8704TIP3    H147527   5.186   5.032  11.173  0.0320 -0.7324  0.5899
 8704TIP3    H247528   5.275   5.033  11.050  0.1990  2.5696  0.6492
 8705TIP3   OH247529   5.725   6.207   2.152  0.1176 -0.1063 -0.5437
 8705TIP3    H147530   5.703   6.193   2.244  0.4755 -0.5057 -0.5158
 8705TIP3    H247531   5.675   6.141   2.105  1.8313 -1.5896 -0.4087
 8706TIP3   OH247532   0.621   2.153   2.275 -0.4646 -0.3778  0.2342
 8706TIP3    H147533   0.662   2.085   2.329  0.2800  1.0788  1.6154
 8706TIP3    H247534   0.559   2.195   2.334  0.6726  1.5434  0.1567
 8707TIP3   OH247535   6.058   3.963  16.201 -0.2389 -0.1711 -0.4118
 8707TIP3    H147536   6.033   3.938  16.290 -4.3434  0.7570 -1.0876
 8707TIP3    H247537   6.012   4.046  16.187  2.6968  1.2653 -2.4874
 8708TIP3   OH247538   0.145   4.443   3.756 -0.0164 -0.5697 -1.0519
 8708TIP3    H147539   0.230   4.398   3.762  0.9480  0.3080 -5.0264
 8708TIP3    H247540   0.089   4.381   3.709 -1.1646 -0.5387  0.2167
 8709TIP3   OH247541   2.969   3.614  13.126 -0.1592  0.2170  0.1502
 8709TIP3    H147542   3.018   3.647  13.050  0.0603 -1.6770 -0.5820
 8709TIP3    H247543   2.879   3.607  13.094 -0.0627 -0.6055  0.0461
 8710TIP3   OH247544   1.466   6.242   0.959 -0.4159  0.2355  0.2744
 8710TIP3    H147545   1.389   6.299   0.969 -0.1656  0.8692 -1.2164
 8710TIP3    H247546   1.521   6.263   1.035 -1.0267  0.8553  0.5585
 8711TIP3   OH247547   0.993   5.781  13.927  0.3256 -0.2652 -0.0110
 8711TIP3    H147548   0.903   5.759  13.904  0.6819 -0.6427 -1.1292
 8711TIP3    H247549   0.986   5.851  13.993 -0.7610  1.3336 -1.7481
 8712TIP3   OH247550   3.173   6.220  14.747  0.8317  0.1025  0.4269
 8712TIP3    H147551   3.142   6.131  14.765  1.1048 -0.0415  0.1952
 8712TIP3    H247552   3.140   6.240  14.660  0.3358  0.4276  0.6874
 8713TIP3   OH247553   5.821   3.833  14.839 -0.2000  0.1805  0.2269
 8713TIP3    H147554   5.852   3.820  14.928  0.6128  0.7998  0.0485
 8713TIP3    H247555   5.748   3.771  14.829 -1.4042  1.2584  1.8432
 8714TIP3   OH247556   0.096   6.282  13.124  0.5956 -0.0401  0.4161
 8714TIP3    H147557   0.157   6.248  13.058 -0.5152  0.3650 -0.8637
 8714TIP3    H247558   0.139   6.361  13.158  0.6847  0.3733 -0.6337
 8715TIP3   OH247559   1.324   6.094  16.863  0.5693 -0.4775  0.3756
 8715TIP3    H147560   1.397   6.126  16.811 -0.0250 -1.1614 -0.9212
 8715TIP3    H247561   1.365   6.048  16.937  1.5123 -1.8826 -0.9489
 8716TIP3   OH247562   3.054   5.179   5.141 -0.0501 -0.2054  0.6826
 8716TIP3    H147563   3.005   5.259   5.120 -0.6424 -0.1476  2.1887
 8716TIP3    H247564   3.020   5.113   5.080  0.8624  0.7843 -0.9946
 8717TIP3   OH247565   4.321   1.483  14.748  0.1373  0.1711 -0.1729
 8717TIP3    H147566   4.332   1.471  14.843 -2.9905 -0.7499  0.1747
 8717TIP3    H247567   4.308   1.577  14.738 -1.8040  0.0413  0.6822
 8718TIP3   OH247568   0.139   6.266  13.911  0.0567 -0.9298  0.0983
 8718TIP3    H147569   0.163   6.333  13.847  0.8375  0.8551  2.1578
 8718TIP3    H247570   0.046   6.249  13.893 -0.2097  0.8366 -0.4001
 8719TIP3   OH247571   5.737   4.393  17.034 -0.2100  0.2187  0.1907
 8719TIP3    H147572   5.726   4.426  17.123  1.5388  1.0449  0.1283
 8719TIP3    H247573   5.788   4.460  16.989  0.0176 -0.7676 -1.0826
 8720TIP3   OH247574   2.669   1.990  15.073 -0.1599  0.3122  0.2859
 8720TIP3    H147575   2.582   2.004  15.110 -0.4486 -0.1904 -0.1981
 8720TIP3    H247576   2.724   1.969  15.148 -0.6352 -0.2086  0.4911
 8721TIP3   OH247577   5.729   5.763  11.212  1.0594 -0.1678 -0.1650
 8721TIP3    H147578   5.781   5.834  11.175  2.1758  0.7117  2.8097
 8721TIP3    H247579   5.789   5.719  11.273 -0.6947 -1.3274  0.8040
 8722TIP3   OH247580   2.541   3.481  11.747  0.1153 -0.3063  0.4529
 8722TIP3    H147581   2.525   3.552  11.684  0.1319 -0.2443  0.5188
 8722TIP3    H247582   2.476   3.495  11.816  1.0158  0.4705  1.1660
 8723TIP3   OH247583   3.236   1.615  12.042  0.3788 -0.9375 -0.3019
 8723TIP3    H147584   3.174   1.570  12.100  1.0239 -0.2505  0.9730
 8723TIP3    H247585   3.208   1.706  12.042  1.5751 -0.5396  0.6018
 8724TIP3   OH247586   6.117   5.687   1.266 -0.0628 -0.1685  0.0528
 8724TIP3    H147587   6.193   5.714   1.214 -0.8825 -0.6412 -1.4497
 8724TIP3    H247588   6.088   5.767   1.309  1.1173  0.0698  0.4643
 8725TIP3   OH247589   1.583   0.266   0.631  0.5709  0.2160 -0.0424
 8725TIP3    H147590   1.660   0.311   0.666  1.7767 -0.7205 -1.3313
 8725TIP3    H247591   1.600   0.173   0.648 -1.1611  0.0892  1.2545
 8726TIP3   OH247592   3.888   5.266  11.747  0.1998  0.4785  0.2182
 8726TIP3    H147593   3.961   5.271  11.808 -0.1167  0.9770  0.5574
 8726TIP3    H247594   3.882   5.173  11.725  0.9222  0.4299  0.2000
 8727TIP3   OH247595   0.165   2.293  16.137 -0.2989 -0.3795 -0.7824
 8727TIP3    H147596   0.139   2.212  16.180  0.9097 -0.3447  0.0483
 8727TIP3    H247597   0.088   2.318  16.085 -1.8739 -0.3402  1.4500
 8728TIP3   OH247598   2.873   6.626  11.419 -0.0173 -0.5013 -0.1274
 8728TIP3    H147599   2.801   6.655  11.474 -0.1227 -0.1702 -0.4306
 8728TIP3    H247600   2.947   6.614  11.479  0.5193  2.0404 -0.1690
 8729TIP3   OH247601   3.750   1.181  12.724 -0.1147  0.2285  0.2799
 8729TIP3    H147602   3.823   1.164  12.784 -0.6825 -2.5992  0.2959
 8729TIP3    H247603   3.672   1.151  12.771 -0.9637  0.7195 -0.7651
 8730TIP3   OH247604   6.047   2.524   0.664  0.2575  0.4282 -0.2967
 8730TIP3    H147605   6.092   2.453   0.709  0.7263  0.2461 -1.0243
 8730TIP3    H247606   6.013   2.483   0.584 -0.0814  0.8606 -0.3745
 8731TIP3   OH247607   3.883   6.600  10.647  0.3855  0.2488  0.1685
 8731TIP3    H147608   3.927   6.639  10.572  0.0936  0.8350  0.2874
 8731TIP3    H247609   3.804   6.561  10.611  0.8977 -0.6284 -0.0159
 8732TIP3   OH247610   4.908   4.312   4.589 -0.2124  0.2532  0.6973
 8732TIP3    H147611   5.000   4.330   4.610 -0.2506 -0.4592  1.5593
 8732TIP3    H247612   4.887   4.233   4.640 -1.2384  0.2715  0.3314
 8733TIP3   OH247613   4.076   5.725   2.306 -0.2817 -0.0318  0.5214
 8733TIP3    H147614   4.054   5.753   2.395 -0.3548  0.5343  0.3306
 8733TIP3    H247615   4.164   5.758   2.291 -0.0159 -0.6839  0.6112
 8734TIP3   OH247616   6.057   1.222  15.687 -0.6085 -0.4861 -0.2663
 8734TIP3    H147617   5.973   1.256  15.720 -0.8561 -0.4671 -0.8950
 8734TIP3    H247618   6.031   1.155  15.623 -0.1326 -1.1327  0.2064
 8735TIP3   OH247619   2.083   5.422   3.991 -0.3146  0.5904 -0.0881
 8735TIP3    H147620   2.166   5.443   3.947  0.6260  0.7987  1.6858
 8735TIP3    H247621   2.046   5.351   3.939  0.9712  0.4893 -0.9279
 8736TIP3   OH247622   2.308   2.981   5.746 -0.2379 -0.1465 -0.0251
 8736TIP3    H147623   2.269   2.962   5.832 -1.6866 -1.0480 -0.8312
 8736TIP3    H247624   2.402   2.974   5.760 -0.4641 -0.7314  1.3998
 8737TIP3   OH247625   0.517   4.769  16.682 -0.2857 -0.0796 -0.4798
 8737TIP3    H147626   0.519   4.827  16.606 -1.8044  1.1293  0.3325
 8737TIP3    H247627   0.447   4.706  16.663  0.6763 -1.0505 -0.9173
 8738TIP3   OH247628   1.077   5.512  16.194 -0.2542 -0.1959  0.3897
 8738TIP3    H147629   1.016   5.511  16.121 -1.6750  1.2000  1.4774
 8738TIP3    H247630   1.102   5.604  16.204  1.8769 -0.6892  0.1516
 8739TIP3   OH247631   2.469   5.328  17.362  0.3295 -0.1480  0.0254
 8739TIP3    H147632   2.397   5.388  17.379 -0.7648 -1.0794 -1.1241
 8739TIP3    H247633   2.548   5.377  17.385 -0.4867  1.8447 -1.2000
 8740TIP3   OH247634   5.773   0.411  13.560  0.2804 -0.1516 -0.3356
 8740TIP3    H147635   5.759   0.364  13.478 -0.1021 -0.7345  0.0504
 8740TIP3    H247636   5.800   0.343  13.622 -2.4073 -0.3409  0.8063
 8741TIP3   OH247637   5.481   2.345  14.054  0.3287  0.7617  0.2110
 8741TIP3    H147638   5.446   2.345  13.965 -1.0580 -0.5240  0.7141
 8741TIP3    H247639   5.508   2.435  14.069 -2.4701  1.7819 -0.3823
 8742TIP3   OH247640   3.575   5.101   0.308 -0.1815 -0.0743 -0.1274
 8742TIP3    H147641   3.606   5.187   0.336 -0.5037 -0.6142  2.1495
 8742TIP3    H247642   3.655   5.050   0.295  0.0768 -0.4830  2.4076
 8743TIP3   OH247643   3.112   3.086  17.274 -0.0772 -0.3234  0.4279
 8743TIP3    H147644   3.201   3.113  17.293 -0.6024  0.8711  1.3202
 8743TIP3    H247645   3.118   2.992  17.259  1.3506 -0.2238  0.2656
 8744TIP3   OH247646   4.782   3.655  13.161  0.5341  0.0497 -0.3647
 8744TIP3    H147647   4.690   3.660  13.134 -0.4889 -0.1576  2.7030
 8744TIP3    H247648   4.831   3.667  13.080 -2.1711  0.5799 -2.0612
 8745TIP3   OH247649   6.669   1.209  12.277 -0.3347  0.4205  0.6344
 8745TIP3    H147650   6.742   1.148  12.290 -0.1403  0.6444  0.6260
 8745TIP3    H247651   6.699   1.290  12.320  0.8905  1.6112 -2.2298
 8746TIP3   OH247652   5.975   2.481   3.182 -0.5113 -0.0986 -0.0351
 8746TIP3    H147653   5.930   2.470   3.098  0.7603 -0.6866 -0.6527
 8746TIP3    H247654   6.047   2.418   3.179 -0.7808 -0.5431  1.7412
 8747TIP3   OH247655   5.161   1.326   0.825 -0.0328  0.1714  0.2167
 8747TIP3    H147656   5.248   1.288   0.841 -0.1576 -0.4338 -0.4553
 8747TIP3    H247657   5.121   1.331   0.912  1.6608  3.0775  0.9876
 8748TIP3   OH247658   3.696   0.310  14.316 -0.2083  0.1379  0.1113
 8748TIP3    H147659   3.729   0.371  14.249  0.6667 -1.3426 -0.8575
 8748TIP3    H247660   3.742   0.228  14.299 -0.1908 -0.3951  2.3587
 8749TIP3   OH247661   3.304   1.012  15.195  0.0920 -0.5414  0.2385
 8749TIP3    H147662   3.295   0.957  15.118 -0.5654 -1.0948  0.6990
 8749TIP3    H247663   3.386   0.983  15.236 -0.5492 -1.6330  0.8091
 8750TIP3   OH247664   6.271   2.695  16.528 -0.4740  0.0841  1.0583
 8750TIP3    H147665   6.356   2.738  16.537 -0.3528 -0.1550  1.0745
 8750TIP3    H247666   6.278   2.645  16.446 -0.5360 -0.0743  1.1481
 8751TIP3   OH247667   1.222   3.914   2.220 -0.0221 -0.3486  0.1243
 8751TIP3    H147668   1.275   3.981   2.178  0.6451 -0.9276  0.0194
 8751TIP3    H247669   1.276   3.835   2.215 -0.4933 -0.7223  0.8929
 8752TIP3   OH247670   2.682   5.395  14.167  0.0778 -0.0489  0.3999
 8752TIP3    H147671   2.668   5.366  14.257  1.8098  0.8994  1.0241
 8752TIP3    H247672   2.631   5.475  14.159  1.7908  1.2321  1.3977
 8753TIP3   OH247673   4.705   6.140  16.693 -0.3573  0.0998  0.1568
 8753TIP3    H147674   4.779   6.200  16.689 -0.1443 -0.2193 -1.7489
 8753TIP3    H247675   4.632   6.188  16.653 -1.7221  1.0190  3.4610
 8754TIP3   OH247676   6.266   4.561  12.224  0.3366  0.1420 -0.0510
 8754TIP3    H147677   6.187   4.515  12.252  0.6582 -1.2579 -1.2852
 8754TIP3    H247678   6.336   4.497  12.236  0.7115 -0.0117 -2.4225
 8755TIP3   OH247679   0.277   2.707   0.231  0.3249 -0.7207 -0.6183
 8755TIP3    H147680   0.212   2.769   0.200  0.5562  0.4007  0.9943
 8755TIP3    H247681   0.358   2.732   0.186  0.4252  0.2107  0.0473
 8756TIP3   OH247682   0.391   0.812  16.753  0.0327 -0.4533 -0.0611
 8756TIP3    H147683   0.380   0.810  16.848  0.3617  1.4364  0.0703
 8756TIP3    H247684   0.404   0.905  16.733  2.3453 -1.0458 -1.7030
 8757TIP3   OH247685   1.609   6.505  12.249 -0.0767 -0.4750  0.4035
 8757TIP3    H147686   1.542   6.551  12.298  0.4341  0.6463  0.0749
 8757TIP3    H247687   1.562   6.433  12.206 -1.2425  0.7474 -0.4555
 8758TIP3   OH247688   4.034   3.558   2.446  0.0373  0.5838 -0.2582
 8758TIP3    H147689   4.003   3.477   2.404 -0.2903  0.3919  0.3374
 8758TIP3    H247690   4.129   3.556   2.435 -0.0654  0.6598 -1.2011
 8759TIP3   OH247691   4.669   5.390   4.634 -0.6856 -0.1601  0.0035
 8759TIP3    H147692   4.646   5.429   4.550  0.4912  2.1676  0.6679
 8759TIP3    H247693   4.592   5.338   4.658 -0.8831 -1.2661 -2.6590
 8760TIP3   OH247694   0.090   4.797  14.017  0.0365  0.3072  0.4203
 8760TIP3    H147695   0.002   4.811  14.051  0.1103  0.2321  0.6425
 8760TIP3    H247696   0.146   4.798  14.094  0.2264  0.3284  0.2812
 8761TIP3   OH247697   0.540   6.329  10.995 -0.0289 -0.3645 -0.1192
 8761TIP3    H147698   0.447   6.339  10.971  0.1311 -0.6373 -0.8659
 8761TIP3    H247699   0.578   6.415  10.977 -0.1623 -0.2080  0.3280
 8762TIP3   OH247700   5.288   0.732   3.761  0.1543  0.0617  0.3149
 8762TIP3    H147701   5.301   0.798   3.693  2.4494  0.4384  1.0545
 8762TIP3    H247702   5.272   0.651   3.713  2.7055  0.1181 -0.7656
 8763TIP3   OH247703   5.676   0.765   4.696  0.5340  0.6722 -0.0801
 8763TIP3    H147704   5.720   0.817   4.629  0.8256 -1.8382 -2.0193
 8763TIP3    H247705   5.624   0.702   4.647  1.0856 -1.5883  2.0193
 8764TIP3   OH247706   6.063   3.672  17.174  0.7476  0.1388  0.1065
 8764TIP3    H147707   6.122   3.598  17.160  1.2651  0.6894 -0.7679
 8764TIP3    H247708   6.019   3.684  17.090  0.4953  0.6750  0.3046
 8765TIP3   OH247709   4.920   1.936  10.562  0.1095 -0.3253 -0.1351
 8765TIP3    H147710   4.916   2.030  10.581  0.8470 -0.0079 -1.4003
 8765TIP3    H247711   4.829   1.909  10.559 -0.1096 -0.3158  3.0660
 8766TIP3   OH247712   0.829   3.725   1.169 -0.3322 -0.2042 -0.0683
 8766TIP3    H147713   0.825   3.650   1.109  0.6929  0.0872 -0.5282
 8766TIP3    H247714   0.871   3.794   1.118 -0.6457  0.4707  0.5731
 8767TIP3   OH247715   6.545   4.065  15.998  0.4349  0.8630  0.7705
 8767TIP3    H147716   6.489   3.996  16.031  1.4004  0.2466  1.1803
 8767TIP3    H247717   6.520   4.142  16.049 -2.6358  1.6412 -1.6244
 8768TIP3   OH247718   6.015   0.300  12.802  0.0615  0.4339  0.2156
 8768TIP3    H147719   6.035   0.365  12.869  0.1169  2.2206 -1.4433
 8768TIP3    H247720   6.081   0.231  12.815 -0.2379  0.4756  2.2601
 8769TIP3   OH247721   3.685   3.691   0.243 -0.5329  0.1064 -0.4110
 8769TIP3    H147722   3.670   3.782   0.267 -1.2194 -0.1641  0.2167
 8769TIP3    H247723   3.722   3.695   0.155 -1.5020  0.9533 -0.8012
 8770TIP3   OH247724   0.524   1.898   5.358 -0.0374 -0.3353 -0.1540
 8770TIP3    H147725   0.486   1.826   5.308  0.7308 -0.1954 -0.9825
 8770TIP3    H247726   0.586   1.856   5.417 -0.5820 -0.4597  0.3358
 8771TIP3   OH247727   2.373   4.000   1.263 -0.1347 -0.3681  0.5165
 8771TIP3    H147728   2.408   3.957   1.185  0.9716 -1.3923  1.5250
 8771TIP3    H247729   2.354   4.089   1.235  2.7798  0.1108 -0.2910
 8772TIP3   OH247730   2.984   0.616  10.471  0.0073  0.7406  0.1628
 8772TIP3    H147731   3.064   0.610  10.419  1.3039  1.5746  1.9517
 8772TIP3    H247732   2.946   0.701  10.446  0.3406  0.9014  0.1993
 8773TIP3   OH247733   3.805   2.282   2.640 -0.0357  0.0115 -0.1963
 8773TIP3    H147734   3.892   2.243   2.626  0.4977  1.1464 -0.1344
 8773TIP3    H247735   3.800   2.353   2.576 -1.0890 -0.2883 -0.4627
 8774TIP3   OH247736   3.189   6.413  12.129 -0.0189 -0.5824 -0.0960
 8774TIP3    H147737   3.196   6.335  12.073  2.2471 -0.6761  0.2078
 8774TIP3    H247738   3.210   6.381  12.217  0.9417  0.3532  0.0337
 8775TIP3   OH247739   4.829   1.324   0.929 -0.3996 -0.2202  0.3026
 8775TIP3    H147740   4.878   1.242   0.932  0.9606  0.5660  0.1865
 8775TIP3    H247741   4.830   1.356   1.019  0.7674  0.6243  0.0052
 8776TIP3   OH247742   0.072   5.151  11.714  0.4430  0.0929  0.4571
 8776TIP3    H147743   0.013   5.078  11.696 -0.9277  1.0369  0.9371
 8776TIP3    H247744   0.159   5.112  11.715  0.1993 -0.8981 -3.1233
 8777TIP3   OH247745   2.332   6.488   3.509 -0.1200  0.2125  0.5500
 8777TIP3    H147746   2.257   6.547   3.509  0.3030  0.7806  1.5750
 8777TIP3    H247747   2.302   6.412   3.559 -0.4254 -0.1175 -0.1347
 8778TIP3   OH247748   1.843   4.895   5.295  0.5172 -0.1018 -0.0314
 8778TIP3    H147749   1.881   4.825   5.241 -2.5938  0.1813 -2.8921
 8778TIP3    H247750   1.815   4.850   5.375 -1.4776 -2.2798 -1.8290
 8779TIP3   OH247751   0.758   2.894   5.437  0.1712  0.0804  0.8745
 8779TIP3    H147752   0.764   2.904   5.342 -1.0983  0.6415  0.8335
 8779TIP3    H247753   0.843   2.925   5.469  0.8769 -0.7683 -0.1082
 8780TIP3   OH247754   2.055   1.714   5.095 -0.0698  0.1691  0.1048
 8780TIP3    H147755   1.967   1.692   5.127 -1.2904  1.4375 -2.1097
 8780TIP3    H247756   2.093   1.767   5.165 -1.4826  0.4585  0.7021
 8781TIP3   OH247757   4.801   4.915  10.948  0.0044 -0.2740 -0.3993
 8781TIP3    H147758   4.850   4.920  10.866  0.5138  0.9244 -0.0427
 8781TIP3    H247759   4.709   4.917  10.921  0.1709  0.7645 -0.9132
 8782TIP3   OH247760   2.099   5.652  14.738  0.2716 -0.6219 -0.2830
 8782TIP3    H147761   2.192   5.659  14.758  0.2575 -0.3126 -0.3109
 8782TIP3    H247762   2.061   5.609  14.814  0.1710  0.8203  0.5249
 8783TIP3   OH247763   4.715   6.132  14.024 -0.3683  0.1472  0.0432
 8783TIP3    H147764   4.745   6.049  13.989  1.5607  0.8112 -0.0055
 8783TIP3    H247765   4.691   6.184  13.947 -0.2768  0.1172 -0.0043
 8784TIP3   OH247766   1.291   2.732  12.518 -0.1366  0.3909 -0.2571
 8784TIP3    H147767   1.377   2.697  12.537 -0.4416  0.6015  1.6474
 8784TIP3    H247768   1.287   2.734  12.422  1.8252  0.0862 -0.3811
 8785TIP3   OH247769   2.121   2.913   4.582 -0.0699 -0.0905 -0.4821
 8785TIP3    H147770   2.156   2.841   4.634 -0.7239 -0.3205 -0.3477
 8785TIP3    H247771   2.043   2.876   4.539 -1.1874  0.8830  0.6116
 8786TIP3   OH247772   4.161   3.196  10.852  0.1183  0.4455  0.2683
 8786TIP3    H147773   4.220   3.259  10.812 -0.4090  0.8900  0.1827
 8786TIP3    H247774   4.095   3.177  10.784 -0.1440  0.3627  0.5418
 8787TIP3   OH247775   6.273   3.420   3.393 -0.3261  0.7431  0.5806
 8787TIP3    H147776   6.261   3.502   3.440 -1.0801  0.5863  0.6617
 8787TIP3    H247777   6.272   3.352   3.460  1.2395  0.7201  0.6281
 8788TIP3   OH247778   0.788   2.311  13.519 -0.1499 -0.4714 -0.0185
 8788TIP3    H147779   0.706   2.356  13.540 -0.2358  1.4628 -3.5895
 8788TIP3    H247780   0.761   2.227  13.482 -0.6197  0.2862 -1.4682
 8789TIP3   OH247781   1.913   2.494  13.155  0.2415 -0.1358 -0.5671
 8789TIP3    H147782   1.932   2.417  13.208  0.3000 -0.3530 -0.9014
 8789TIP3    H247783   1.818   2.505  13.162  0.2418 -0.2014 -0.4669
 8790TIP3   OH247784   0.744   1.368   5.019  0.0627  0.3892  0.3419
 8790TIP3    H147785   0.697   1.293   4.981  2.3852 -1.6219  1.1737
 8790TIP3    H247786   0.703   1.380   5.105  0.6511 -0.9592  0.8294
 8791TIP3   OH247787   2.435   6.647  14.549 -0.1623 -0.1647 -0.3386
 8791TIP3    H147788   2.521   6.635  14.509  0.1671  2.4827 -0.6230
 8791TIP3    H247789   2.375   6.597  14.493  0.7739  0.6384 -2.1347
 8792TIP3   OH247790   4.328   5.733   6.306  0.2321  0.7971 -0.2011
 8792TIP3    H147791   4.333   5.748   6.401  0.2596  0.0925 -0.0818
 8792TIP3    H247792   4.313   5.820   6.269  2.0056  1.3631  0.2936
 8793TIP3   OH247793   0.101   5.403   2.231 -0.6748  0.1348  0.0773
 8793TIP3    H147794   0.178   5.358   2.196 -0.9279 -0.4344  0.2304
 8793TIP3    H247795   0.127   5.495   2.238  0.2422 -0.1604  0.8087
 8794TIP3   OH247796   6.192   2.328  17.105  1.1738 -0.0660 -0.0728
 8794TIP3    H147797   6.286   2.337  17.091  1.7733 -1.2470  2.5038
 8794TIP3    H247798   6.168   2.404  17.158  0.5138  0.5595 -1.2380
 8795TIP3   OH247799   2.511   3.939   2.898  0.1797 -0.7645  0.6424
 8795TIP3    H147800   2.553   3.986   2.825 -1.1064  0.0714  0.4021
 8795TIP3    H247801   2.531   3.847   2.882  0.5857 -0.5186 -0.3357
 8796TIP3   OH247802   0.909   0.999   4.472  0.7652  0.0149  0.0339
 8796TIP3    H147803   0.837   0.947   4.507  0.4127 -0.7238 -1.6993
 8796TIP3    H247804   0.988   0.955   4.505  0.5105  1.6768  3.1563
 8797TIP3   OH247805   5.065   4.284   0.850  0.8457 -0.6762 -0.0424
 8797TIP3    H147806   5.101   4.272   0.937  2.9513 -0.9253 -0.8805
 8797TIP3    H247807   5.119   4.352   0.810 -1.7940  1.4435 -0.2852
 8798TIP3   OH247808   6.557   3.254  16.742 -0.0740 -0.3682  0.1881
 8798TIP3    H147809   6.504   3.282  16.667 -0.6517  1.3388  1.1790
 8798TIP3    H247810   6.633   3.211  16.702  0.3219  1.6711 -1.4740
 8799TIP3   OH247811   2.613   5.130   0.115 -0.1238 -0.3676  0.5874
 8799TIP3    H147812   2.673   5.080   0.060  0.0323 -0.4226  0.8068
 8799TIP3    H247813   2.566   5.187   0.054  0.9543  0.4997  0.5364
 8800TIP3   OH247814   2.429   3.316  15.285  0.0324 -0.0304  0.0630
 8800TIP3    H147815   2.385   3.235  15.310  0.7356 -0.0916  1.1301
 8800TIP3    H247816   2.465   3.298  15.198 -0.0722 -0.7591  0.1678
 8801TIP3   OH247817   4.328   2.827   2.946  0.1339 -0.2421 -0.1945
 8801TIP3    H147818   4.271   2.895   2.983  0.8241  0.6537 -0.7309
 8801TIP3    H247819   4.319   2.753   3.006  0.3392  0.7620  1.1194
 8802TIP3   OH247820   4.614   5.790   4.305 -0.7454  0.0235 -0.1144
 8802TIP3    H147821   4.564   5.828   4.232 -0.3981 -0.8843 -0.8569
 8802TIP3    H247822   4.640   5.865   4.359 -2.3497  0.5773 -0.0580
 8803TIP3   OH247823   4.733   1.403  11.024 -0.1007 -0.0199 -0.1597
 8803TIP3    H147824   4.657   1.387  10.969  0.2509 -0.3833 -0.5532
 8803TIP3    H247825   4.732   1.333  11.089 -0.5972  0.4939  0.3964
 8804TIP3   OH247826   6.051   5.672   1.636  0.1913 -0.4178 -0.1245
 8804TIP3    H147827   6.076   5.763   1.650  0.2344 -0.2361 -1.2829
 8804TIP3    H247828   6.135   5.626   1.624  0.1161 -0.0968 -2.3367
 8805TIP3   OH247829   5.234   1.978  13.885  0.0412 -0.4615  0.4222
 8805TIP3    H147830   5.301   1.971  13.952 -0.7559  0.4025  1.3427
 8805TIP3    H247831   5.169   1.912  13.910 -0.6305  0.3899  0.9630
 8806TIP3   OH247832   4.106   3.396   2.905  0.1736 -0.0992 -0.0012
 8806TIP3    H147833   4.025   3.418   2.952  0.3758 -1.0387  0.8074
 8806TIP3    H247834   4.168   3.463   2.932 -0.2517  0.4796 -0.4259
 8807TIP3   OH247835   4.707   3.418   2.443  0.1240 -0.1540  0.2855
 8807TIP3    H147836   4.803   3.412   2.451  0.5415 -0.6016 -3.4405
 8807TIP3    H247837   4.685   3.502   2.484  2.0739  0.0042  1.1495
 8808TIP3   OH247838   1.986   0.153   2.589  0.1640  0.4412  0.2463
 8808TIP3    H147839   2.023   0.107   2.513 -0.8561 -0.1031  0.0665
 8808TIP3    H247840   1.897   0.120   2.596 -0.2032  1.5156  0.8542
 8809TIP3   OH247841   1.344   4.642   2.638  0.2617 -0.4212 -0.3851
 8809TIP3    H147842   1.321   4.699   2.712 -1.7618 -0.2678 -1.0637
 8809TIP3    H247843   1.423   4.681   2.602 -1.6812  2.8506 -1.5817
 8810TIP3   OH247844   4.630   6.254  13.777  0.3195 -0.5512 -0.0335
 8810TIP3    H147845   4.691   6.320  13.811  1.8053 -1.1686 -1.3696
 8810TIP3    H247846   4.544   6.296  13.783  0.9649  0.7085  1.0568
 8811TIP3   OH247847   2.744   5.716  12.495  0.2416 -0.2398  0.1812
 8811TIP3    H147848   2.718   5.630  12.463 -3.0503  0.5645  0.3804
 8811TIP3    H247849   2.710   5.720  12.584 -0.0911  1.4409  0.0069
 8812TIP3   OH247850   3.642   1.847   0.717 -0.0307  0.3531 -0.6705
 8812TIP3    H147851   3.556   1.865   0.678  0.0850 -0.3435 -1.2812
 8812TIP3    H247852   3.694   1.925   0.698  0.0288  0.0302 -1.9760
 8813TIP3   OH247853   5.809   0.174  14.566 -0.2117  0.3581 -0.3174
 8813TIP3    H147854   5.841   0.121  14.494 -0.1355  0.4579 -0.3572
 8813TIP3    H247855   5.724   0.208  14.535  0.4272  1.4878 -0.9018
 8814TIP3   OH247856   1.753   5.807   1.730 -0.3936  0.5256 -0.2279
 8814TIP3    H147857   1.731   5.894   1.696 -0.2111  0.7707  0.2665
 8814TIP3    H247858   1.808   5.825   1.806  0.2684 -0.0432 -0.5645
 8815TIP3   OH247859   1.879   5.331   5.774  0.0752 -0.3348  0.1626
 8815TIP3    H147860   1.851   5.322   5.865  1.3497  0.7844  0.7039
 8815TIP3    H247861   1.836   5.259   5.728 -1.6872 -0.1143  1.3719
 8816TIP3   OH247862   0.942   3.062   5.794 -0.3167  0.7137 -0.3589
 8816TIP3    H147863   1.000   2.987   5.786 -0.6100  0.5698 -1.2003
 8816TIP3    H247864   0.932   3.074   5.889  1.3628  0.9786 -0.1781
 8817TIP3   OH247865   6.652   4.485  13.779  0.2309 -0.2794  0.0893
 8817TIP3    H147866   6.667   4.411  13.719  0.4808  1.0703 -1.5808
 8817TIP3    H247867   6.736   4.530  13.781 -0.3599  0.8789 -0.2425
 8818TIP3   OH247868   5.875   4.968  11.621  0.1209 -0.2236 -0.1438
 8818TIP3    H147869   5.931   4.928  11.687  2.3086  1.7469 -0.6846
 8818TIP3    H247870   5.936   4.998  11.553 -1.7196  0.8930 -1.3838
 8819TIP3   OH247871   2.099   0.719   5.528  0.0694 -0.4610  0.1688
 8819TIP3    H147872   2.104   0.814   5.515  0.2016 -0.3860  0.7459
 8819TIP3    H247873   2.032   0.690   5.466 -0.3944  0.0921  0.4013
 8820TIP3   OH247874   1.528   0.494   2.159  0.6538 -0.8103  0.2086
 8820TIP3    H147875   1.434   0.491   2.143  0.8065 -0.3120 -0.9278
 8820TIP3    H247876   1.540   0.566   2.221  0.2841 -0.8561  0.3332
 8821TIP3   OH247877   4.000   1.626   5.362 -0.0292  0.0453  0.2976
 8821TIP3    H147878   4.033   1.581   5.284  1.0825 -1.8703  1.7751
 8821TIP3    H247879   4.067   1.690   5.383  0.1374 -0.1034  0.2211
 8822TIP3   OH247880   3.101   6.367  13.706 -0.0141  0.3581 -0.1774
 8822TIP3    H147881   3.194   6.349  13.692 -0.0170 -0.6542  0.9397
 8822TIP3    H247882   3.059   6.281  13.703 -0.7115  0.6498  0.6644
 8823TIP3   OH247883   4.331   1.487  10.363 -0.3673 -0.1325  0.0422
 8823TIP3    H147884   4.381   1.406  10.361 -0.1513  0.0114 -0.5891
 8823TIP3    H247885   4.293   1.494  10.275  0.5097  0.9953 -0.2706
 8824TIP3   OH247886   4.538   0.471   2.590 -0.0203 -0.0890 -0.1337
 8824TIP3    H147887   4.482   0.452   2.666 -1.4696 -2.0518 -1.5844
 8824TIP3    H247888   4.624   0.490   2.627 -0.9738  0.2367  2.0519
 8825TIP3   OH247889   6.213   1.720   2.167  0.5041  0.4566  0.8731
 8825TIP3    H147890   6.276   1.662   2.210 -1.0349 -0.5123  1.9093
 8825TIP3    H247891   6.160   1.756   2.239  0.0106  1.4313  0.0516
 8826TIP3   OH247892   1.052   4.840   0.751  0.1776  0.5289  0.5348
 8826TIP3    H147893   1.033   4.853   0.658  1.5291  0.8791  0.2889
 8826TIP3    H247894   1.137   4.795   0.752 -0.3491 -0.5172  1.5810
 8827TIP3   OH247895   0.257   0.136  13.141  0.3847  0.1020  0.2079
 8827TIP3    H147896   0.350   0.113  13.138  0.0187 -1.5792  0.3330
 8827TIP3    H247897   0.232   0.149  13.049  0.4612 -0.7643  0.0572
 8828TIP3   OH247898   3.515   2.618  12.310 -0.1325  0.1015 -0.4383
 8828TIP3    H147899   3.503   2.524  12.318  1.6338 -0.1101  0.1924
 8828TIP3    H247900   3.546   2.632  12.221  0.2633  0.0049 -0.3157
 8829TIP3   OH247901   0.159   3.589  13.859  0.3885  0.1943 -0.3311
 8829TIP3    H147902   0.187   3.678  13.837  0.2814  0.0663 -0.9909
 8829TIP3    H247903   0.231   3.533  13.830  0.5426  0.0799  0.2638
 8830TIP3   OH247904   2.804   1.138   0.904 -0.1752 -0.1710  0.5163
 8830TIP3    H147905   2.831   1.228   0.921  0.5213 -0.2445 -0.1642
 8830TIP3    H247906   2.807   1.130   0.809 -0.6701 -0.7867  0.5466
 8831TIP3   OH247907   3.051   1.090   4.849 -0.1611 -0.1525 -0.1027
 8831TIP3    H147908   3.104   1.114   4.925  0.5385 -0.2307 -0.5580
 8831TIP3    H247909   3.002   1.169   4.828  1.5188  0.6689 -1.0970
 8832TIP3   OH247910   6.113   5.899   1.940 -0.1650  0.4579 -0.4425
 8832TIP3    H147911   6.046   5.911   2.007 -0.2287 -0.3941 -0.3406
 8832TIP3    H247912   6.133   5.988   1.910 -2.8704  0.6280 -2.0085
 8833TIP3   OH247913   4.616   4.337   0.045 -0.2094  0.0566 -0.2865
 8833TIP3    H147914   4.670   4.406   0.082  1.5141 -0.5105 -1.6334
 8833TIP3    H247915   4.677   4.282  -0.004 -1.4713 -2.5211  0.8289
 8834TIP3   OH247916   0.851   6.181  14.386 -0.1376  0.0939  0.5053
 8834TIP3    H147917   0.858   6.202  14.293 -0.5877 -1.9756 -0.0510
 8834TIP3    H247918   0.777   6.233  14.417  1.5018  2.6875  0.3626
 8835TIP3   OH247919   5.491   4.328   3.046  0.1207 -0.1640 -0.4596
 8835TIP3    H147920   5.489   4.424   3.047 -0.1445 -0.1599 -0.9464
 8835TIP3    H247921   5.443   4.304   2.967 -0.6665 -0.7292  0.1803
 8836TIP3   OH247922   4.265   6.492  16.360  0.0022  0.0710  0.0984
 8836TIP3    H147923   4.337   6.501  16.298  2.1132 -0.7664  2.2652
 8836TIP3    H247924   4.278   6.563  16.423 -0.9550 -0.2305  0.6670
 8837TIP3   OH247925   5.161   4.668   1.942  0.1223 -0.2725  0.2967
 8837TIP3    H147926   5.128   4.730   1.876 -0.4493 -0.1642  0.6784
 8837TIP3    H247927   5.250   4.698   1.960  0.2279 -0.2035 -0.3016
 8838TIP3   OH247928   0.431   3.038   2.057  1.0361  0.2451  0.2689
 8838TIP3    H147929   0.447   3.115   2.111  0.5877 -0.1843  1.0228
 8838TIP3    H247930   0.474   2.966   2.104 -0.2124 -0.3170  0.5937
 8839TIP3   OH247931   6.016   4.117   1.148  0.8919  0.5471 -0.2440
 8839TIP3    H147932   5.924   4.135   1.164  0.8032 -0.0254 -0.0627
 8839TIP3    H247933   6.062   4.162   1.219  0.6016 -0.7940  0.8392
 8840TIP3   OH247934   3.750   2.883  15.973  0.3024 -0.5830  0.6499
 8840TIP3    H147935   3.761   2.797  15.933  0.4599 -1.3735  2.2928
 8840TIP3    H247936   3.660   2.883  16.007 -0.6561  0.9713 -1.6464
 8841TIP3   OH247937   2.689   5.222   5.191  0.1810  0.1401  0.0804
 8841TIP3    H147938   2.600   5.257   5.199  0.1513  0.2602 -0.6736
 8841TIP3    H247939   2.712   5.237   5.100  0.2738 -1.5244 -0.2073
 8842TIP3   OH247940   3.450   3.571   3.113  0.5403 -0.0612  0.4494
 8842TIP3    H147941   3.369   3.573   3.164 -0.5262 -3.0036 -0.9043
 8842TIP3    H247942   3.516   3.536   3.173  0.7042  1.5756  1.3038
 8843TIP3   OH247943   0.864   1.828   1.523  0.0298  0.0300  0.1047
 8843TIP3    H147944   0.813   1.751   1.550 -0.2144  0.2033  0.1384
 8843TIP3    H247945   0.812   1.903   1.553  1.9950  0.2610  3.4240
 8844TIP3   OH247946   2.433   2.887  15.635 -0.6844  0.1636  0.0255
 8844TIP3    H147947   2.387   2.849  15.560 -0.5304  0.1793 -0.0774
 8844TIP3    H247948   2.496   2.948  15.596 -0.6913  0.2666  0.1737
 8845TIP3   OH247949   1.489   2.705   4.652 -0.0465 -0.5821 -0.2585
 8845TIP3    H147950   1.489   2.770   4.582 -0.3584 -0.9764 -0.6365
 8845TIP3    H247951   1.580   2.699   4.680 -0.3202  1.7099  1.4010
 8846TIP3   OH247952   2.442   5.147  13.237 -0.0508  0.0011  0.4916
 8846TIP3    H147953   2.419   5.154  13.144 -0.4244  0.0531  0.5850
 8846TIP3    H247954   2.364   5.109  13.278  0.6241 -1.4049  0.5567
 8847TIP3   OH247955   3.394   1.375   1.145  0.4335 -0.0659  0.1771
 8847TIP3    H147956   3.453   1.413   1.210 -0.6443  0.4135  0.9103
 8847TIP3    H247957   3.421   1.414   1.062  1.8258 -0.6826  0.3132
 8848TIP3   OH247958   2.730   2.825   1.681  0.1845  0.1154  0.0122
 8848TIP3    H147959   2.775   2.878   1.747  0.5841  0.0669 -0.2169
 8848TIP3    H247960   2.798   2.767   1.647 -0.0267  0.1118 -0.4149
 8849TIP3   OH247961   3.757   1.325   1.988 -0.0900  0.5763 -0.2289
 8849TIP3    H147962   3.750   1.237   1.950  0.0881 -0.5393  2.1426
 8849TIP3    H247963   3.680   1.371   1.955  0.2010 -0.1782 -2.1187
 8850TIP3   OH247964   3.668   1.533  14.193  0.1405  0.3075 -0.0767
 8850TIP3    H147965   3.678   1.486  14.276  0.2921 -0.4087 -0.4867
 8850TIP3    H247966   3.725   1.486  14.132  1.1427  1.6800 -0.2539
 8851TIP3   OH247967   4.970   0.408   0.471 -0.2834 -0.6445  0.1050
 8851TIP3    H147968   5.011   0.445   0.548  0.5137 -1.9486  0.3328
 8851TIP3    H247969   4.950   0.483   0.415  1.1219  0.1271  0.6120
 8852TIP3   OH247970   5.147   2.680   4.840 -0.0458  0.4426  0.2781
 8852TIP3    H147971   5.171   2.769   4.866  1.0920  0.1358  0.3304
 8852TIP3    H247972   5.110   2.641   4.919  0.8391  0.3966  0.6782
 8853TIP3   OH247973   0.603   6.711   5.014 -0.1080  0.3086  0.1992
 8853TIP3    H147974   0.601   6.686   5.106  0.7037 -2.2406 -0.4147
 8853TIP3    H247975   0.520   6.680   4.979 -0.2828  1.0039 -0.0230
 8854TIP3   OH247976   2.299   3.097   0.291  0.1572 -0.0442  0.6437
 8854TIP3    H147977   2.228   3.068   0.233  0.3255  1.7882 -0.5718
 8854TIP3    H247978   2.258   3.104   0.377  0.0300 -3.3618  0.9622
 8855TIP3   OH247979   0.733   0.461  15.077 -0.2892 -0.4971  0.2076
 8855TIP3    H147980   0.754   0.394  15.011  1.0676  0.3288 -0.2470
 8855TIP3    H247981   0.792   0.533  15.057 -1.7748  0.8961  0.6251
 8856TIP3   OH247982   4.091   3.552  12.314 -0.1814 -0.3498 -0.3038
 8856TIP3    H147983   4.121   3.595  12.234  0.3099 -2.5844 -1.3933
 8856TIP3    H247984   4.163   3.494  12.339 -1.2715 -1.4661  0.3892
 8857TIP3   OH247985   2.060   5.634   2.961 -0.0209  0.9273  0.0977
 8857TIP3    H147986   2.029   5.570   3.024 -0.3569  1.9295  0.9864
 8857TIP3    H247987   2.082   5.583   2.883 -1.2116 -0.1391  0.4304
 8858TIP3   OH247988   1.743   4.195   0.238  0.6580  0.0332  1.0109
 8858TIP3    H147989   1.732   4.287   0.215  1.0536 -0.5003 -1.6450
 8858TIP3    H247990   1.819   4.166   0.187 -1.5610 -2.5752 -1.1237
 8859TIP3   OH247991   1.153   4.211   5.159  0.3568 -0.0072  0.1309
 8859TIP3    H147992   1.174   4.298   5.127 -0.0011 -0.2744 -0.8805
 8859TIP3    H247993   1.069   4.190   5.118 -0.2446 -0.2759  1.4694
 8860TIP3   OH247994   1.382   2.414   2.097 -0.0969 -0.4301  0.5901
 8860TIP3    H147995   1.320   2.379   2.034 -0.1807  0.6261  0.0574
 8860TIP3    H247996   1.356   2.377   2.181 -1.4580  0.0102  0.3744
 8861TIP3   OH247997   6.666   5.873  16.350 -0.5842 -0.0129  0.0398
 8861TIP3    H147998   6.576   5.845  16.370 -0.9016  0.5475 -0.5644
 8861TIP3    H247999   6.662   5.903  16.259 -0.0323  0.9960  0.3276
 8862TIP3   OH248000   4.145   1.218   3.366 -0.2773  0.3029  0.0308
 8862TIP3    H148001   4.113   1.242   3.279 -0.7520  2.3020  0.7028
 8862TIP3    H248002   4.123   1.125   3.374 -0.0947  0.0255 -2.0214
 8863TIP3   OH248003   3.968   6.439   2.130  0.1554 -0.8868 -0.6539
 8863TIP3    H148004   3.954   6.344   2.133  0.1314 -0.8644  0.2287
 8863TIP3    H248005   3.899   6.472   2.073  0.9716 -1.5319 -2.0791
 8864TIP3   OH248006   4.591   6.061  12.973 -0.1398  0.4562 -0.1077
 8864TIP3    H148007   4.500   6.048  12.947  0.4923 -0.1243 -2.2570
 8864TIP3    H248008   4.606   6.155  12.964 -0.4900  0.5299  0.0927
 8865TIP3   OH248009   5.068   0.725  14.228 -0.6157  0.4664 -0.3597
 8865TIP3    H148010   4.988   0.760  14.190 -0.2768  1.0492 -0.5420
 8865TIP3    H248011   5.077   0.638  14.188 -2.1013 -0.3726  1.0048
 8866TIP3   OH248012   2.552   4.106  16.032 -0.0020 -0.0329  0.0680
 8866TIP3    H148013   2.558   4.179  15.970  0.9783  0.3124  0.5491
 8866TIP3    H248014   2.521   4.145  16.113  2.0677  0.1921  0.8084
 8867TIP3   OH248015   5.486   4.791  15.185 -0.1175  0.2032 -0.0663
 8867TIP3    H148016   5.535   4.861  15.227  0.7643 -0.4708  0.0571
 8867TIP3    H248017   5.529   4.778  15.100 -1.0367  0.6341 -0.6126
 8868TIP3   OH248018   1.914   2.984   3.529 -0.0352 -0.3839  0.2327
 8868TIP3    H148019   1.900   2.897   3.566 -1.6413 -1.7397 -3.0575
 8868TIP3    H248020   1.827   3.024   3.528  0.3068  0.3743 -0.2513
 8869TIP3   OH248021   4.919   3.899   5.870  0.1998  0.1718 -0.2402
 8869TIP3    H148022   4.907   3.966   5.938  1.6534 -0.3390  0.5635
 8869TIP3    H248023   4.876   3.821   5.906  0.9542 -0.0941  0.0945
 8870TIP3   OH248024   0.350   5.085   4.870  0.0221 -0.6528  0.7629
 8870TIP3    H148025   0.267   5.086   4.916 -0.7933  1.9079 -0.5728
 8870TIP3    H248026   0.371   5.177   4.857  1.5637 -1.2551 -1.5389
 8871TIP3   OH248027   3.796   2.368  11.575  0.4424 -0.3709  0.4441
 8871TIP3    H148028   3.777   2.437  11.639  0.2798 -0.4811  0.5141
 8871TIP3    H248029   3.849   2.412  11.508 -0.9137  0.1951 -0.2846
 8872TIP3   OH248030   3.140   0.075   3.135  0.1362  0.7232  0.0454
 8872TIP3    H148031   3.046   0.087   3.141  0.0565 -0.5002  2.9778
 8872TIP3    H248032   3.155   0.039   3.048 -2.1678  0.2902 -0.2195
 8873TIP3   OH248033   3.483   4.933   2.452  0.2689 -0.0594 -0.4881
 8873TIP3    H148034   3.414   4.867   2.448  0.8884 -0.8342  0.7006
 8873TIP3    H248035   3.546   4.906   2.386 -0.2074  0.2474 -1.0816
 8874TIP3   OH248036   2.283   1.814  17.395  0.2965 -0.3800  0.0174
 8874TIP3    H148037   2.279   1.763  17.314  0.6891  1.9188 -1.5534
 8874TIP3    H248038   2.193   1.816  17.427 -0.7811  2.0481 -2.6996
 8875TIP3   OH248039   4.706   6.471  12.505 -0.2723 -0.1793 -0.5553
 8875TIP3    H148040   4.784   6.420  12.526  0.0104  0.5720  0.2624
 8875TIP3    H248041   4.643   6.407  12.472 -0.0203 -1.0954  0.7003
 8876TIP3   OH248042   1.843   5.957   0.648  0.4161 -0.0710  0.4402
 8876TIP3    H148043   1.759   5.957   0.695  0.6485 -0.4000  0.8681
 8876TIP3    H248044   1.849   6.044   0.609  0.5712  0.4906  1.6729
 8877TIP3   OH248045   4.220   4.527  15.215 -0.0713 -0.5338  0.3192
 8877TIP3    H148046   4.196   4.616  15.241 -1.7271 -0.4310 -1.2927
 8877TIP3    H248047   4.250   4.536  15.124 -2.1405 -1.7943 -0.5761
 8878TIP3   OH248048   1.320   5.821  12.463 -0.2680  0.3983  0.4109
 8878TIP3    H148049   1.258   5.749  12.455  1.1657 -0.7812 -0.6251
 8878TIP3    H248050   1.265   5.900  12.472 -1.9234 -0.4234 -1.7424
 8879TIP3   OH248051   3.746   2.712   2.285  0.2671  0.2173  0.2269
 8879TIP3    H148052   3.732   2.747   2.197  1.9224  1.1604  0.2975
 8879TIP3    H248053   3.835   2.738   2.307  0.8844 -2.3510  1.1127
 8880TIP3   OH248054   0.914   0.167   0.454 -0.2568  0.5847  0.1109
 8880TIP3    H148055   0.998   0.120   0.453 -0.1763  0.7361 -0.5138
 8880TIP3    H248056   0.895   0.185   0.362 -0.5403  1.3337  0.3084
 8881TIP3   OH248057   0.415   1.460   1.571 -0.7918  0.4457  0.1591
 8881TIP3    H148058   0.365   1.487   1.648 -0.1529  2.6468 -0.1409
 8881TIP3    H248059   0.436   1.541   1.526 -0.0161 -0.6967 -1.6560
 8882TIP3   OH248060   4.572   2.291   1.349  0.0619 -0.3034 -0.7081
 8882TIP3    H148061   4.477   2.288   1.361  0.0989  0.0818 -0.2970
 8882TIP3    H248062   4.592   2.384   1.341  0.2062 -0.4445 -2.5107
 8883TIP3   OH248063   6.362   3.678   5.363 -0.3531  0.7764 -0.3374
 8883TIP3    H148064   6.436   3.624   5.334 -0.6972 -0.5999  1.1872
 8883TIP3    H248065   6.398   3.729   5.436 -0.5818  0.9971 -0.3804
 8884TIP3   OH248066   3.788   0.195  14.934 -0.0104  0.5467 -0.4660
 8884TIP3    H148067   3.740   0.224  15.012  0.1523 -1.3305  0.3893
 8884TIP3    H248068   3.872   0.162  14.968 -0.0398 -0.5535 -1.3838
 8885TIP3   OH248069   5.416   4.277   0.813  0.0308  0.3522 -0.3527
 8885TIP3    H148070   5.384   4.234   0.892 -2.2011 -2.8045 -2.7195
 8885TIP3    H248071   5.352   4.346   0.795  0.0641  0.5017  0.0769
 8886TIP3   OH248072   0.317   4.784   5.406 -0.0701 -0.3963 -0.1722
 8886TIP3    H148073   0.291   4.693   5.418 -0.1378 -0.4354 -0.5793
 8886TIP3    H248074   0.328   4.793   5.311  1.3081 -0.3442 -0.0247
 8887TIP3   OH248075   0.318   5.709  15.684 -0.3707  0.8631  0.7405
 8887TIP3    H148076   0.392   5.648  15.686 -0.4546  0.6803 -0.7402
 8887TIP3    H248077   0.263   5.683  15.758  0.4210  0.2272  1.1238
 8888TIP3   OH248078   5.456   4.105   5.809  0.0368 -0.6345  0.1804
 8888TIP3    H148079   5.472   4.052   5.887  1.0225 -0.4677  0.1099
 8888TIP3    H248080   5.445   4.042   5.738 -0.4853 -0.7778  0.3841
 8889TIP3   OH248081   1.719   5.184  17.358  0.5153  0.1443  0.4255
 8889TIP3    H148082   1.762   5.212  17.277 -2.1382  1.4421 -0.6439
 8889TIP3    H248083   1.633   5.225  17.355 -0.6769 -1.9455  2.6618
 8890TIP3   OH248084   1.897   2.200   4.238  0.8372  0.7490 -0.3430
 8890TIP3    H148085   1.849   2.191   4.320 -0.1623 -0.2775 -1.0090
 8890TIP3    H248086   1.846   2.262   4.187 -0.4553 -1.0952 -1.4504
 8891TIP3   OH248087   6.647   0.281   6.723 -0.7242  0.2169  0.3831
 8891TIP3    H148088   6.640   0.374   6.747 -1.4571  0.2084  0.2212
 8891TIP3    H248089   6.737   0.270   6.694 -0.7546  0.9806 -0.0130
 8892TIP3   OH248090   6.677   2.125  12.669 -0.5551  0.0129  0.0715
 8892TIP3    H148091   6.698   2.112  12.577 -0.5429 -1.1827  0.2248
 8892TIP3    H248092   6.611   2.194  12.670 -0.4335  0.1442 -0.8112
 8893TIP3   OH248093   4.106   2.913  15.927 -0.1601 -0.1018  0.1555
 8893TIP3    H148094   4.108   2.818  15.911  0.0756 -0.0565 -0.0959
 8893TIP3    H248095   4.188   2.945  15.890 -2.4293  0.9775 -4.6455
 8894TIP3   OH248096   3.626   4.945   0.547 -0.2048  0.2383  0.3769
 8894TIP3    H148097   3.697   4.965   0.486 -1.3266  1.1828 -0.6822
 8894TIP3    H248098   3.549   4.984   0.507 -1.3317 -0.7526  1.4966
 8895TIP3   OH248099   0.594   4.698  15.321 -0.8397  0.1854  1.0269
 8895TIP3    H148100   0.677   4.720  15.278  0.9111 -0.1652  3.9557
 8895TIP3    H248101   0.527   4.729  15.260  1.3795 -0.1344 -1.8006
 8896TIP3   OH248102   5.820   4.522  14.216  0.3635  0.5897  0.1067
 8896TIP3    H148103   5.756   4.586  14.248 -2.7411 -2.3877  0.4948
 8896TIP3    H248104   5.784   4.493  14.132  1.9583 -0.2788 -0.3106
 8897TIP3   OH248105   3.867   3.349   0.932  0.0040  0.2165 -0.1786
 8897TIP3    H148106   3.865   3.343   1.027  1.6959  1.1462 -0.0522
 8897TIP3    H248107   3.788   3.398   0.909 -0.2148  0.3234  0.7624
 8898TIP3   OH248108   5.293   3.693   1.498  0.3214  0.0889 -0.0314
 8898TIP3    H148109   5.205   3.657   1.511  0.5479 -0.4829 -0.0548
 8898TIP3    H248110   5.325   3.710   1.587  0.8534 -1.3436  0.0716
 8899TIP3   OH248111   6.199   3.629   3.537 -0.2568 -0.4979 -0.3113
 8899TIP3    H148112   6.105   3.612   3.525 -0.5244  1.1895 -0.8240
 8899TIP3    H248113   6.204   3.679   3.618  0.0605  0.4360 -0.8941
 8900TIP3   OH248114   2.586   5.842   5.649  0.4746 -0.0398  0.8794
 8900TIP3    H148115   2.523   5.819   5.580  1.5310 -1.5259  0.3801
 8900TIP3    H248116   2.559   5.789   5.724 -0.4770  1.3401  1.5670
 8901TIP3   OH248117   1.182   2.643   0.324 -0.1032 -0.2119  0.4170
 8901TIP3    H148118   1.102   2.656   0.274  0.0705  0.6459  0.3547
 8901TIP3    H248119   1.165   2.564   0.376 -0.3173 -1.0453 -0.8940
 8902TIP3   OH248120   4.240   2.745  13.346  0.2155  0.2191  0.0489
 8902TIP3    H148121   4.218   2.800  13.271 -1.3759  0.0974  0.3971
 8902TIP3    H248122   4.159   2.737  13.395  1.1785  0.1134  1.6884
 8903TIP3   OH248123   1.279   0.145  15.250 -0.1570 -0.4484 -0.0402
 8903TIP3    H148124   1.189   0.125  15.276 -0.0616  0.1685  0.8029
 8903TIP3    H248125   1.275   0.234  15.215 -0.2506 -1.2056 -2.0416
 8904TIP3   OH248126   3.748   4.151  17.029 -0.2474  0.1421  0.4958
 8904TIP3    H148127   3.811   4.188  16.968 -0.3875  1.0331  0.8773
 8904TIP3    H248128   3.689   4.223  17.051  0.5780  0.2510  2.6858
 8905TIP3   OH248129   4.729   3.958  10.984 -0.5589  0.2402  0.0860
 8905TIP3    H148130   4.797   3.936  10.920 -0.1171 -0.7910  0.8907
 8905TIP3    H248131   4.651   3.976  10.931 -0.6620 -2.1942 -0.7028
 8906TIP3   OH248132   1.282   2.897  11.813 -0.1237  0.1743  0.5799
 8906TIP3    H148133   1.376   2.899  11.833  0.3871  2.8940 -1.4279
 8906TIP3    H248134   1.279   2.888  11.717 -1.9307 -0.0814  0.6398
 8907TIP3   OH248135   6.266   6.041  11.737  0.2012 -0.3116  0.0174
 8907TIP3    H148136   6.358   6.064  11.754  0.4995 -0.0791 -1.6860
 8907TIP3    H248137   6.223   6.049  11.822  1.3170  1.7687  0.4520
 8908TIP3   OH248138   2.993   3.423   0.561  0.0715  0.2696  0.4900
 8908TIP3    H148139   2.951   3.466   0.487  0.0835 -0.2770  0.1609
 8908TIP3    H248140   3.081   3.401   0.530 -0.5450 -1.6700  0.0009
 8909TIP3   OH248141   2.540   1.000   0.296  0.0005 -0.2887  0.0433
 8909TIP3    H148142   2.530   1.092   0.271 -1.3018 -0.7386 -1.2456
 8909TIP3    H248143   2.633   0.981   0.279  0.7101  1.1753  1.9087
 8910TIP3   OH248144   3.950   5.856  16.938  0.0397 -0.1355  0.2614
 8910TIP3    H148145   4.019   5.914  16.970 -0.5217  0.0010  1.2737
 8910TIP3    H248146   3.982   5.768  16.958  0.2250 -0.1072  0.0931
 8911TIP3   OH248147   0.804   3.637  17.369  0.1704 -0.2754  0.2093
 8911TIP3    H148148   0.822   3.637  17.275 -0.5313 -1.8623  0.0357
 8911TIP3    H248149   0.756   3.718  17.385  0.2880  0.0026 -0.8085
 8912TIP3   OH248150   3.922   2.100   4.037  0.0955  0.4714  0.0919
 8912TIP3    H148151   3.830   2.073   4.037  0.5615 -1.3018 -1.3659
 8912TIP3    H248152   3.949   2.093   3.946  1.4423  1.9162  0.3339
 8913TIP3   OH248153   2.332   2.911   1.303 -0.6859  0.2670 -0.3983
 8913TIP3    H148154   2.251   2.925   1.351 -0.5881 -0.3682 -0.0402
 8913TIP3    H248155   2.377   2.841   1.350 -0.4776 -0.2055 -1.2715
 8914TIP3   OH248156   1.711   1.909   2.330  0.3255 -0.2270 -0.4458
 8914TIP3    H148157   1.677   1.890   2.242  2.0241  3.4888 -2.1458
 8914TIP3    H248158   1.799   1.871   2.330  0.6296  0.4546 -0.7155
 8915TIP3   OH248159   0.398   0.553   1.011 -0.3372 -0.1196 -0.0384
 8915TIP3    H148160   0.373   0.491   1.080  0.0536  0.3147  0.5055
 8915TIP3    H248161   0.381   0.639   1.048 -0.4051  0.1135 -0.6018
 8916TIP3   OH248162   4.158   2.229  16.968 -0.0516 -0.4923  0.2726
 8916TIP3    H148163   4.109   2.147  16.979  0.5455 -1.3180 -2.4726
 8916TIP3    H248164   4.090   2.296  16.962 -0.5500 -0.7065  2.6656
 8917TIP3   OH248165   2.211   6.699  14.729  0.2318 -1.1038 -0.9246
 8917TIP3    H148166   2.226   6.774  14.786 -1.2283 -3.1427  2.4625
 8917TIP3    H248167   2.271   6.713  14.656  0.9607  2.6379  0.1423
 8918TIP3   OH248168   2.836   1.792   1.560  0.6812  0.3975 -0.3398
 8918TIP3    H148169   2.930   1.791   1.541  0.7128  1.3251 -0.3228
 8918TIP3    H248170   2.822   1.877   1.603  0.1025 -0.3591  1.0454
 8919TIP3   OH248171   4.778   0.351   0.109 -0.1269  0.1811 -0.3298
 8919TIP3    H148172   4.798   0.424   0.167 -0.6401 -0.9473  1.3538
 8919TIP3    H248173   4.844   0.285   0.131 -1.2871 -0.8579  0.1592
 8920TIP3   OH248174   4.009   6.635   0.898 -0.9114 -0.2956  0.2366
 8920TIP3    H148175   3.946   6.675   0.957  1.1716  0.1123  2.3513
 8920TIP3    H248176   4.007   6.542   0.920 -2.3515 -0.6686 -1.3198
 8921TIP3   OH248177   0.529   6.028   6.324 -0.6193 -0.1297  1.0425
 8921TIP3    H148178   0.471   5.957   6.351  1.3343 -1.8171  0.9815
 8921TIP3    H248179   0.597   5.986   6.272  0.3373  1.8704  0.5499
 8922TIP3   OH248180   4.611   3.713  12.971  0.4231  0.3644 -0.3889
 8922TIP3    H148181   4.659   3.736  12.892 -0.5910 -1.5976 -1.6607
 8922TIP3    H248182   4.558   3.790  12.991  1.0787  1.0696 -1.2927
 8923TIP3   OH248183   0.914   6.532   2.862 -0.1791 -0.1280  0.5883
 8923TIP3    H148184   0.858   6.455   2.873  0.7261 -0.9179 -0.2263
 8923TIP3    H248185   0.880   6.576   2.784 -0.5097  0.1438  0.8823
 8924TIP3   OH248186   6.162   4.328   0.523  0.2293  0.2717  0.1211
 8924TIP3    H148187   6.198   4.322   0.435 -1.6334  0.9339 -0.7463
 8924TIP3    H248188   6.119   4.414   0.525 -1.1516 -0.4043  1.0897
 8925TIP3   OH248189   5.819   6.461  16.561 -0.1494  0.5758  0.6170
 8925TIP3    H148190   5.829   6.413  16.643  0.0840  1.3972  1.0709
 8925TIP3    H248191   5.895   6.434  16.508  0.0216  0.5061  0.8981
 8926TIP3   OH248192   4.443   0.596  13.088 -0.4324  0.6549  0.3375
 8926TIP3    H148193   4.529   0.585  13.049 -0.6256  0.1788  0.0292
 8926TIP3    H248194   4.396   0.516  13.065 -0.9208  0.8628  0.5906
 8927TIP3   OH248195   5.709   3.220  13.902  0.4929 -0.6706  0.1083
 8927TIP3    H148196   5.647   3.241  13.832  1.1561 -2.8078 -1.2032
 8927TIP3    H248197   5.707   3.125  13.909  2.6131 -0.7080  0.9724
 8928TIP3   OH248198   4.060   2.187   2.020 -0.3094  0.2204 -0.4592
 8928TIP3    H148199   4.118   2.128   1.971 -2.3931 -3.3127  0.9969
 8928TIP3    H248200   3.973   2.169   1.985 -1.1419  1.9180  0.6222
 8929TIP3   OH248201   6.444   5.445  16.910 -1.0024 -0.4313  0.2496
 8929TIP3    H148202   6.440   5.456  17.005 -1.4408  1.8604  0.0209
 8929TIP3    H248203   6.529   5.403  16.895 -0.5338 -0.0217  1.5966
 8930TIP3   OH248204   0.034   2.409  11.962  0.6508 -0.0183 -1.0807
 8930TIP3    H148205   0.050   2.436  11.871  1.8567  0.5294 -0.7289
 8930TIP3    H248206  -0.037   2.465  11.991  0.5449  0.1031 -1.5538
 8931TIP3   OH248207   2.670   4.544  12.653  0.1336 -0.5097 -0.1968
 8931TIP3    H148208   2.611   4.524  12.726 -0.5307 -1.1140 -0.8888
 8931TIP3    H248209   2.753   4.565  12.695  0.0737 -1.9575  0.6941
 8932TIP3   OH248210   1.515   3.542  11.392  0.0900  0.1546 -0.3884
 8932TIP3    H148211   1.457   3.617  11.401  1.3329  1.0370  0.7510
 8932TIP3    H248212   1.599   3.581  11.367  0.9248 -0.7707  0.8810
 8933TIP3   OH248213   2.762   0.151  14.733  0.4845  0.3812 -0.6832
 8933TIP3    H148214   2.855   0.137  14.715  1.4158 -0.3051  3.5661
 8933TIP3    H248215   2.758   0.239  14.769 -0.0096 -0.4503  1.4241
 8934TIP3   OH248216   4.844   5.027  13.357  0.0481 -0.2716 -0.2780
 8934TIP3    H148217   4.849   5.099  13.420  1.5754 -1.9650  1.6915
 8934TIP3    H248218   4.800   4.957  13.405  0.1792 -1.2382 -1.5350
 8935TIP3   OH248219   3.932   4.951  11.471 -0.0491 -0.4886  0.1857
 8935TIP3    H148220   4.017   4.993  11.483  0.0543 -0.0622 -1.7442
 8935TIP3    H248221   3.938   4.871  11.523  0.7164  0.5734  1.8028
 8936TIP3   OH248222   0.227   1.888   0.571  0.0229 -0.1141 -0.5543
 8936TIP3    H148223   0.308   1.939   0.579  0.3019 -0.6549  0.2139
 8936TIP3    H248224   0.240   1.835   0.492  0.7611 -0.7754 -0.0040
 8937TIP3   OH248225   3.349   6.525   1.291 -0.3854 -0.6336  0.1216
 8937TIP3    H148226   3.329   6.588   1.361  0.7454 -1.4100  1.1681
 8937TIP3    H248227   3.406   6.461   1.332  0.9315 -0.7025 -1.7161
 8938TIP3   OH248228   3.383   4.541  10.498 -0.2381  0.2354 -0.1686
 8938TIP3    H148229   3.399   4.635  10.508  0.0499  0.1180  0.5100
 8938TIP3    H248230   3.463   4.508  10.457  0.0197  0.1509  0.3908
 8939TIP3   OH248231   1.142   0.039   4.277  0.4380 -0.3459 -0.0540
 8939TIP3    H148232   1.190   0.080   4.205 -1.2292 -1.2269 -1.7635
 8939TIP3    H248233   1.090   0.110   4.315  2.4672  0.4680  1.3973
 8940TIP3   OH248234   2.857   2.541  10.881 -0.1603 -0.2519  0.4367
 8940TIP3    H148235   2.868   2.458  10.928  1.7225  0.2381  0.9605
 8940TIP3    H248236   2.806   2.596  10.942 -0.2964 -0.5917  0.6348
 8941TIP3   OH248237   3.522   0.931   4.612 -0.6511  0.2307  0.0024
 8941TIP3    H148238   3.518   1.008   4.668 -0.9105 -0.7616  1.4100
 8941TIP3    H248239   3.448   0.940   4.553 -0.6102  1.1047  0.0702
 8942TIP3   OH248240   3.069   0.473   5.356 -0.2119  0.2319 -0.5052
 8942TIP3    H148241   3.079   0.426   5.273  0.5072  1.8768 -1.3904
 8942TIP3    H248242   3.111   0.557   5.341  0.6113  0.3023  1.7806
 8943TIP3   OH248243   3.034   1.344   1.826  0.3310  0.1455  0.1878
 8943TIP3    H148244   3.046   1.363   1.919  0.6351  0.9294 -0.0039
 8943TIP3    H248245   3.123   1.336   1.792  0.2988  1.9332 -0.4338
 8944TIP3   OH248246   1.222   1.360   2.597  0.4926  0.1950 -0.2527
 8944TIP3    H148247   1.287   1.299   2.562  0.9575 -0.0882  1.0422
 8944TIP3    H248248   1.158   1.305   2.642 -0.0108  0.5563 -0.5058
 8945TIP3   OH248249   3.629   6.413  13.788 -0.1477 -0.4508  0.2330
 8945TIP3    H148250   3.575   6.399  13.865 -0.5220 -0.7846 -0.0860
 8945TIP3    H248251   3.694   6.343  13.791 -0.8833 -1.1728 -0.3748
 8946TIP3   OH248252   0.303   3.341  12.546 -0.7465  0.7158  0.5663
 8946TIP3    H148253   0.375   3.352  12.608 -0.8111  0.3229  0.7189
 8946TIP3    H248254   0.246   3.276  12.588 -0.0529 -0.6646 -0.5329
 8947TIP3   OH248255   2.229   5.071  16.054 -0.0810  0.2699  0.3781
 8947TIP3    H148256   2.228   5.005  15.984 -1.9616  0.1295  0.4912
 8947TIP3    H248257   2.142   5.110  16.051 -0.0183  0.6389  2.2905
 8948TIP3   OH248258   6.743   5.876   5.186 -0.7402 -0.2340  0.6982
 8948TIP3    H148259   6.657   5.894   5.222 -0.7729 -1.5255  1.3071
 8948TIP3    H248260   6.744   5.921   5.101 -0.4614  3.3642  2.4406
 8949TIP3   OH248261   2.152   5.282   3.561  0.0391 -0.1718 -0.7232
 8949TIP3    H148262   2.113   5.270   3.648  0.7550 -0.3530 -0.4224
 8949TIP3    H248263   2.110   5.361   3.526 -1.0795 -0.7297 -0.6810
 8950TIP3   OH248264   5.406   5.598  12.174 -0.2470 -0.0900 -0.3049
 8950TIP3    H148265   5.332   5.544  12.145 -0.1939  0.8386 -2.4103
 8950TIP3    H248266   5.476   5.535  12.189 -0.8365 -0.8039 -0.4445
 8951TIP3   OH248267   1.879   6.480   3.862  0.5034 -0.0054  0.1117
 8951TIP3    H148268   1.800   6.490   3.916  0.8326 -1.1046  0.8481
 8951TIP3    H248269   1.935   6.422   3.914  2.9299  2.7461  0.8560
 8952TIP3   OH248270   0.890   5.218   3.920 -0.6852 -0.3281  0.1394
 8952TIP3    H148271   0.951   5.218   3.994  0.1144  0.2299 -0.5020
 8952TIP3    H248272   0.898   5.130   3.884  0.6830  0.0921 -0.6677
 8953TIP3   OH248273   4.520   5.407  11.468  0.8101 -0.0535 -0.6123
 8953TIP3    H148274   4.560   5.491  11.487  0.9741  0.0503 -1.3786
 8953TIP3    H248275   4.591   5.343  11.478  0.2673 -0.3635  1.8223
 8954TIP3   OH248276   3.184   4.473  14.583 -0.5753  0.1061 -0.6452
 8954TIP3    H148277   3.115   4.406  14.579 -1.8541  1.3211  0.3325
 8954TIP3    H248278   3.149   4.540  14.642  0.7168  1.5871 -1.5045
 8955TIP3   OH248279   3.317   5.551  15.891  0.4438  0.2690 -0.3018
 8955TIP3    H148280   3.228   5.579  15.869  1.2450  2.6872 -0.8595
 8955TIP3    H248281   3.326   5.570  15.985  1.0482  2.3618 -0.7162
 8956TIP3   OH248282   4.970   4.229  16.675  0.3613 -0.0323  0.8909
 8956TIP3    H148283   5.016   4.241  16.592  0.1138 -1.1321  0.5912
 8956TIP3    H248284   4.995   4.142  16.705 -2.0371 -0.9600  0.3777
 8957TIP3   OH248285   4.427   3.294  13.140 -0.4358  0.1454  0.1076
 8957TIP3    H148286   4.382   3.352  13.079 -0.1088 -1.5084 -1.8271
 8957TIP3    H248287   4.459   3.351  13.210 -1.8103  1.9557 -0.6877
 8958TIP3   OH248288   4.478   2.222   6.264 -0.0272 -0.7977  0.4416
 8958TIP3    H148289   4.567   2.203   6.236 -0.1770 -1.5214  0.4305
 8958TIP3    H248290   4.481   2.312   6.296  1.0726 -1.3591  1.9881
 8959TIP3   OH248291   4.546   2.009   3.374 -0.1364  0.4891 -0.1757
 8959TIP3    H148292   4.579   2.031   3.461 -1.2584  1.5001  0.0069
 8959TIP3    H248293   4.624   1.980   3.326  0.8054  1.6662  0.6013
 8960TIP3   OH248294   5.351   6.671   3.269 -0.5186  0.7680 -0.2543
 8960TIP3    H148295   5.345   6.699   3.360 -0.5722  0.2162 -0.0829
 8960TIP3    H248296   5.420   6.605   3.269 -1.7303 -0.5629 -0.2589
 8961TIP3   OH248297   3.315   1.646   0.141 -0.1033 -0.0092 -0.2946
 8961TIP3    H148298   3.258   1.578   0.178 -0.3679  1.2019  1.6152
 8961TIP3    H248299   3.402   1.605   0.138 -1.0109 -2.1525 -3.9445
 8962TIP3   OH248300   5.249   0.007   0.669 -0.0213  0.3874  0.0224
 8962TIP3    H148301   5.246   0.009   0.764 -0.4003 -1.0785  0.0747
 8962TIP3    H248302   5.160  -0.018   0.643  0.5590 -1.2079 -0.5872
 8963TIP3   OH248303   6.546   3.651  16.140  0.0820 -0.2459  0.2370
 8963TIP3    H148304   6.590   3.566  16.145 -4.6267 -2.9974  1.2627
 8963TIP3    H248305   6.493   3.646  16.060 -0.9512  1.3683  0.7727
 8964TIP3   OH248306   3.377   5.879  14.281  0.1294 -0.2823  0.1276
 8964TIP3    H148307   3.304   5.834  14.324 -0.2621  1.1584  1.0627
 8964TIP3    H248308   3.438   5.900  14.352  0.7702 -0.2225 -0.4337
 8965TIP3   OH248309   3.368   5.460  13.673 -0.1954 -0.2272  0.2275
 8965TIP3    H148310   3.347   5.454  13.580  1.8757  0.3869 -0.3366
 8965TIP3    H248311   3.298   5.515  13.710 -0.0231  1.1449 -1.3621
 8966TIP3   OH248312   2.792   1.225   3.154  0.0831  0.1488  0.0540
 8966TIP3    H148313   2.775   1.265   3.239 -1.9750  0.4725 -0.4714
 8966TIP3    H248314   2.743   1.143   3.156  0.9229 -0.3834 -0.4332
 8967TIP3   OH248315   2.126   0.496  17.243 -0.0622 -0.1072 -0.1709
 8967TIP3    H148316   2.170   0.412  17.245 -1.4500 -0.9033 -1.1667
 8967TIP3    H248317   2.131   0.528  17.333  1.9037 -0.4583 -0.1114
 8968TIP3   OH248318   5.417   5.116  13.630  0.1361 -0.0409 -0.4207
 8968TIP3    H148319   5.506   5.116  13.596 -0.9199 -1.8309 -3.6466
 8968TIP3    H248320   5.361   5.108  13.552 -2.8675  0.8066  1.4520
 8969TIP3   OH248321   4.628   4.166  13.802 -0.1199  0.8974 -0.3000
 8969TIP3    H148322   4.581   4.133  13.726  0.4133 -1.1347  0.2082
 8969TIP3    H248323   4.718   4.137  13.791 -0.6320 -2.5123  2.6298
 8970TIP3   OH248324   2.796   5.771  16.896 -0.2962  0.9418 -0.1763
 8970TIP3    H148325   2.889   5.752  16.904 -0.2958  0.4441 -1.1645
 8970TIP3    H248326   2.756   5.734  16.974 -0.3911 -3.9044 -2.1916
 8971TIP3   OH248327   2.352   3.209   5.015  0.0028 -0.1409  0.1637
 8971TIP3    H148328   2.331   3.137   4.955 -0.1515  0.7240 -0.8516
 8971TIP3    H248329   2.279   3.270   5.005  0.1543  0.1865  0.9818
 8972TIP3   OH248330   1.655   0.935  11.296  0.3300  0.0733  0.5401
 8972TIP3    H148331   1.663   0.890  11.212 -0.7223  2.0119 -0.6757
 8972TIP3    H248332   1.732   0.908  11.346  0.2364 -2.2574 -0.4654
 8973TIP3   OH248333   4.665   3.912  12.368 -0.1747  0.6657 -0.1447
 8973TIP3    H148334   4.645   4.000  12.400 -0.4552 -0.5136  3.2692
 8973TIP3    H248335   4.587   3.886  12.319 -1.8203  0.9372  2.1523
 8974TIP3   OH248336   6.009   5.960  13.393 -0.0742  0.3478  0.7133
 8974TIP3    H148337   5.966   6.044  13.381  0.9812  1.3387  3.2611
 8974TIP3    H248338   5.946   5.907  13.441  0.0449  0.4019  0.9291
 8975TIP3   OH248339   5.323   2.422   2.070  0.2262 -0.6964 -0.2411
 8975TIP3    H148340   5.241   2.407   2.025 -0.5727  1.8785  0.1852
 8975TIP3    H248341   5.316   2.372   2.151 -1.2776  0.0916  0.1370
 8976TIP3   OH248342   3.293   2.407   3.492  0.4518 -0.1740  0.7055
 8976TIP3    H148343   3.225   2.431   3.554  0.7817  2.0280  0.3016
 8976TIP3    H248344   3.297   2.480   3.431  1.5031 -1.3643 -0.7464
 8977TIP3   OH248345   1.581   4.160  10.747  0.0300 -0.3581 -0.3382
 8977TIP3    H148346   1.609   4.212  10.822  0.4588 -2.7996  1.2862
 8977TIP3    H248347   1.489   4.184  10.734 -0.1811 -0.2132  1.2580
 8978TIP3   OH248348   4.191   5.364   1.775  0.2628 -0.3269  0.2064
 8978TIP3    H148349   4.217   5.282   1.734  1.3415 -1.2812  2.6268
 8978TIP3    H248350   4.267   5.421   1.766  0.0503 -0.0924 -0.1582
 8979TIP3   OH248351   2.898   5.497  14.885 -0.1592 -0.0237  0.0584
 8979TIP3    H148352   2.917   5.451  14.803 -1.1950  0.4436 -0.4592
 8979TIP3    H248353   2.984   5.507  14.927  0.7478  1.7593 -2.0353
 8980TIP3   OH248354   2.359   0.497  14.192  0.0083 -0.3629 -0.6903
 8980TIP3    H148355   2.370   0.531  14.103 -1.1004  0.9933 -0.3455
 8980TIP3    H248356   2.446   0.501  14.230 -0.1346  2.9023 -0.4390
 8981TIP3   OH248357   5.177   1.847  10.548  0.5753 -0.3465 -0.2023
 8981TIP3    H148358   5.086   1.876  10.556  0.3614 -1.3033  1.2204
 8981TIP3    H248359   5.183   1.812  10.459 -1.3366 -2.9948  0.5835
 8982TIP3   OH248360   1.657   5.160  12.760  0.4751 -0.1971 -0.0110
 8982TIP3    H148361   1.568   5.131  12.742  0.8205 -0.6570 -1.0870
 8982TIP3    H248362   1.689   5.101  12.828  0.0468 -0.1861  0.2004
 8983TIP3   OH248363   6.184   2.330   0.903  0.2557  0.5272  0.6163
 8983TIP3    H148364   6.260   2.332   0.961  0.4710  0.3813  0.3404
 8983TIP3    H248365   6.109   2.316   0.961  0.6356 -1.3306  0.7019
 8984TIP3   OH248366   3.088   6.003   4.886 -0.5966 -0.3354  0.1435
 8984TIP3    H148367   3.158   5.948   4.920 -0.3899  0.1353  0.4965
 8984TIP3    H248368   3.131   6.060   4.822 -0.8183 -0.6135 -0.2601
 8985TIP3   OH248369   5.329   4.147  16.645  0.0857  0.3255  0.1605
 8985TIP3    H148370   5.318   4.116  16.735  3.3436 -1.2287  0.1725
 8985TIP3    H248371   5.364   4.236  16.655 -0.0553  0.3527  0.4154
 8986TIP3   OH248372   3.565   0.557   5.317 -0.6881 -0.3769  0.6976
 8986TIP3    H148373   3.594   0.640   5.355 -0.9692 -0.4878  1.1580
 8986TIP3    H248374   3.595   0.561   5.226  1.8804 -0.9962  1.4428
 8987TIP3   OH248375   2.295   1.322   4.959  0.7335  0.4405 -0.7590
 8987TIP3    H148376   2.209   1.348   4.992  1.1302  2.7488 -1.3657
 8987TIP3    H248377   2.280   1.238   4.915 -0.6503 -0.5172  1.3901
 8988TIP3   OH248378   2.176   0.300   0.819  0.5605 -0.3196  0.3145
 8988TIP3    H148379   2.194   0.392   0.836  1.0731 -0.2095 -0.7768
 8988TIP3    H248380   2.105   0.300   0.755  1.0884 -0.6607 -0.2868
 8989TIP3   OH248381   3.188   5.748  11.547  0.3213 -0.0106 -0.6143
 8989TIP3    H148382   3.259   5.701  11.502 -0.2399 -1.6618  0.1255
 8989TIP3    H248383   3.115   5.745  11.486 -0.3608 -2.0261  0.2055
 8990TIP3   OH248384   6.207   3.350   0.881  0.3404 -0.1097 -0.0217
 8990TIP3    H148385   6.211   3.312   0.794 -0.0827 -0.5510  0.1496
 8990TIP3    H248386   6.116   3.376   0.893  0.1710 -0.9508  0.6576
 8991TIP3   OH248387   0.863   5.242   2.778  0.4507 -0.1744 -0.3919
 8991TIP3    H148388   0.870   5.284   2.692  1.4998  1.2974  0.3567
 8991TIP3    H248389   0.793   5.178   2.768 -2.0095  2.4334 -1.3898
 8992TIP3   OH248390   5.030   3.665  11.379  0.2625  0.1797 -0.4883
 8992TIP3    H148391   5.104   3.608  11.359  0.2231  0.1132 -0.4438
 8992TIP3    H248392   5.017   3.716  11.299 -1.6005 -1.9387 -1.6548
 8993TIP3   OH248393   6.350   0.880  12.089 -0.2503 -0.3687 -0.1641
 8993TIP3    H148394   6.256   0.874  12.105 -0.3672  0.6389 -0.3616
 8993TIP3    H248395   6.367   0.975  12.086  0.1317 -0.4111 -3.7147
 8994TIP3   OH248396   2.055   5.225  11.175 -0.2256 -0.3829 -0.1452
 8994TIP3    H148397   2.028   5.159  11.110 -0.9232 -0.6209  0.3736
 8994TIP3    H248398   2.148   5.241  11.155 -0.2267 -1.0124 -0.7173
 8995TIP3   OH248399   0.493   1.113  13.571  0.1131  0.1305 -0.1263
 8995TIP3    H148400   0.486   1.078  13.482 -1.0031 -1.5931  0.5958
 8995TIP3    H248401   0.572   1.167  13.569  0.7939 -0.8482 -1.8349
 8996TIP3   OH248402   6.748   0.079   3.162 -0.2003  0.5352  0.7943
 8996TIP3    H148403   6.692   0.135   3.108  0.4990  1.6025  1.1567
 8996TIP3    H248404   6.795   0.025   3.099 -0.7749  0.4582  0.4293
 8997TIP3   OH248405   0.383   3.671   2.807 -0.2539  0.5453 -0.1379
 8997TIP3    H148406   0.373   3.747   2.864 -0.7283  2.0253 -2.0794
 8997TIP3    H248407   0.296   3.657   2.770 -0.0909 -0.7494 -0.0973
 8998TIP3   OH248408   0.018   4.211   6.218  0.3822 -0.1763  0.2061
 8998TIP3    H148409   0.059   4.132   6.184 -0.1600 -0.7878  0.9434
 8998TIP3    H248410   0.085   4.279   6.210  2.4834 -1.6379  3.6335
 8999TIP3   OH248411   0.722   4.165  11.842 -0.3198  0.1472 -0.1981
 8999TIP3    H148412   0.667   4.244  11.836 -0.3568  0.0918 -0.6619
 8999TIP3    H248413   0.719   4.128  11.754  1.6132  0.9042 -0.6232
 9000TIP3   OH248414   6.668   0.589   5.340 -0.1724 -0.5415 -0.0852
 9000TIP3    H148415   6.688   0.674   5.302  0.3654 -0.7188 -0.1995
 9000TIP3    H248416   6.624   0.540   5.270 -2.1686  0.2717  0.5337
 9001TIP3   OH248417   0.636   5.846  13.958  0.0955 -0.3605  0.0818
 9001TIP3    H148418   0.680   5.930  13.942  1.0974 -0.9822 -0.5876
 9001TIP3    H248419   0.590   5.828  13.876  0.7123 -0.9363 -0.1427
 9002TIP3   OH248420   3.392   1.987   1.005 -0.3481  0.3910  0.1574
 9002TIP3    H148421   3.446   2.038   1.066  1.1934 -0.8562 -0.0978
 9002TIP3    H248422   3.325   1.947   1.060 -0.7237  1.5435  0.5675
 9003TIP3   OH248423   1.617   0.005   3.105 -0.4595  0.0707 -0.3252
 9003TIP3    H148424   1.571   0.004   3.022  0.9494  1.0432 -1.1551
 9003TIP3    H248425   1.672   0.084   3.102  0.4013 -0.4318  1.0707
 9004TIP3   OH248426   0.541   3.042   0.214 -0.4751  0.2493 -0.1832
 9004TIP3    H148427   0.570   3.117   0.162 -2.3743  1.3885  0.2982
 9004TIP3    H248428   0.533   2.971   0.151  4.5728 -0.7077 -0.1795
 9005TIP3   OH248429   5.129   5.433   3.332  0.0453  0.8653  0.5681
 9005TIP3    H148430   5.180   5.363   3.291  1.5535  1.6788  0.9544
 9005TIP3    H248431   5.038   5.406   3.321  0.3591  0.6652 -2.6208
 9006TIP3   OH248432   2.775   0.948  13.967  0.0147  1.4521  0.4554
 9006TIP3    H148433   2.859   0.920  14.004  0.2899  1.4939 -0.1309
 9006TIP3    H248434   2.796   1.028  13.919 -0.3875  1.5256  0.4042
 9007TIP3   OH248435   3.592   6.319  17.389  0.1781  0.0809  0.4665
 9007TIP3    H148436   3.652   6.261  17.438  1.3435  0.7642 -0.0998
 9007TIP3    H248437   3.637   6.403  17.387 -0.8138  0.6144 -0.0061
 9008TIP3   OH248438   3.044   4.801   4.340  0.4388 -0.0548  0.0932
 9008TIP3    H148439   2.992   4.775   4.264 -1.0710  0.8343  0.7792
 9008TIP3    H248440   3.025   4.734   4.406  1.6905 -0.7863 -0.2571
 9009TIP3   OH248441   4.254   0.379  12.435  0.0389 -0.2957  0.2383
 9009TIP3    H148442   4.161   0.403  12.428  0.1360 -0.1505 -0.6398
 9009TIP3    H248443   4.286   0.378  12.345  0.1280 -3.5222  0.1922
 9010TIP3   OH248444   1.373   4.386   5.058  0.2077 -0.3453 -0.5944
 9010TIP3    H148445   1.380   4.352   5.147  0.1827 -1.6851 -1.0910
 9010TIP3    H248446   1.432   4.461   5.057  0.2237 -0.3157  0.5362
 9011TIP3   OH248447   0.611   0.093   3.195 -0.1641  0.1801  0.5996
 9011TIP3    H148448   0.614   0.183   3.227  1.3968  0.4188 -0.0852
 9011TIP3    H248449   0.576   0.042   3.268 -0.1543  1.2030  1.3402
 9012TIP3   OH248450   1.747   4.202  13.992  0.4621 -0.0448 -0.0184
 9012TIP3    H148451   1.789   4.142  13.930 -2.2476 -1.6026 -0.5496
 9012TIP3    H248452   1.693   4.259  13.937 -1.5355 -1.0738  0.7382
 9013TIP3   OH248453   5.367   4.306  13.090  0.3026  0.1521  0.3630
 9013TIP3    H148454   5.292   4.246  13.087  0.1866  0.2475  1.2281
 9013TIP3    H248455   5.358   4.359  13.010 -0.1615 -0.2977  0.1093
 9014TIP3   OH248456   4.179   4.144  16.844  0.4943  1.0021 -0.0929
 9014TIP3    H148457   4.199   4.128  16.752  1.8344  0.8114  0.2042
 9014TIP3    H248458   4.201   4.236  16.858  4.2494  0.1346  0.9072
 9015TIP3   OH248459   5.691   5.500   2.572  0.3944  0.2661 -0.2584
 9015TIP3    H148460   5.752   5.461   2.511  2.7770  1.8181  0.9708
 9015TIP3    H248461   5.677   5.589   2.539  0.0251  0.4305  0.3121
 9016TIP3   OH248462   4.739   6.120   0.319  0.8550  0.5327 -0.3782
 9016TIP3    H148463   4.689   6.140   0.398  0.2034  0.8263 -0.8659
 9016TIP3    H248464   4.823   6.087   0.353  0.9043  1.4291  0.4388
 9017TIP3   OH248465   2.618   6.062  13.941 -0.1366 -0.1040 -0.1634
 9017TIP3    H148466   2.705   6.033  13.967 -0.5085 -0.6128  0.5153
 9017TIP3    H248467   2.596   6.131  14.004 -0.3044 -0.0993 -0.2277
 9018TIP3   OH248468   0.493   4.395  12.256 -1.1275 -0.0300  0.6041
 9018TIP3    H148469   0.456   4.394  12.344  1.1063  1.2193  1.6410
 9018TIP3    H248470   0.561   4.327  12.258 -1.4485 -0.3942 -0.3591
 9019TIP3   OH248471   3.330   5.820   5.750 -0.5253  0.0459 -0.3454
 9019TIP3    H148472   3.353   5.783   5.835 -0.0753  0.1863 -0.4072
 9019TIP3    H248473   3.414   5.837   5.707 -0.7372  0.6946 -0.5103
 9020TIP3   OH248474   4.597   2.329  13.364 -0.0467  0.2821 -0.9223
 9020TIP3    H148475   4.557   2.416  13.373  2.8901  1.6598  0.1507
 9020TIP3    H248476   4.597   2.293  13.453 -1.3371 -0.9290 -1.3772
 9021TIP3   OH248477   4.372   0.577   4.089 -0.2200  0.1068  0.0610
 9021TIP3    H148478   4.403   0.601   4.176 -0.4737 -1.1323  0.5246
 9021TIP3    H248479   4.286   0.617   4.081  0.0104  0.6286  0.1758
 9022TIP3   OH248480   6.338   3.726  10.459  1.1214  0.1713  0.3988
 9022TIP3    H148481   6.298   3.670  10.393  0.9920 -0.9644  1.4086
 9022TIP3    H248482   6.390   3.789  10.409 -1.1427  1.1330 -0.9219
 9023TIP3   OH248483   2.077   0.645  17.030  0.1204  0.0531  0.3423
 9023TIP3    H148484   2.161   0.686  17.010  0.8565 -2.1598 -1.4015
 9023TIP3    H248485   2.097   0.578  17.095 -0.6818  0.7735  1.3840
 9024TIP3   OH248486   3.006   4.653  14.745 -0.3286  0.3499  0.3782
 9024TIP3    H148487   3.060   4.638  14.823 -0.8816  2.6346  1.2724
 9024TIP3    H248488   3.014   4.746  14.728  1.0538 -0.2784 -3.3337
 9025TIP3   OH248489   1.056   6.153  14.591  0.8194  0.0918  0.1585
 9025TIP3    H148490   0.998   6.127  14.663  1.6748  1.3507  1.3517
 9025TIP3    H248491   0.996   6.166  14.517 -0.0337 -1.5856  0.4953
 9026TIP3   OH248492   1.673   4.638  16.392 -0.3167  0.4123 -0.0050
 9026TIP3    H148493   1.671   4.543  16.383 -0.0184  0.2728  1.2522
 9026TIP3    H248494   1.591   4.660  16.435 -0.1372  0.6659  0.2073
 9027TIP3   OH248495   5.164   6.678  14.588  0.1070  0.8720  0.1030
 9027TIP3    H148496   5.103   6.739  14.547  0.4352  0.6374 -0.7510
 9027TIP3    H248497   5.250   6.707  14.559  0.3843  0.9619  0.9821
 9028TIP3   OH248498   0.997   2.643  13.108 -0.1300 -0.1600  0.6639
 9028TIP3    H148499   1.032   2.556  13.091 -0.9871 -0.7496  1.8014
 9028TIP3    H248500   0.929   2.655  13.042 -1.7758 -1.4361  2.0417
 9029TIP3   OH248501   1.648   3.368   2.354 -0.1757 -0.0233  0.1483
 9029TIP3    H148502   1.684   3.412   2.431  1.6879 -1.5220  0.2071
 9029TIP3    H248503   1.553   3.373   2.366  0.0437  1.1225  1.7534
 9030TIP3   OH248504   4.498   0.469  15.691  0.3027  0.4073  0.2425
 9030TIP3    H148505   4.432   0.426  15.637 -0.2369 -0.8690  1.8409
 9030TIP3    H248506   4.498   0.560  15.660 -0.9820  0.0492 -0.9365
 9031TIP3   OH248507   2.002   0.016  11.017 -0.1630  0.1632 -0.1239
 9031TIP3    H148508   1.919   0.024  10.971 -1.8510  0.8425  2.7695
 9031TIP3    H248509   1.986  -0.051  11.084  1.8590 -0.2019  0.0613
 9032TIP3   OH248510   1.218   3.769   1.527  0.4714 -0.2564  0.0270
 9032TIP3    H148511   1.131   3.771   1.568  0.0161 -0.8249 -0.8796
 9032TIP3    H248512   1.245   3.678   1.535  1.2505  0.0302  0.8116
 9033TIP3   OH248513   1.157   1.592   3.267 -0.0247 -0.0595 -0.1650
 9033TIP3    H148514   1.162   1.496   3.271  0.2455 -0.0419 -0.0937
 9033TIP3    H248515   1.072   1.609   3.226  0.3554 -0.3498 -1.1150
 9034TIP3   OH248516   3.112   0.313  16.446 -1.0429  0.8024  0.2886
 9034TIP3    H148517   3.152   0.398  16.425 -0.4077  0.3401 -0.3874
 9034TIP3    H248518   3.027   0.336  16.485 -0.5452  1.7718  0.8564
 9035TIP3   OH248519   1.626   4.839   1.078 -0.2581 -0.3064 -0.4983
 9035TIP3    H148520   1.659   4.872   1.162 -1.4169  0.8006 -0.4511
 9035TIP3    H248521   1.700   4.793   1.040 -0.1116 -2.2635  1.8342
 9036TIP3   OH248522   2.064   4.080  13.553 -0.5098 -0.1116 -0.8659
 9036TIP3    H148523   2.056   4.131  13.472 -2.3792 -0.9400 -1.2618
 9036TIP3    H248524   2.074   3.990  13.523 -2.7643 -0.6292 -0.2295
 9037TIP3   OH248525   5.224   3.025  14.697 -0.3778 -0.2086 -0.8004
 9037TIP3    H148526   5.161   3.044  14.767  0.5869 -0.0860  0.0470
 9037TIP3    H248527   5.234   3.108  14.651  0.2873  0.1665 -0.0025
 9038TIP3   OH248528   1.065   3.151   1.916 -0.1144  0.0513  0.3144
 9038TIP3    H148529   1.058   3.056   1.920  0.1038 -0.0077 -0.5153
 9038TIP3    H248530   1.066   3.179   2.008  2.7213 -0.9586  0.7005
 9039TIP3   OH248531   2.905   6.122  12.174  0.0358  0.0823  0.0442
 9039TIP3    H148532   2.922   6.197  12.232 -0.2277 -1.3352  2.0911
 9039TIP3    H248533   2.984   6.068  12.180 -0.5959 -0.8488  0.3555
 9040TIP3   OH248534   3.652   2.263   1.725 -0.4701 -0.4449  0.0350
 9040TIP3    H148535   3.631   2.337   1.783  0.9856  0.8749 -1.0296
 9040TIP3    H248536   3.593   2.193   1.753 -2.2169  1.2410  0.8330
 9041TIP3   OH248537   1.963   4.703  15.959  0.5683  0.1398  0.2233
 9041TIP3    H148538   1.873   4.708  15.992 -0.0038  0.1290 -1.2709
 9041TIP3    H248539   1.979   4.610  15.946 -0.1994  0.2593 -2.0186
 9042TIP3   OH248540   1.360   1.551  13.556  0.1142 -0.4052 -0.3017
 9042TIP3    H148541   1.331   1.642  13.552  0.6541 -0.2425 -0.6637
 9042TIP3    H248542   1.415   1.540  13.478 -1.2365 -1.5124 -1.1444
 9043TIP3   OH248543   4.425   2.787  15.998  0.3300  0.5158 -0.1557
 9043TIP3    H148544   4.401   2.763  16.087  3.4273  0.9545  0.8897
 9043TIP3    H248545   4.415   2.882  15.994 -0.4153  0.4365 -0.5349
 9044TIP3   OH248546   5.415   0.006  16.743  0.1130  0.2897 -0.0770
 9044TIP3    H148547   5.367   0.040  16.819 -0.0469  1.1162 -0.5309
 9044TIP3    H248548   5.491  -0.038  16.781 -0.6839 -0.5194  0.6213
 9045TIP3   OH248549   0.731   6.084   4.309  0.0355  0.1974  0.5750
 9045TIP3    H148550   0.781   6.150   4.262 -1.2247 -0.2832 -1.5990
 9045TIP3    H248551   0.781   6.003   4.298 -0.0815  0.1551  0.3432
 9046TIP3   OH248552   1.922   1.393  12.344 -0.7623 -0.1604  0.0673
 9046TIP3    H148553   1.977   1.412  12.269 -0.0689  4.0940  1.4150
 9046TIP3    H248554   1.833   1.402  12.312 -0.6102 -1.7667 -0.9092
 9047TIP3   OH248555   3.452   5.924  15.997  0.1761 -0.3016  0.8283
 9047TIP3    H148556   3.449   5.943  16.091  0.0826 -0.8869  0.9435
 9047TIP3    H248557   3.528   5.974  15.965  0.0323  0.1317  1.1570
 9048TIP3   OH248558   6.157   1.043  11.465  0.1362  0.0454 -0.2814
 9048TIP3    H148559   6.227   1.108  11.470  0.4425 -0.0350 -2.4176
 9048TIP3    H248560   6.187   0.981  11.398 -1.0518 -1.1597  0.2617
 9049TIP3   OH248561   2.541   2.972   0.254 -0.0954  0.3525  0.0314
 9049TIP3    H148562   2.447   2.976   0.237 -0.2376  0.3994  0.8044
 9049TIP3    H248563   2.569   3.064   0.256  0.0985  0.3224 -0.8674
 9050TIP3   OH248564   5.056   3.524   6.187 -0.2612  0.4458 -0.1893
 9050TIP3    H148565   5.113   3.586   6.233 -0.9891  0.4745  0.7156
 9050TIP3    H248566   5.055   3.447   6.243 -0.3381  0.0765 -0.6936
 9051TIP3   OH248567   4.529   3.640  16.387 -0.3271 -0.6128 -0.8315
 9051TIP3    H148568   4.608   3.662  16.337 -0.1474  0.5061 -0.0996
 9051TIP3    H248569   4.562   3.616  16.474 -0.6931 -1.7813 -0.9892
 9052TIP3   OH248570   0.923   3.323   4.312  0.2140  0.1537  0.1639
 9052TIP3    H148571   0.919   3.375   4.232 -0.6280  2.0262  1.3584
 9052TIP3    H248572   1.016   3.321   4.335  0.3715  0.2075 -0.4654
 9053TIP3   OH248573   6.460   6.069  16.910 -0.0177 -0.7117  0.3751
 9053TIP3    H148574   6.542   6.101  16.947  0.3437 -1.9759  0.7029
 9053TIP3    H248575   6.406   6.148  16.899  2.4668  0.7430 -3.1368
 9054TIP3   OH248576   2.585   4.318  11.509  0.0665 -0.1169 -0.3600
 9054TIP3    H148577   2.653   4.317  11.576  0.8072  3.3317 -0.8891
 9054TIP3    H248578   2.560   4.226  11.500  0.4257 -0.8641  4.0398
 9055TIP3   OH248579   0.928   2.587  15.097 -0.6913  0.3243  0.1579
 9055TIP3    H148580   0.965   2.616  15.181  0.6121 -0.1842 -0.2225
 9055TIP3    H248581   0.970   2.503  15.080 -1.2950  0.1999 -0.7839
 9056TIP3   OH248582   3.986   0.485   0.357 -0.5962  0.2454 -0.5636
 9056TIP3    H148583   3.892   0.488   0.338 -0.7043 -0.1042 -0.0970
 9056TIP3    H248584   4.025   0.448   0.278 -0.7614  1.0580 -1.0423
 9057TIP3   OH248585   4.399   4.396  16.579 -0.2274  0.0938  0.1291
 9057TIP3    H148586   4.331   4.433  16.523  0.9486  2.9515  0.4277
 9057TIP3    H248587   4.481   4.412  16.531  0.7220  1.8265  2.1867
 9058TIP3   OH248588   3.842   4.061  15.068 -0.0712  0.3047 -0.1359
 9058TIP3    H148589   3.917   4.104  15.110 -0.8796  3.1447 -1.3239
 9058TIP3    H248590   3.766   4.109  15.101 -1.2785 -1.5009 -0.1480
 9059TIP3   OH248591   1.015   2.776   0.832  0.1936 -0.0875  0.3861
 9059TIP3    H148592   1.050   2.852   0.785  0.6781 -0.2487  0.4773
 9059TIP3    H248593   1.088   2.714   0.835 -0.4378 -0.8964 -0.4000
 9060TIP3   OH248594   2.859   4.611   4.938 -0.2617  0.2475 -0.1809
 9060TIP3    H148595   2.863   4.529   4.889 -0.9034 -0.2571  0.5672
 9060TIP3    H248596   2.925   4.600   5.007 -0.6853  0.1526  0.2121
 9061TIP3   OH248597   5.465   3.495  17.037  1.1007 -0.2624 -0.0396
 9061TIP3    H148598   5.543   3.450  17.006  1.6020  0.4448  0.1987
 9061TIP3    H248599   5.477   3.502  17.131  2.0103  2.1883 -0.2824
 9062TIP3   OH248600   6.391   2.062  11.057  0.0314  0.4673  0.0795
 9062TIP3    H148601   6.310   2.065  11.109  0.0206  0.8007  0.0476
 9062TIP3    H248602   6.455   2.108  11.111 -0.0214  0.9586 -0.2689
 9063TIP3   OH248603   6.576   1.538  13.517  0.2799 -0.3677 -0.2234
 9063TIP3    H148604   6.503   1.509  13.463 -0.2357  0.8669 -0.2100
 9063TIP3    H248605   6.615   1.611  13.468 -1.2331  1.9199  1.7690
 9064TIP3   OH248606   6.439   2.216  13.547  0.1380 -0.1978  0.0621
 9064TIP3    H148607   6.460   2.224  13.640 -0.9073 -2.1463  0.5280
 9064TIP3    H248608   6.359   2.268  13.537  0.2826  0.0632  0.2329
 9065TIP3   OH248609   1.110   0.527  14.902 -0.0468 -0.7308 -0.5242
 9065TIP3    H148610   1.087   0.504  14.812  0.7120 -0.6863 -0.7317
 9065TIP3    H248611   1.099   0.622  14.907  0.5523 -0.6510 -0.7544
 9066TIP3   OH248612   1.337   5.358   4.197 -0.3383 -0.2866  0.2673
 9066TIP3    H148613   1.343   5.290   4.131  1.5286 -0.2144  0.3274
 9066TIP3    H248614   1.348   5.440   4.148  1.7720 -0.2624  0.6892
 9067TIP3   OH248615   0.403   6.628  17.092 -0.4222 -0.5375 -0.3991
 9067TIP3    H148616   0.404   6.548  17.040 -0.5398  0.2141 -1.5803
 9067TIP3    H248617   0.311   6.646  17.107 -0.4482  0.0774 -1.2508
 9068TIP3   OH248618   4.901   0.489   5.921  0.2703  0.2418  0.5689
 9068TIP3    H148619   4.853   0.407   5.907  1.2898 -0.9422  3.2904
 9068TIP3    H248620   4.985   0.475   5.877  0.5825 -0.3636  1.3338
 9069TIP3   OH248621   5.417   0.329  11.728 -0.2754  0.2029  0.1951
 9069TIP3    H148622   5.501   0.303  11.691 -0.0252  2.1174 -0.6893
 9069TIP3    H248623   5.432   0.331  11.823  0.2142 -0.9317  0.1569
 9070TIP3   OH248624   1.766   6.555   3.264  0.1832 -0.1494  0.2970
 9070TIP3    H148625   1.771   6.578   3.357 -0.1826 -1.4607  0.6665
 9070TIP3    H248626   1.718   6.628   3.224 -0.7728 -0.1649  1.3743
 9071TIP3   OH248627   6.429   2.684  12.197 -0.1382  0.3805  0.4287
 9071TIP3    H148628   6.354   2.732  12.162 -0.4490 -0.0499  0.4974
 9071TIP3    H248629   6.391   2.606  12.238  0.4190 -0.4166 -0.5119
 9072TIP3   OH248630   0.606   0.026   1.431  0.2468 -0.2257  0.1769
 9072TIP3    H148631   0.518  -0.010   1.434  0.5748 -1.1529 -0.6749
 9072TIP3    H248632   0.651  -0.026   1.364  1.4654  0.1566  0.6650
 9073TIP3   OH248633   4.243   0.838  10.991 -0.2714 -0.1406  0.0404
 9073TIP3    H148634   4.291   0.796  11.062  0.9680 -0.1477 -0.7646
 9073TIP3    H248635   4.175   0.775  10.967 -1.8905  0.6012  2.3738
 9074TIP3   OH248636   2.994   3.630  14.076  0.3148 -0.1341 -0.0877
 9074TIP3    H148637   2.917   3.646  14.132  0.6678 -1.3296  0.7764
 9074TIP3    H248638   3.057   3.586  14.134  1.4242  0.2811 -0.9446
 9075TIP3   OH248639   5.181   4.414  17.362  0.2709 -0.4533 -0.2522
 9075TIP3    H148640   5.137   4.447  17.440  0.0430  0.0152 -0.5756
 9075TIP3    H248641   5.214   4.493  17.318  1.4971 -0.7953  0.0190
 9076TIP3   OH248642   0.454   5.317  15.434  0.5070 -0.0727  0.2663
 9076TIP3    H148643   0.363   5.294  15.413  0.8100  0.0204 -1.2837
 9076TIP3    H248644   0.454   5.412  15.441  0.3349 -0.1246  1.1660
 9077TIP3   OH248645   1.148   1.196  14.854 -0.1047  0.5357  0.3165
 9077TIP3    H148646   1.128   1.108  14.821  0.5257  0.0029  1.3070
 9077TIP3    H248647   1.228   1.221  14.809  0.1396  0.2777  0.6042
 9078TIP3   OH248648   1.368   4.957  13.212 -0.0458  0.1176 -0.4212
 9078TIP3    H148649   1.414   4.883  13.252  0.8452  0.6073 -0.5160
 9078TIP3    H248650   1.403   5.034  13.257  1.5736  0.7706 -2.6153
 9079TIP3   OH248651   5.753   1.319   4.501  0.3011  0.5020 -0.5142
 9079TIP3    H148652   5.739   1.413   4.514 -0.1497  0.3691  0.0525
 9079TIP3    H248653   5.700   1.278   4.570 -1.0531 -0.2381 -1.9232
 9080TIP3   OH248654   3.688   2.157  11.945  0.7648  0.2381  0.8094
 9080TIP3    H148655   3.745   2.233  11.959  1.7051  0.1579 -2.0837
 9080TIP3    H248656   3.642   2.176  11.863 -0.0629 -1.7057  0.7725
 9081TIP3   OH248657   0.851   5.341   2.511 -0.3237  0.0279 -0.3755
 9081TIP3    H148658   0.913   5.379   2.448  1.3250 -1.4955  0.2441
 9081TIP3    H248659   0.794   5.285   2.458 -0.0655  0.1170 -0.7486
 9082TIP3   OH248660   3.334   0.618   2.823 -0.1310 -0.1189 -0.2095
 9082TIP3    H148661   3.370   0.539   2.865 -4.0877 -1.3094  1.4489
 9082TIP3    H248662   3.380   0.690   2.866 -0.0880 -1.4700  2.2613
 9083TIP3   OH248663   3.499   0.263   0.446 -0.4340  0.0582 -0.9316
 9083TIP3    H148664   3.477   0.252   0.354 -1.5167  1.6236 -0.8916
 9083TIP3    H248665   3.440   0.204   0.493  0.5184 -1.1860 -1.2358
 9084TIP3   OH248666   1.737   2.212  14.016  0.0609  0.1840 -0.9807
 9084TIP3    H148667   1.646   2.237  13.999  0.3749  1.8503 -0.3563
 9084TIP3    H248668   1.787   2.292  14.004  1.4218 -0.6379 -0.9939
 9085TIP3   OH248669   5.048   0.661   0.066 -0.0657 -0.5059 -0.2643
 9085TIP3    H148670   5.071   0.585   0.012  0.3393 -1.1729  0.8183
 9085TIP3    H248671   4.996   0.625   0.138 -0.6275  0.3771 -0.2017
 9086TIP3   OH248672   2.127   3.251   5.287  0.0485  1.5660  0.0145
 9086TIP3    H148673   2.175   3.169   5.300 -0.5251  1.1108 -0.6517
 9086TIP3    H248674   2.182   3.318   5.329 -0.7570  0.4989  2.9893
 9087TIP3   OH248675   6.657   1.168  14.995  0.4955 -0.4860 -0.3136
 9087TIP3    H148676   6.664   1.229  15.069  0.6646 -2.0063  0.9670
 9087TIP3    H248677   6.746   1.162  14.961  0.7204 -0.9393  0.3369
 9088TIP3   OH248678   0.262   4.946  15.271  0.0831 -0.2651  0.0471
 9088TIP3    H148679   0.310   4.978  15.347  0.7397 -0.9536 -0.0700
 9088TIP3    H248680   0.303   4.991  15.197 -0.9577  0.8773  0.1318
 9089TIP3   OH248681   5.557   6.227  12.353 -0.2575 -0.0674 -0.4139
 9089TIP3    H148682   5.484   6.272  12.312 -0.0201  0.4995 -0.2231
 9089TIP3    H248683   5.587   6.165  12.286 -0.5249  0.1229 -0.7142
 9090TIP3   OH248684   1.356   4.772  15.260  0.3481 -0.4512 -0.5808
 9090TIP3    H148685   1.359   4.705  15.191 -0.3195 -0.8405 -0.2369
 9090TIP3    H248686   1.264   4.778  15.283  0.6235 -0.6916  0.6447
 9091TIP3   OH248687   5.301   1.918   5.264 -0.3977  0.3781  0.5773
 9091TIP3    H148688   5.217   1.874   5.279 -0.8786  0.7605 -0.9007
 9091TIP3    H248689   5.332   1.940   5.352 -0.6922 -1.8597  1.2968
 9092TIP3   OH248690   2.318   6.266  13.518  0.2289 -0.0835 -0.5517
 9092TIP3    H148691   2.238   6.310  13.490 -0.2667 -0.7990 -0.2854
 9092TIP3    H248692   2.352   6.322  13.589 -0.0970  0.1569 -0.5823
 9093TIP3   OH248693   2.694   4.560   0.732  0.4878  0.4478 -0.0592
 9093TIP3    H148694   2.743   4.633   0.769  1.6162 -0.4941  0.3691
 9093TIP3    H248695   2.730   4.549   0.644  1.3257 -0.4709  0.3827
 9094TIP3   OH248696   5.612   0.517   2.951 -0.0488  0.4664  0.3157
 9094TIP3    H148697   5.620   0.464   2.873  0.7430  0.4069  0.4291
 9094TIP3    H248698   5.541   0.477   3.001 -0.5691  0.5182 -0.3705
 9095TIP3   OH248699   3.050   5.659  13.322  0.2985 -0.1643 -0.5867
 9095TIP3    H148700   3.105   5.670  13.400 -0.9275  1.1198  0.1631
 9095TIP3    H248701   3.057   5.566  13.300  0.6491 -0.5688  1.0991
 9096TIP3   OH248702   0.585   0.472  16.378 -0.0644 -0.3714  0.1274
 9096TIP3    H148703   0.652   0.429  16.325  1.3194  2.3011 -0.4461
 9096TIP3    H248704   0.619   0.471  16.467  0.6722  0.7715 -0.1254
 9097TIP3   OH248705   4.252   3.404  15.453 -0.0250 -0.6459  0.3038
 9097TIP3    H148706   4.309   3.341  15.409 -0.4590 -1.1626  0.4688
 9097TIP3    H248707   4.235   3.471  15.387 -0.0540 -1.0206 -0.0743
 9098TIP3   OH248708   2.718   2.706   4.669  0.4385  0.0397 -0.0406
 9098TIP3    H148709   2.706   2.729   4.577  0.1076  1.8884  0.4430
 9098TIP3    H248710   2.801   2.747   4.693  1.1032 -1.3904  0.2146
 9099TIP3   OH248711   6.133   2.265   5.194  0.2211  0.3100  0.4257
 9099TIP3    H148712   6.190   2.270   5.117  0.9379  1.2264  0.9908
 9099TIP3    H248713   6.090   2.350   5.198 -1.1244 -0.3235  0.0904
 9100TIP3   OH248714   2.664   0.281   1.653  0.0091 -0.4194 -0.8510
 9100TIP3    H148715   2.753   0.295   1.686 -0.4241 -1.7500  1.0841
 9100TIP3    H248716   2.652   0.186   1.658 -1.3843 -0.2944 -1.4635
 9101TIP3   OH248717   2.531   0.620   3.343  0.2399 -0.2014  0.0172
 9101TIP3    H148718   2.560   0.705   3.375 -0.3502 -0.0325  0.1257
 9101TIP3    H248719   2.607   0.583   3.298  0.9372 -0.2192  1.1564
 9102TIP3   OH248720   5.248   0.233  14.602 -0.1733 -0.7447 -0.2665
 9102TIP3    H148721   5.337   0.266  14.588 -0.6059  0.0180 -1.2908
 9102TIP3    H248722   5.208   0.233  14.515 -1.0810 -1.3734  0.1359
 9103TIP3   OH248723   3.366   5.661   2.864  0.3124 -0.0586 -0.0061
 9103TIP3    H148724   3.309   5.586   2.846 -1.5620  1.1192  0.7768
 9103TIP3    H248725   3.417   5.634   2.940 -1.6859  0.0919  1.4659
 9104TIP3   OH248726   6.744   3.305   0.436  0.1832  0.1356  0.3738
 9104TIP3    H148727   6.767   3.345   0.352  1.1352 -0.9817  0.0889
 9104TIP3    H248728   6.683   3.367   0.475  1.1274  1.5753 -0.3320
 9105TIP3   OH248729   4.563   1.302  10.833  0.0048 -0.2224 -0.4845
 9105TIP3    H148730   4.578   1.276  10.742  0.0953 -1.3607 -0.1469
 9105TIP3    H248731   4.532   1.223  10.876 -0.3316  0.3882  0.4158
 9106TIP3   OH248732   4.102   3.243   0.838  0.0786 -0.1379 -0.0902
 9106TIP3    H148733   4.119   3.287   0.755  0.2045  0.4803  0.2612
 9106TIP3    H248734   4.014   3.269   0.863  0.6056  0.9313  0.7330
 9107TIP3   OH248735   3.416   5.144   3.566 -0.2108 -0.8658  0.6595
 9107TIP3    H148736   3.327   5.180   3.573 -0.4265 -1.1579 -0.3575
 9107TIP3    H248737   3.447   5.173   3.480  0.8540 -0.4009  1.1863
 9108TIP3   OH248738   3.474   2.276  13.593  0.5838 -0.0250  0.3521
 9108TIP3    H148739   3.443   2.215  13.526  3.1737 -0.7570 -0.2988
 9108TIP3    H248740   3.438   2.243  13.675  0.1327 -1.1051 -0.2698
 9109TIP3   OH248741   4.703   3.456   0.713 -0.1644 -0.0861 -0.5209
 9109TIP3    H148742   4.760   3.531   0.696  0.4139 -0.1249  1.0919
 9109TIP3    H248743   4.761   3.389   0.750 -1.2234 -0.0816  1.2924
 9110TIP3   OH248744   0.163   1.528   0.307 -0.4892 -0.2017 -0.0395
 9110TIP3    H148745   0.083   1.501   0.353 -0.4134 -1.4402 -0.5837
 9110TIP3    H248746   0.148   1.501   0.217  1.0047 -1.5375  0.0741
 9111TIP3   OH248747   2.459   1.270   3.723 -0.8299  0.3179 -0.1479
 9111TIP3    H148748   2.434   1.214   3.796  0.4621  1.2592  1.0981
 9111TIP3    H248749   2.510   1.340   3.764  0.0190  0.8308 -1.9750
 9112TIP3   OH248750   2.844   2.919   1.159 -0.1733  0.6353 -0.1096
 9112TIP3    H148751   2.780   2.894   1.226 -0.6744  1.5546 -0.2328
 9112TIP3    H248752   2.925   2.931   1.208  0.2804 -1.8519 -0.1382
 9113TIP3   OH248753   5.851   2.391  17.197  0.3572  0.3913 -0.0598
 9113TIP3    H148754   5.824   2.474  17.236  1.7454  0.8860 -0.0746
 9113TIP3    H248755   5.901   2.348  17.266 -1.2587 -0.9604  0.3182
 9114TIP3   OH248756   5.255   3.675  17.211 -0.5529 -0.3638 -0.6440
 9114TIP3    H148757   5.322   3.742  17.196  0.5287 -1.3501 -0.3919
 9114TIP3    H248758   5.258   3.658  17.305 -2.9376  1.3360 -0.1764
 9115TIP3   OH248759   3.267   5.965  11.691  0.0455  0.0285  0.4684
 9115TIP3    H148760   3.235   5.898  11.631 -0.4897  1.8773 -1.4031
 9115TIP3    H248761   3.217   6.043  11.669  0.4280  1.0100  2.7901
 9116TIP3   OH248762   3.568   5.637   3.035 -0.4249 -0.0471 -0.1416
 9116TIP3    H148763   3.597   5.717   3.078  1.3377 -1.9396  2.5229
 9116TIP3    H248764   3.618   5.633   2.954  0.3049  0.9998  0.2393
 9117TIP3   OH248765   4.237   1.032  13.748 -0.1704 -0.4717  0.3501
 9117TIP3    H148766   4.299   0.965  13.721 -0.3081 -0.4811  0.0485
 9117TIP3    H248767   4.173   1.036  13.676 -0.8965 -0.9274  0.9650
 9118TIP3   OH248768   4.660   3.050  10.204 -0.1916  0.4680  0.4133
 9118TIP3    H148769   4.648   3.117  10.271  1.3930  1.4716 -0.2567
 9118TIP3    H248770   4.718   2.985  10.243 -2.0369 -0.8008  1.2046
 9119TIP3   OH248771   0.627   0.266  12.073 -0.2411  0.4040 -0.2888
 9119TIP3    H148772   0.559   0.239  12.134 -0.9600 -0.6271 -1.4956
 9119TIP3    H248773   0.582   0.274  11.989  1.3270 -1.4180 -1.3777
 9120TIP3   OH248774   5.286   0.111  13.807  0.2000  0.3326  0.2121
 9120TIP3    H148775   5.362   0.056  13.825  0.4538  0.0106 -1.6854
 9120TIP3    H248776   5.222   0.053  13.766 -0.1173  1.1044 -0.4324
 9121TIP3   OH248777   3.700   4.965   5.638 -0.0566  0.5248  0.2086
 9121TIP3    H148778   3.722   4.955   5.731 -0.1830  1.0184  0.2950
 9121TIP3    H248779   3.696   4.875   5.604 -0.0268  0.3414  0.6849
 9122TIP3   OH248780   3.937   2.705  17.125  1.1838 -0.0555  0.2651
 9122TIP3    H148781   3.887   2.780  17.159 -0.8664 -1.8775  1.5478
 9122TIP3    H248782   3.995   2.681  17.197  0.2096 -1.0312  0.7596
 9123TIP3   OH248783   2.616   6.244   0.560  0.1520 -0.3383 -0.0147
 9123TIP3    H148784   2.694   6.285   0.598  0.1163 -1.4077  1.3084
 9123TIP3    H248785   2.650   6.181   0.496  0.4466 -1.3202  1.0740
 9124TIP3   OH248786   0.541   1.813  16.155 -0.6190  0.0475 -0.4927
 9124TIP3    H148787   0.539   1.843  16.246  0.8588 -0.4515 -0.2692
 9124TIP3    H248788   0.449   1.803  16.132 -1.0241 -0.5019  1.1828
 9125TIP3   OH248789   1.473   4.718   2.350  0.2121 -0.3233  0.3299
 9125TIP3    H148790   1.497   4.810   2.336  0.1389 -0.4489 -0.7095
 9125TIP3    H248791   1.467   4.682   2.262 -0.8495 -1.0486  0.6858
 9126TIP3   OH248792   3.003   0.112  11.323 -0.4661 -0.2589  0.4510
 9126TIP3    H148793   2.963   0.045  11.379 -1.1276 -0.4582 -0.2580
 9126TIP3    H248794   2.942   0.124  11.251  0.4558 -0.1051 -0.3188
 9127TIP3   OH248795   4.114   5.987  14.419  0.1214 -0.3544 -0.2975
 9127TIP3    H148796   4.039   5.948  14.373 -0.5052 -1.1592  1.3153
 9127TIP3    H248797   4.190   5.954  14.372 -0.4767 -1.5589 -0.4758
 9128TIP3   OH248798   0.103   2.792   0.009 -0.7570  0.1405  0.0030
 9128TIP3    H148799   0.152   2.724  -0.038 -2.6339 -0.1016 -1.6989
 9128TIP3    H248800   0.044   2.743   0.066 -0.0282  0.4199  1.0256
 9129TIP3   OH248801   6.456   3.627   2.859  0.2089 -0.1918 -0.0663
 9129TIP3    H148802   6.391   3.558   2.871 -0.8301  0.7160 -0.2816
 9129TIP3    H248803   6.524   3.587   2.805 -2.2900  0.0323 -3.7306
 9130TIP3   OH248804   1.647   0.799   5.432 -0.3327  1.1296 -0.4980
 9130TIP3    H148805   1.685   0.731   5.377 -1.6399  0.9801 -1.2759
 9130TIP3    H248806   1.706   0.874   5.423 -0.4519  1.0757 -2.0607
 9131TIP3   OH248807   1.592   6.423   3.016  0.3772 -0.2532 -0.7620
 9131TIP3    H148808   1.577   6.337   3.055 -1.8451 -0.3647 -1.7435
 9131TIP3    H248809   1.610   6.480   3.091 -2.3951 -0.7379  0.3778
 9132TIP3   OH248810   2.308   5.185  10.563  0.0338  0.2725  0.0658
 9132TIP3    H148811   2.251   5.162  10.636  1.0127 -0.4928  0.6212
 9132TIP3    H248812   2.326   5.278  10.575  1.6791 -0.2140  1.9340
 9133TIP3   OH248813   3.172   5.822  15.927 -0.3507  0.0956  0.0077
 9133TIP3    H148814   3.186   5.816  15.833 -0.1542  0.6269  0.0021
 9133TIP3    H248815   3.259   5.832  15.965 -0.1490 -2.6202  0.4761
 9134TIP3   OH248816   6.671   3.700  10.785  0.0404  0.5657  0.5019
 9134TIP3    H148817   6.662   3.795  10.775 -0.4479  0.5319  0.6186
 9134TIP3    H248818   6.594   3.664  10.743  0.6340  0.1758 -0.2736
 9135TIP3   OH248819   3.316   2.420  12.960  0.0150 -0.2039  0.0539
 9135TIP3    H148820   3.224   2.444  12.950 -0.3321 -0.8984  1.3907
 9135TIP3    H248821   3.321   2.381  13.047  1.4514 -0.7773 -0.2668
 9136TIP3   OH248822   1.480   3.182  12.979 -0.1270  0.3301  0.2095
 9136TIP3    H148823   1.503   3.186  13.072  1.1391 -3.1258  0.1707
 9136TIP3    H248824   1.564   3.188  12.934 -0.5897  0.4240 -0.6599
 9137TIP3   OH248825   5.689   1.942  12.085 -0.6509  0.2872  0.3353
 9137TIP3    H148826   5.756   1.984  12.139 -1.0750  0.8651  0.4139
 9137TIP3    H248827   5.737   1.877  12.034  0.1463  1.3672 -0.3373
 9138TIP3   OH248828   4.025   2.065  13.949  0.1962  0.3068  0.4169
 9138TIP3    H148829   4.089   2.052  13.879 -0.4373  0.5192 -0.2061
 9138TIP3    H248830   4.030   2.158  13.970  1.9446 -0.1144  2.1918
 9139TIP3   OH248831   3.256   3.617  14.602  0.6280 -0.2302 -0.1076
 9139TIP3    H148832   3.341   3.593  14.567  0.9498 -0.2594  0.6754
 9139TIP3    H248833   3.260   3.713  14.611  1.1478 -0.3687  1.3444
 9140TIP3   OH248834   4.245   1.732   5.356 -0.0217  0.1611  0.1529
 9140TIP3    H148835   4.291   1.813   5.334  1.7434 -0.8833 -0.2448
 9140TIP3    H248836   4.315   1.667   5.367 -1.3677 -1.2824  0.5782
 9141TIP3   OH248837   5.137   5.542  16.499 -0.8091  0.2804 -0.3296
 9141TIP3    H148838   5.218   5.536  16.449 -1.4063 -0.2446 -1.2646
 9141TIP3    H248839   5.110   5.451  16.513 -1.7649  0.4560 -0.9274
 9142TIP3   OH248840   3.139   2.107   1.871  0.7040  0.0436 -0.0541
 9142TIP3    H148841   3.193   2.130   1.946  0.4656 -2.0181  0.8375
 9142TIP3    H248842   3.097   2.189   1.844  1.3982  0.9670  1.5729
 9143TIP3   OH248843   5.708   3.284   1.489  0.1248  0.3869 -0.2889
 9143TIP3    H148844   5.662   3.296   1.407  0.8104 -0.0043 -0.7442
 9143TIP3    H248845   5.735   3.372   1.515  0.2264  0.4735 -0.6784
 9144TIP3   OH248846   5.573   6.139  14.995  0.0448  0.4167  0.0472
 9144TIP3    H148847   5.482   6.152  14.966 -0.0021 -1.4873 -0.8656
 9144TIP3    H248848   5.568   6.134  15.090 -1.1476 -1.5265 -0.0644
 9145TIP3   OH248849   4.128   4.967   2.672  0.7004  0.0914  0.0452
 9145TIP3    H148850   4.200   4.912   2.639  0.2546  0.3598 -1.4643
 9145TIP3    H248851   4.085   4.999   2.593 -1.6063 -0.7268  0.8976
 9146TIP3   OH248852   5.515   2.646   0.047  0.3568 -0.4538  0.2860
 9146TIP3    H148853   5.450   2.703   0.006  1.4159  0.6321  0.0400
 9146TIP3    H248854   5.475   2.559   0.048 -1.8889  0.5098  1.9290
 9147TIP3   OH248855   1.098   1.726  11.887 -0.3704 -0.1329  0.1665
 9147TIP3    H148856   1.151   1.732  11.966  0.9420 -1.1689 -0.5777
 9147TIP3    H248857   1.154   1.760  11.817 -1.3199  0.3291 -0.3954
 9148TIP3   OH248858   0.093   3.925  13.084  0.0224  0.0255  0.3796
 9148TIP3    H148859   0.066   3.948  12.995 -0.0513 -1.2958  0.0410
 9148TIP3    H248860   0.189   3.933  13.082  0.0142  0.0993  0.2086
 9149TIP3   OH248861   6.423   5.343   0.413 -0.0691  0.0303  0.2844
 9149TIP3    H148862   6.332   5.360   0.390 -0.3010 -2.9563 -1.5850
 9149TIP3    H248863   6.473   5.376   0.339  0.0733 -0.8761 -0.0378
 9150TIP3   OH248864   4.525   3.349   4.507  0.0578  0.2840 -0.5552
 9150TIP3    H148865   4.451   3.357   4.567  0.4222  1.6262 -0.2388
 9150TIP3    H248866   4.602   3.360   4.563  0.4608 -0.0879 -1.0321
 9151TIP3   OH248867   2.418   0.161  14.283 -0.1008 -0.3457  0.0463
 9151TIP3    H148868   2.461   0.076  14.293  0.2362 -0.6616 -3.0142
 9151TIP3    H248869   2.489   0.224  14.272 -0.2358 -0.5700 -3.0252
 9152TIP3   OH248870   2.511   4.697  10.369  0.4660  0.4410 -0.1229
 9152TIP3    H148871   2.494   4.790  10.386  0.5016  0.4521 -0.1468
 9152TIP3    H248872   2.487   4.652  10.450 -1.6795  0.2113 -0.8241
 9153TIP3   OH248873   3.800   6.483  11.050  0.4029  0.0063  0.1665
 9153TIP3    H148874   3.743   6.427  10.997 -0.1774  0.7253  0.0222
 9153TIP3    H248875   3.875   6.501  10.994  0.1845  0.0747 -0.1088
 9154TIP3   OH248876   1.470   2.364   5.337  0.2710 -0.6675 -0.0337
 9154TIP3    H148877   1.487   2.277   5.373  1.4132 -0.2247  0.5335
 9154TIP3    H248878   1.414   2.407   5.402 -0.2049 -0.9364 -0.2631
 9155TIP3   OH248879   5.639   5.163  13.256  0.2635  0.0671  0.5282
 9155TIP3    H148880   5.605   5.074  13.263  1.3244 -0.2809  1.6609
 9155TIP3    H248881   5.728   5.158  13.290  0.6127  1.4247 -0.0847
 9156TIP3   OH248882   1.278   0.204  11.144  0.0881  0.1925  0.6872
 9156TIP3    H148883   1.234   0.286  11.119  1.8681  1.1754  0.6054
 9156TIP3    H248884   1.359   0.233  11.186 -0.0387 -1.5266  2.2266
 9157TIP3   OH248885   3.542   2.942  14.818 -0.3063 -1.0778 -0.0261
 9157TIP3    H148886   3.511   2.951  14.908  1.6398 -0.4906  0.6248
 9157TIP3    H248887   3.476   2.987  14.765 -0.0898  1.0019  1.3758
 9158TIP3   OH248888   3.241   0.423   1.474  0.0118  0.2589 -0.1811
 9158TIP3    H148889   3.163   0.391   1.430 -0.5611  2.3247 -0.8163
 9158TIP3    H248890   3.306   0.355   1.462 -1.5608 -1.3322 -0.0067
 9159TIP3   OH248891   0.938   3.242   2.166  0.1785  0.3438  0.5541
 9159TIP3    H148892   0.944   3.335   2.143 -1.9637 -0.1230 -2.5167
 9159TIP3    H248893   0.887   3.240   2.247 -1.1377  1.8536 -0.1752
 9160TIP3   OH248894   5.011   1.143   1.821 -0.1407  0.4453 -0.0295
 9160TIP3    H148895   5.028   1.171   1.911  1.3197  1.1177 -0.4777
 9160TIP3    H248896   5.060   1.205   1.767 -0.5382 -0.2782 -1.2714
 9161TIP3   OH248897   0.251   6.174   1.144  0.4822 -0.5280  0.4835
 9161TIP3    H148898   0.344   6.177   1.164  0.8278  1.8631 -0.9996
 9161TIP3    H248899   0.245   6.206   1.054 -1.7248 -1.2266  0.3273
 9162TIP3   OH248900   4.011   0.126   5.599 -0.1915  0.1808  0.2254
 9162TIP3    H148901   4.053   0.106   5.683  1.1588 -0.4414 -0.5659
 9162TIP3    H248902   4.016   0.044   5.550 -1.6705  0.3117 -0.2030
 9163TIP3   OH248903   2.579   2.476   0.451 -0.1477 -0.1281  0.1324
 9163TIP3    H148904   2.594   2.570   0.455  0.8137 -0.2796  0.2234
 9163TIP3    H248905   2.657   2.441   0.408 -0.4680 -0.8912  0.1535
 9164TIP3   OH248906   3.211   4.595   0.090  0.2383  0.1755 -0.0183
 9164TIP3    H148907   3.163   4.600   0.007  0.9156  4.2050 -0.3643
 9164TIP3    H248908   3.298   4.563   0.066  0.1683  0.4923 -0.7120
 9165TIP3   OH248909   2.564   3.826  14.701 -0.1348 -0.3556  0.3297
 9165TIP3    H148910   2.527   3.807  14.615  1.9393  0.5252 -0.8453
 9165TIP3    H248911   2.518   3.768  14.761 -1.3867 -1.2633 -1.4282
 9166TIP3   OH248912   2.337   0.370   1.069 -0.0796  0.4148 -0.1604
 9166TIP3    H148913   2.398   0.349   0.999 -1.2030  2.0924 -1.7240
 9166TIP3    H248914   2.291   0.448   1.039 -1.1041  0.7946  2.1602
 9167TIP3   OH248915   3.002   0.578   4.809  0.0466  0.6785 -0.0740
 9167TIP3    H148916   2.909   0.570   4.831  0.7274 -0.5514  2.8641
 9167TIP3    H248917   3.041   0.619   4.886  2.1478 -0.1563 -0.6415
 9168TIP3   OH248918   2.007   0.787  12.393 -0.4861 -0.6111  0.0609
 9168TIP3    H148919   2.002   0.880  12.415 -0.4357 -0.5959  0.0103
 9168TIP3    H248920   1.991   0.741  12.476  0.4783 -0.5472  0.2952
 9169TIP3   OH248921   2.515   0.358   5.454  0.2726 -0.1381  0.3494
 9169TIP3    H148922   2.443   0.420   5.463  1.0140  1.1548 -1.6822
 9169TIP3    H248923   2.485   0.296   5.387  0.9517  0.3271 -0.4090
 9170TIP3   OH248924   1.883   6.345  13.660  0.0089  0.0274  0.2753
 9170TIP3    H148925   1.931   6.428  13.666 -1.4180  0.8005  1.6072
 9170TIP3    H248926   1.799   6.363  13.702 -0.6461 -1.8806 -0.1430
 9171TIP3   OH248927   0.345   2.177   0.361  0.0994  0.2772  0.4591
 9171TIP3    H148928   0.395   2.174   0.443  1.8848 -0.3678 -0.5933
 9171TIP3    H248929   0.364   2.263   0.324  0.6284 -0.0523 -0.0503
 9172TIP3   OH248930   6.314   5.539  14.301  0.2774 -0.0563 -0.3066
 9172TIP3    H148931   6.357   5.619  14.331  0.3467 -0.4618  0.7211
 9172TIP3    H248932   6.380   5.496  14.246  0.1696  0.6750 -1.0216
 9173TIP3   OH248933   6.252   0.336   3.575  0.4191 -0.4419  0.7180
 9173TIP3    H148934   6.318   0.385   3.527  0.2419 -1.0061 -0.1149
 9173TIP3    H248935   6.185   0.314   3.510 -0.7687  0.4008  1.5982
 9174TIP3   OH248936   1.729   5.331  16.027  0.2530 -0.1640 -0.4317
 9174TIP3    H148937   1.726   5.349  16.121  0.2033 -0.1534 -0.4351
 9174TIP3    H248938   1.812   5.369  15.999  0.8515 -1.2457 -0.1753
 9175TIP3   OH248939   3.670   1.124  14.344  0.1353 -0.0620  0.1368
 9175TIP3    H148940   3.597   1.067  14.322  0.5453 -1.2666  1.7179
 9175TIP3    H248941   3.629   1.201  14.384 -0.4297  0.9359 -2.1821
 9176TIP3   OH248942   5.425   1.100  15.775 -0.1574 -0.1575 -0.7386
 9176TIP3    H148943   5.416   1.006  15.757  0.3910 -0.7925  1.8601
 9176TIP3    H248944   5.455   1.104  15.866 -2.4009  2.5826  0.0277
 9177TIP3   OH248945   2.705   5.644  17.121 -0.1317 -0.1930  0.0288
 9177TIP3    H148946   2.714   5.684  17.208  2.0855 -2.6591  1.0818
 9177TIP3    H248947   2.643   5.572  17.134  0.7675 -1.0385 -0.1798
 9178TIP3   OH248948   0.071   4.277  11.487 -0.2027  0.1110  0.2598
 9178TIP3    H148949   0.114   4.344  11.433 -1.1123 -0.5841 -1.4097
 9178TIP3    H248950   0.142   4.221  11.518  0.2508 -0.1567 -1.2109
 9179TIP3   OH248951   2.173   1.027  12.829 -0.0162 -0.3905  0.0859
 9179TIP3    H148952   2.229   1.089  12.782 -1.1585  0.3901 -0.2883
 9179TIP3    H248953   2.088   1.034  12.786 -0.8937 -0.2383  1.7648
 9180TIP3   OH248954   3.783   3.968   1.438  0.0352 -0.7765 -0.5152
 9180TIP3    H148955   3.839   3.981   1.514 -0.8266  0.7323 -0.0921
 9180TIP3    H248956   3.805   4.041   1.380 -1.3721 -0.2472 -0.4030
 9181TIP3   OH248957   1.105   4.032  15.218  0.1632  0.0151 -0.3303
 9181TIP3    H148958   1.011   4.039  15.232  0.4509  2.4219  0.9852
 9181TIP3    H248959   1.119   4.069  15.131 -0.2113 -1.9749 -1.3026
 9182TIP3   OH248960   0.735   4.820  14.233  0.5624 -0.1267  0.1562
 9182TIP3    H148961   0.728   4.833  14.139 -2.5341  0.0987  0.3085
 9182TIP3    H248962   0.746   4.726  14.244 -0.1395 -0.2763 -0.4124
 9183TIP3   OH248963   3.003   1.681   2.697  0.3906  0.1339  0.1286
 9183TIP3    H148964   3.084   1.714   2.658  0.8921 -0.9517  0.2139
 9183TIP3    H248965   2.965   1.756   2.742  2.5988  0.1304  2.1647
 9184TIP3   OH248966   2.899   2.912   2.523 -0.2841 -0.1730  0.5142
 9184TIP3    H148967   2.956   2.986   2.545 -0.6049 -0.6632  3.2686
 9184TIP3    H248968   2.883   2.868   2.606 -1.1897 -2.5965 -0.8497
 9185TIP3   OH248969   3.973   2.966  12.685  0.0819 -1.1624 -0.0298
 9185TIP3    H148970   3.888   3.005  12.670  0.2769 -0.7695 -0.1275
 9185TIP3    H248971   3.987   2.909  12.609  0.6674  0.1241 -0.9299
 9186TIP3   OH248972   4.707   5.930  11.132  0.0247  0.4608  0.0732
 9186TIP3    H148973   4.784   5.908  11.185  0.9858  2.8841 -0.2042
 9186TIP3    H248974   4.721   5.883  11.050  1.3689  1.0158 -0.0586
 9187TIP3   OH248975   2.978   3.677   3.462  0.5417 -0.9865  0.4808
 9187TIP3    H148976   3.033   3.729   3.521  1.0665 -0.1717 -0.6907
 9187TIP3    H248977   3.022   3.683   3.377 -2.4603  1.6709 -1.1088
 9188TIP3   OH248978   3.843   6.006  11.514  0.0533 -0.2814 -0.5766
 9188TIP3    H148979   3.764   5.981  11.561 -1.4021  2.0526 -1.5842
 9188TIP3    H248980   3.911   6.007  11.582 -1.4595  0.6820  1.0311
 9189TIP3   OH248981   1.440   1.810   4.134  0.0607  0.4416 -0.0704
 9189TIP3    H148982   1.351   1.831   4.162 -0.0621 -0.3167  0.1315
 9189TIP3    H248983   1.487   1.792   4.215 -0.2837 -1.7149 -0.2889
 9190TIP3   OH248984   2.702   0.902  15.407  1.0249  0.0160 -0.1152
 9190TIP3    H148985   2.752   0.939  15.480  0.4321  0.4544  0.0766
 9190TIP3    H248986   2.717   0.963  15.335 -2.1206  2.3045  0.9122
 9191TIP3   OH248987   4.651   2.495   4.409 -0.6247 -0.0083  0.3578
 9191TIP3    H148988   4.584   2.472   4.345 -0.2024 -0.4312  0.0583
 9191TIP3    H248989   4.687   2.578   4.378  0.1978 -0.6492 -0.4758
 9192TIP3   OH248990   3.483   6.307  14.003  0.3848  0.1472 -0.0233
 9192TIP3    H148991   3.421   6.236  14.019  0.3744  0.2457  0.3903
 9192TIP3    H248992   3.556   6.288  14.063  0.7188  0.0754 -0.4495
 9193TIP3   OH248993   3.805   2.589  16.563 -0.4974  0.7641  0.0762
 9193TIP3    H148994   3.727   2.556  16.609  0.3128  0.2820  1.1440
 9193TIP3    H248995   3.785   2.576  16.471 -1.6538  0.5735  0.3351
 9194TIP3   OH248996   5.546   1.454  14.530  0.3090 -0.1090 -0.7609
 9194TIP3    H148997   5.565   1.486  14.442 -0.3580  0.0273 -0.8573
 9194TIP3    H248998   5.454   1.476  14.545  1.3436  3.4810  1.5265
 9195TIP3   OH248999   2.285   5.954   0.485  0.2152 -0.6324  0.1106
 9195TIP3    H149000   2.306   5.867   0.450  1.0769  0.3278 -1.9188
 9195TIP3    H249001   2.335   5.960   0.566  1.4784 -1.4086 -0.5836
 9196TIP3   OH249002   1.218   5.832  15.902 -0.0094  0.1612  0.1993
 9196TIP3    H149003   1.190   5.893  15.833  2.9392  0.4514 -0.9128
 9196TIP3    H249004   1.218   5.746  15.860 -2.5455 -0.4574  1.2793
 9197TIP3   OH249005   4.983   5.657  15.153 -0.6620  0.1396 -0.2335
 9197TIP3    H149006   5.040   5.598  15.202  1.0908  1.3848 -0.6795
 9197TIP3    H249007   5.043   5.719  15.112 -2.3759  1.6038 -0.6233
 9198TIP3   OH249008   4.581   4.166   3.782  0.0191 -0.0385  0.4868
 9198TIP3    H149009   4.655   4.221   3.809  0.2009  1.3790 -2.4223
 9198TIP3    H249010   4.522   4.226   3.737 -1.7154 -1.6012  0.5747
 9199TIP3   OH249011   4.503   3.169   1.335 -0.1647 -0.8419  0.1444
 9199TIP3    H149012   4.464   3.124   1.410  0.3713  0.8555  1.4993
 9199TIP3    H249013   4.542   3.099   1.283 -0.5477 -2.0644  1.4431
 9200TIP3   OH249014   2.320   4.116  13.310 -0.4246 -0.2568 -0.2984
 9200TIP3    H149015   2.236   4.160  13.295 -0.1859  0.3207  0.0126
 9200TIP3    H249016   2.300   4.023  13.304 -1.1863 -0.1416  0.2756
 9201TIP3   OH249017   1.302   1.970   1.791  0.8214 -0.1102 -0.1151
 9201TIP3    H149018   1.209   1.960   1.772  0.7686 -1.4761  0.7129
 9201TIP3    H249019   1.345   1.906   1.734  1.2556  0.3912 -0.3681
 9202TIP3   OH249020   0.736   2.351   2.489  0.0228  0.5168  0.2113
 9202TIP3    H149021   0.746   2.397   2.405 -0.2602 -1.4099 -0.9496
 9202TIP3    H249022   0.669   2.400   2.535  1.0445  2.3470 -0.1299
 9203TIP3   OH249023   3.216   2.909  10.918  0.4086 -0.2909  0.2117
 9203TIP3    H149024   3.170   2.967  10.979  1.0468 -1.1624  1.5779
 9203TIP3    H249025   3.193   2.942  10.832 -2.7958 -0.6648  0.7893
 9204TIP3   OH249026   3.234   6.609  16.271 -0.1649 -0.3209 -0.5012
 9204TIP3    H149027   3.196   6.584  16.355  1.9108 -1.0997  0.2773
 9204TIP3    H249028   3.252   6.702  16.280 -0.8820 -0.1807 -0.4789
 9205TIP3   OH249029   3.321   0.607   5.173  0.0293  0.3129 -0.7120
 9205TIP3    H149030   3.411   0.639   5.166  0.3111 -0.5308 -0.9938
 9205TIP3    H249031   3.323   0.519   5.135 -1.2335  0.8546 -2.1222
 9206TIP3   OH249032   5.110   5.082   1.110 -0.4346  0.0075  0.0418
 9206TIP3    H149033   5.129   5.154   1.169  0.6413  0.4341 -0.7784
 9206TIP3    H249034   5.052   5.024   1.159  1.2003 -0.1540  1.8776
 9207TIP3   OH249035   5.215   3.783  13.631  0.1914 -0.2600  0.1836
 9207TIP3    H149036   5.165   3.727  13.690  1.1972 -1.8912 -0.4305
 9207TIP3    H249037   5.159   3.791  13.553 -0.6490  0.9611  0.8906
 9208TIP3   OH249038   0.361   6.054   2.046 -0.5065  0.2454  0.2207
 9208TIP3    H149039   0.320   6.131   2.006 -0.5919  0.9928  1.6700
 9208TIP3    H249040   0.391   6.002   1.972 -1.0819  1.3286 -0.8162
 9209TIP3   OH249041   4.335   3.835  15.905 -0.0408 -0.0364  0.2251
 9209TIP3    H149042   4.397   3.853  15.834 -0.5247 -0.0719 -0.2128
 9209TIP3    H249043   4.346   3.909  15.965  0.7795 -0.2985  0.4102
 9210TIP3   OH249044   4.950   2.544  16.887  0.2797  0.1624  0.3974
 9210TIP3    H149045   5.042   2.564  16.870  0.1975 -0.6551 -1.2089
 9210TIP3    H249046   4.909   2.629  16.903  0.6733  0.9736 -2.3778
 9211TIP3   OH249047   1.433   3.149  11.680 -0.1282  0.0434 -0.0189
 9211TIP3    H149048   1.519   3.126  11.644 -0.2732 -0.5912  0.0358
 9211TIP3    H249049   1.431   3.245  11.677  1.0156  0.1204  0.9800
 9212TIP3   OH249050   1.441   1.152   2.588  0.4723 -0.4530 -0.5375
 9212TIP3    H149051   1.435   1.142   2.683  0.1875 -0.4778 -0.5584
 9212TIP3    H249052   1.503   1.224   2.576 -0.7482  0.6904 -0.2879
 9213TIP3   OH249053   5.665   3.140  16.804 -0.5121 -0.2363  0.4809
 9213TIP3    H149054   5.570   3.138  16.795 -0.7709  1.2501  2.3039
 9213TIP3    H249055   5.697   3.169  16.719 -1.5734 -1.9644 -0.5459
 9214TIP3   OH249056   1.849   2.044   5.843 -0.2278 -0.4335  0.4776
 9214TIP3    H149057   1.917   2.109   5.826  2.0595 -2.3997  1.4122
 9214TIP3    H249058   1.804   2.033   5.759 -0.4202  1.9724  0.2010
 9215TIP3   OH249059   1.559   2.948  11.049  0.1878 -0.1695 -0.7125
 9215TIP3    H149060   1.648   2.982  11.056  1.0911 -2.4465 -0.4683
 9215TIP3    H249061   1.526   2.985  10.967  1.5030  0.3690 -1.0239
 9216TIP3   OH249062   3.972   2.430  12.291  0.1007  0.1308 -0.1623
 9216TIP3    H149063   4.007   2.502  12.239 -1.2370  0.0458 -1.2190
 9216TIP3    H249064   4.046   2.369  12.299  0.7334  0.8043 -0.7309
 9217TIP3   OH249065   5.842   4.528  15.654  0.0799 -0.4657  0.1590
 9217TIP3    H149066   5.922   4.487  15.620  1.2995  1.2036  0.8448
 9217TIP3    H249067   5.817   4.473  15.728 -0.0380 -1.5939 -0.6810
 9218TIP3   OH249068   0.785   3.882   3.864  0.3950 -0.3730  0.1836
 9218TIP3    H149069   0.859   3.908   3.809  0.4960 -2.1489 -0.5820
 9218TIP3    H249070   0.728   3.832   3.805 -0.8348 -0.0506  1.0572
 9219TIP3   OH249071   6.062   6.173   4.634 -0.6677 -0.6192 -0.4652
 9219TIP3    H149072   6.021   6.096   4.673 -0.5325  0.1770  1.3335
 9219TIP3    H249073   6.150   6.175   4.671 -0.3937 -0.0324 -1.1182
 9220TIP3   OH249074   3.242   2.240   2.098 -0.0572  0.6718  0.2307
 9220TIP3    H149075   3.153   2.263   2.123  0.7461  1.6493  2.5072
 9220TIP3    H249076   3.275   2.188   2.172  0.9406 -0.6094 -1.0455
 9221TIP3   OH249077   2.397   6.716  17.282  0.1637  0.6339 -0.1113
 9221TIP3    H149078   2.420   6.752  17.368  0.5731  0.9838 -0.3663
 9221TIP3    H249079   2.379   6.623  17.299 -1.2789  1.0107  0.6223
 9222TIP3   OH249080   5.539   5.306   0.863 -0.0477 -0.8394 -0.0204
 9222TIP3    H149081   5.574   5.284   0.949  0.2627  0.7758  0.2938
 9222TIP3    H249082   5.613   5.346   0.817 -1.3175  2.4476  0.5745
 9223TIP3   OH249083   1.110   3.521   3.604 -0.4063  0.2338  0.7841
 9223TIP3    H149084   1.186   3.463   3.604 -0.0166  0.7314 -0.4012
 9223TIP3    H249085   1.117   3.570   3.686 -0.3348 -0.8433  1.4402
 9224TIP3   OH249086   5.915   4.351  14.441 -0.4481  0.1425  0.2985
 9224TIP3    H149087   5.907   4.409  14.366 -1.9290  1.4198  1.3777
 9224TIP3    H249088   5.863   4.274  14.418  0.2106 -0.0712 -0.5049
 9225TIP3   OH249089   2.700   4.189   4.594  0.1872 -0.3129  0.1398
 9225TIP3    H149090   2.611   4.221   4.579 -0.9446 -3.1510  0.2092
 9225TIP3    H249091   2.746   4.207   4.512 -1.1048 -0.7055 -0.7102
 9226TIP3   OH249092   4.780   3.022   5.388  0.0104  0.1774 -0.7450
 9226TIP3    H149093   4.756   2.931   5.373  0.1293  0.1651 -0.8631
 9226TIP3    H249094   4.830   3.021   5.469 -0.8838  0.2828 -0.1718
 9227TIP3   OH249095   0.910   1.598   3.562 -0.2616 -0.0734 -0.2939
 9227TIP3    H149096   0.866   1.561   3.639 -0.8580  0.3081 -0.4442
 9227TIP3    H249097   0.919   1.691   3.583 -1.6724  0.2947 -1.2613
 9228TIP3   OH249098   3.811   4.002   5.848 -0.0038  0.1415 -0.0689
 9228TIP3    H149099   3.874   4.026   5.915 -0.7624  0.6914  0.4665
 9228TIP3    H249100   3.728   3.993   5.895 -0.0653 -2.1037 -0.4766
 9229TIP3   OH249101   6.661   4.116   2.112  0.2272 -0.0601 -0.3351
 9229TIP3    H149102   6.737   4.076   2.155  0.2453 -0.2078 -0.5012
 9229TIP3    H249103   6.631   4.050   2.050 -0.0998 -0.0389 -0.1988
 9230TIP3   OH249104   4.263   3.864  11.319 -0.2167 -0.7217  0.1648
 9230TIP3    H149105   4.252   3.806  11.394 -0.7781 -0.1570  0.5298
 9230TIP3    H249106   4.301   3.808  11.251  1.4864 -0.9379  1.2561
 9231TIP3   OH249107   0.255   3.190  13.943  0.3885 -0.0490 -0.3493
 9231TIP3    H149108   0.241   3.256  14.011 -1.1069 -1.7233  1.0982
 9231TIP3    H249109   0.268   3.240  13.863 -1.5153  2.0054  0.5197
 9232TIP3   OH249110   0.935   4.589  11.184 -0.0853  0.8229  0.3505
 9232TIP3    H149111   0.881   4.547  11.117  1.0097  0.5684 -0.3894
 9232TIP3    H249112   1.025   4.573  11.156  0.4080  0.4629  2.0337
 9233TIP3   OH249113   0.349   3.246  15.442  0.3414  0.4659  0.5937
 9233TIP3    H149114   0.314   3.158  15.452 -0.2707  0.0752 -3.4291
 9233TIP3    H249115   0.442   3.237  15.460  0.1470 -0.7888  1.0648
 9234TIP3   OH249116   1.348   4.361  14.123  0.4944  0.1230  0.2318
 9234TIP3    H149117   1.394   4.343  14.205  0.5322 -0.4806  0.0754
 9234TIP3    H249118   1.372   4.290  14.065 -1.6378 -0.9484  0.5649
 9235TIP3   OH249119   3.312   4.194   3.207 -0.1899 -0.0035  0.2811
 9235TIP3    H149120   3.360   4.187   3.290  0.8734  0.3148 -0.2775
 9235TIP3    H249121   3.273   4.281   3.210  0.6589  0.3997  0.0536
 9236TIP3   OH249122   5.654   3.301   0.302  0.2979  0.5566  0.5433
 9236TIP3    H149123   5.686   3.264   0.385  1.2776  0.1481  0.0091
 9236TIP3    H249124   5.562   3.323   0.319 -0.0879 -1.3427  1.1596
 9237TIP3   OH249125   2.477   4.417  14.996 -0.1030 -0.0874  0.3994
 9237TIP3    H149126   2.454   4.504  15.026  1.7057  1.0856 -1.3648
 9237TIP3    H249127   2.564   4.401  15.033 -0.7288 -1.5483  1.3747
 9238TIP3   OH249128   6.383   6.490  11.397  0.3220  0.5150 -0.4874
 9238TIP3    H149129   6.451   6.474  11.332  0.0601 -3.3082 -0.0445
 9238TIP3    H249130   6.389   6.584  11.416  3.6207  0.8318 -2.4094
 9239TIP3   OH249131   0.263   6.232  12.921 -0.3945  0.4475  0.2175
 9239TIP3    H149132   0.265   6.137  12.909  1.9909  0.5149 -0.5271
 9239TIP3    H249133   0.356   6.258  12.921 -0.9801  2.7731  0.4627
 9240TIP3   OH249134   1.552   4.185   0.787 -0.5849 -0.0409  0.4332
 9240TIP3    H149135   1.472   4.225   0.754 -0.8823  0.7084  1.9886
 9240TIP3    H249136   1.561   4.218   0.876  0.4303 -1.6200  0.9627
 9241TIP3   OH249137   2.591   5.919  16.817  0.3459  0.2190 -0.6324
 9241TIP3    H149138   2.627   5.984  16.756  0.5578  0.4764 -0.2393
 9241TIP3    H249139   2.667   5.868  16.845  0.3309  0.4240 -0.2062
 9242TIP3   OH249140   4.722   1.134   3.861 -0.0029  0.5133 -0.7506
 9242TIP3    H149141   4.757   1.152   3.774 -0.7276 -1.2008 -1.4339
 9242TIP3    H249142   4.771   1.057   3.891  0.5338  1.3318  0.5467
 9243TIP3   OH249143   5.291   5.738  14.138 -0.0586 -0.5004  0.3433
 9243TIP3    H149144   5.308   5.682  14.062 -3.1893 -0.7360 -0.2867
 9243TIP3    H249145   5.328   5.689  14.212  2.1353 -0.7389 -0.8160
 9244TIP3   OH249146   0.807   3.486   1.023  0.0139  0.2121  0.1959
 9244TIP3    H149147   0.778   3.530   0.944  1.8904  2.2866  0.5537
 9244TIP3    H249148   0.727   3.456   1.066 -1.0479 -0.8495 -2.3538
 9245TIP3   OH249149   0.735   4.006  10.813 -0.2511 -0.1534  0.1013
 9245TIP3    H149150   0.814   4.047  10.778  0.6394 -1.2523  0.7296
 9245TIP3    H249151   0.767   3.927  10.856 -1.5260  0.0998  1.6138
 9246TIP3   OH249152   5.428   4.592   2.493  0.4589  0.1614 -0.0418
 9246TIP3    H149153   5.476   4.624   2.570 -0.4887  1.2411  0.1262
 9246TIP3    H249154   5.471   4.509   2.471  1.0035  0.0290  1.4064
 9247TIP3   OH249155   6.356   4.237  16.488 -0.2144  0.1203  0.0098
 9247TIP3    H149156   6.272   4.279  16.502 -1.2267 -2.4131  2.4649
 9247TIP3    H249157   6.334   4.146  16.466  1.8768 -0.3601 -0.3198
 9248TIP3   OH249158   4.362   1.530   2.560  0.0418  0.4976  0.1921
 9248TIP3    H149159   4.397   1.514   2.648 -1.2516 -0.6136  0.5346
 9248TIP3    H249160   4.419   1.598   2.524  1.2612  0.2113  1.4788
 9249TIP3   OH249161   2.345   2.732  16.511 -0.9964 -0.5000  0.1262
 9249TIP3    H149162   2.343   2.748  16.417 -0.1415 -1.4901 -0.0738
 9249TIP3    H249163   2.329   2.818  16.551  0.3098  0.2476 -0.9022
 9250TIP3   OH249164   5.333   0.353  16.098  0.5886 -0.3801 -0.6423
 9250TIP3    H149165   5.239   0.337  16.098  0.9626 -3.1173 -0.1030
 9250TIP3    H249166   5.342   0.445  16.125 -1.8862 -0.1126 -0.4947
 9251TIP3   OH249167   6.711   5.695   1.590  0.4124  0.6507  0.0136
 9251TIP3    H149168   6.683   5.786   1.592 -0.9542  0.4242 -2.8844
 9251TIP3    H249169   6.805   5.699   1.572  0.6900  1.4390  1.4855
 9252TIP3   OH249170   5.427   6.646   4.411  0.1487  0.2482  0.3523
 9252TIP3    H149171   5.461   6.729   4.378 -0.6400  0.7468  0.7614
 9252TIP3    H249172   5.370   6.671   4.484  0.2338 -0.6859  0.7473
 9253TIP3   OH249173   5.693   2.621  12.729  0.2098  0.3950 -0.0989
 9253TIP3    H149174   5.608   2.630  12.686 -0.9057 -0.6687  1.7290
 9253TIP3    H249175   5.728   2.539  12.694  1.3152  1.6226 -2.0731
 9254TIP3   OH249176   5.895   0.905  14.843  0.0929  0.5324 -0.1825
 9254TIP3    H149177   5.837   0.947  14.778 -1.1048 -1.9787 -0.8679
 9254TIP3    H249178   5.837   0.845  14.890  1.2837  1.1498  2.2230
 9255TIP3   OH249179   1.663   2.952  12.650  0.2930  0.2726  0.5606
 9255TIP3    H149180   1.722   2.888  12.610  1.7383 -0.9873  4.2993
 9255TIP3    H249181   1.716   3.032  12.655 -0.0576  0.5744 -0.3997
 9256TIP3   OH249182   0.820   4.753   1.364  0.9371  0.0285 -0.3911
 9256TIP3    H149183   0.782   4.740   1.277 -0.4734 -0.9081  0.3187
 9256TIP3    H249184   0.782   4.835   1.395  0.8586 -0.0165 -0.3681
 9257TIP3   OH249185   4.259   4.275  11.482  0.0418  0.0515 -0.3366
 9257TIP3    H149186   4.235   4.342  11.547  0.1179 -0.3610  0.1253
 9257TIP3    H249187   4.240   4.192  11.526  1.8136 -0.2973 -0.1403
 9258TIP3   OH249188   0.040   4.147  15.081 -0.0837  0.1218 -0.6750
 9258TIP3    H149189   0.008   4.100  15.004 -1.8347  0.4939 -0.2250
 9258TIP3    H249190   0.088   4.222  15.046 -1.4418  0.6712 -1.4307
 9259TIP3   OH249191   0.683   5.459   0.052  0.4916  0.1509  0.2860
 9259TIP3    H149192   0.744   5.530   0.069  0.4313  0.2083  0.2613
 9259TIP3    H249193   0.599   5.490   0.087  0.7135 -0.3666  1.3255
 9260TIP3   OH249194   2.019   0.050  12.613 -0.0392  0.3020  0.1583
 9260TIP3    H149195   2.047   0.002  12.535 -1.5706  1.0682 -0.9379
 9260TIP3    H249196   2.100   0.073  12.658  1.1116  1.6023 -2.3199
 9261TIP3   OH249197   5.310   6.070   2.117  0.5858  0.3881  0.2344
 9261TIP3    H149198   5.339   6.145   2.064 -0.0498  0.5626  0.1246
 9261TIP3    H249199   5.390   6.038   2.158  0.7814  1.5271  0.7941
 9262TIP3   OH249200   0.558   2.856  15.872  0.0159 -0.3623 -0.1094
 9262TIP3    H149201   0.575   2.904  15.791 -0.6605 -1.3638 -0.8793
 9262TIP3    H249202   0.491   2.907  15.917 -0.0741 -0.1340 -0.5024
 9263TIP3   OH249203   0.519   0.146  14.565  0.2958 -0.5458  0.2800
 9263TIP3    H149204   0.470   0.212  14.517  2.2731  1.0141  0.3109
 9263TIP3    H249205   0.578   0.107  14.500 -0.0012 -1.4651  0.5371
 9264TIP3   OH249206   6.035   4.655  14.139 -0.0616 -0.1175  0.2093
 9264TIP3    H149207   5.966   4.598  14.171  0.2570  0.0688  1.2475
 9264TIP3    H249208   6.066   4.703  14.216 -0.3539  1.5052 -0.6228
 9265TIP3   OH249209   3.724   0.430  11.976 -0.1035 -0.2819  0.3917
 9265TIP3    H149210   3.756   0.410  11.889  0.2841 -2.2313  0.9353
 9265TIP3    H249211   3.648   0.487  11.962  1.9196  2.2407 -1.0339
 9266TIP3   OH249212   4.006   2.789   2.292  0.2515 -0.1162  0.2528
 9266TIP3    H149213   3.998   2.823   2.381  1.3170 -1.4029  0.8870
 9266TIP3    H249214   4.030   2.865   2.239 -0.6744  0.7223  0.9927
 9267TIP3   OH249215   2.995   4.349  12.275  0.2858  0.0557 -0.3678
 9267TIP3    H149216   2.905   4.317  12.284 -0.3412  1.6435 -0.6533
 9267TIP3    H249217   3.016   4.338  12.182  0.0035  0.6240 -0.5017
 9268TIP3   OH249218   3.292   6.693  16.551 -0.7343 -0.1189  0.3623
 9268TIP3    H149219   3.295   6.782  16.586  0.1830 -0.6706  1.7418
 9268TIP3    H249220   3.379   6.679  16.514 -0.7146 -0.6325  0.6097
 9269TIP3   OH249221   2.022   1.205   3.710 -0.0402 -0.1807 -0.3939
 9269TIP3    H149222   2.037   1.212   3.804  1.1482  0.1723 -0.5936
 9269TIP3    H249223   2.106   1.177   3.674  0.3112  2.1786 -1.6213
 9270TIP3   OH249224   3.366   5.432  14.449  0.3529  0.3358  0.4050
 9270TIP3    H149225   3.442   5.488  14.464  0.5985  0.0080  0.3979
 9270TIP3    H249226   3.398   5.343  14.464  0.2442  0.1102 -0.5926
 9271TIP3   OH249227   2.651   1.759   3.834  0.1240 -0.4465 -0.3564
 9271TIP3    H149228   2.678   1.833   3.888  1.3040 -0.8391 -0.3784
 9271TIP3    H249229   2.563   1.738   3.864 -1.0091  2.0983 -1.5682
 9272TIP3   OH249230   0.652   4.256   0.492 -0.6725 -0.6043 -0.2888
 9272TIP3    H149231   0.619   4.168   0.472  0.7417 -2.0463  2.9302
 9272TIP3    H249232   0.735   4.262   0.444 -1.5531 -0.2535 -1.8581
 9273TIP3   OH249233   4.326   1.864   0.612  0.0549  0.8656 -0.0609
 9273TIP3    H149234   4.266   1.803   0.570 -0.8196  1.8810 -0.3281
 9273TIP3    H249235   4.372   1.812   0.677 -1.5928  0.2041  0.6138
 9274TIP3   OH249236   4.461   0.167  12.404 -0.0830 -0.2457 -0.2086
 9274TIP3    H149237   4.521   0.093  12.410 -0.6812 -0.9081 -1.7523
 9274TIP3    H249238   4.419   0.156  12.319 -2.3334  0.2415  0.7710
 9275TIP3   OH249239   5.493   3.982  10.489 -0.4518 -0.4733  0.7996
 9275TIP3    H149240   5.397   3.979  10.494 -0.4521 -0.9443  0.6020
 9275TIP3    H249241   5.511   4.022  10.404 -0.4739 -0.2353  0.9074
 9276TIP3   OH249242   5.773   5.033  16.754 -0.2898  0.3637 -0.0100
 9276TIP3    H149243   5.740   5.032  16.665  2.5947  1.8271 -1.2281
 9276TIP3    H249244   5.868   5.037  16.745  0.1510 -0.0544  3.1487
 9277TIP3   OH249245   2.582   0.213  16.356 -0.2276 -0.5078  0.4297
 9277TIP3    H149246   2.526   0.290  16.365 -0.6166 -0.6051 -0.9390
 9277TIP3    H249247   2.594   0.182  16.446 -1.2774  0.2900  0.8721
 9278TIP3   OH249248   0.391   3.912   1.726  0.3049  0.1418  0.2923
 9278TIP3    H149249   0.424   3.997   1.754 -1.5157  0.9172  0.1699
 9278TIP3    H249250   0.343   3.929   1.645 -2.0456 -0.5727  1.4673
 9279TIP3   OH249251   5.549   5.482   6.272  0.0982  0.1831 -0.4876
 9279TIP3    H149252   5.578   5.458   6.184 -0.0081 -0.7248 -0.2921
 9279TIP3    H249253   5.500   5.563   6.261 -0.2395 -0.1308 -1.3276
 9280TIP3   OH249254   6.129   3.718   0.331  0.5732  0.0536  0.2988
 9280TIP3    H149255   6.050   3.712   0.385 -0.5193  0.3349 -1.1839
 9280TIP3    H249256   6.150   3.811   0.329  0.6959  0.0276  0.3470
 9281TIP3   OH249257   0.992   6.294  17.384 -0.1514 -0.2568 -0.1947
 9281TIP3    H149258   1.077   6.282  17.341  0.5995 -0.7511  1.3590
 9281TIP3    H249259   0.933   6.236  17.337  0.7543 -1.1454 -0.2671
 9282TIP3   OH249260   1.381   1.327  12.247  0.7636 -0.0290  0.0917
 9282TIP3    H149261   1.337   1.249  12.213  1.7108 -0.3978 -0.3510
 9282TIP3    H249262   1.319   1.366  12.307 -1.2531  0.9467 -2.4369
 9283TIP3   OH249263   1.752   2.401  16.659 -0.2641 -0.2362 -0.6359
 9283TIP3    H149264   1.785   2.409  16.569  2.1079  0.6725  0.2482
 9283TIP3    H249265   1.797   2.323  16.694  1.4767  1.2886  0.7393
 9284TIP3   OH249266   6.569   2.369   4.904 -0.5890  0.2717  0.3054
 9284TIP3    H149267   6.523   2.453   4.904 -0.1438  0.6197 -2.3132
 9284TIP3    H249268   6.502   2.305   4.878 -0.3198  0.2943 -0.4788
 9285TIP3   OH249269   3.942   3.742  14.417 -0.5013 -0.1407 -0.5362
 9285TIP3    H149270   4.017   3.694  14.453 -0.7046 -0.6305 -0.7502
 9285TIP3    H249271   3.937   3.822  14.469 -0.6021 -0.6963  0.3271
 9286TIP3   OH249272   0.048   4.566   2.578  0.1225 -0.7576  0.6216
 9286TIP3    H149273   0.108   4.579   2.651 -0.4106 -0.4761  1.0136
 9286TIP3    H249274   0.026   4.472   2.581 -0.3310 -0.6387  1.1701
 9287TIP3   OH249275   3.909   5.114  13.706 -0.1568 -0.4496 -0.4045
 9287TIP3    H149276   3.936   5.023  13.701  1.2178 -0.0537 -0.7181
 9287TIP3    H249277   3.821   5.111  13.742  0.6006 -1.8120  1.5319
 9288TIP3   OH249278   6.297   6.089   6.324 -0.5354 -0.5866 -0.3968
 9288TIP3    H149279   6.327   6.135   6.402  2.3249 -1.4903 -0.8513
 9288TIP3    H249280   6.348   6.128   6.253  1.0172 -3.4200 -0.9725
 9289TIP3   OH249281   3.949   0.086   3.906 -0.1511 -0.0647  0.2526
 9289TIP3    H149282   3.964   0.069   3.999 -1.9210 -0.9305  0.4378
 9289TIP3    H249283   3.857   0.063   3.892  0.6892 -2.4457 -2.2616
 9290TIP3   OH249284   5.741   3.035  13.535 -0.2326 -0.0556  0.6192
 9290TIP3    H149285   5.702   2.970  13.593 -0.6397 -0.0455  0.3656
 9290TIP3    H249286   5.832   3.039  13.561  0.0508 -1.4859 -0.0280
 9291TIP3   OH249287   6.623   1.586   0.157 -0.5427 -0.6462  0.1616
 9291TIP3    H149288   6.677   1.633   0.220  0.5175  1.5879 -2.2206
 9291TIP3    H249289   6.592   1.653   0.097  0.4519 -2.7936 -3.0418
 9292TIP3   OH249290   0.894   0.136  10.897  0.6103 -0.4125  0.0772
 9292TIP3    H149291   0.899   0.082  10.976 -1.3621 -1.0573 -0.1800
 9292TIP3    H249292   0.857   0.219  10.927  0.4829 -0.4167 -0.0688
 9293TIP3   OH249293   3.967   4.344  11.655 -0.0448 -0.0918  0.5636
 9293TIP3    H149294   3.934   4.391  11.579 -0.8635 -0.1977  0.8425
 9293TIP3    H249295   4.049   4.388  11.677 -1.1768  1.7721  1.3065
 9294TIP3   OH249296   2.593   4.893  15.608 -0.7468  0.0642  0.0600
 9294TIP3    H149297   2.565   4.979  15.575 -2.7785  0.2328  1.9985
 9294TIP3    H249298   2.518   4.836  15.592 -0.0612 -0.9292  0.3317
 9295TIP3   OH249299   4.667   6.568   5.112  0.1229 -0.0787  0.2186
 9295TIP3    H149300   4.709   6.542   5.029 -1.3949 -0.8759 -0.3475
 9295TIP3    H249301   4.725   6.634   5.149  1.1120 -0.0924 -1.2277
 9296TIP3   OH249302   4.952   6.260  16.671 -0.2989 -0.4990  0.0173
 9296TIP3    H149303   5.029   6.230  16.720 -0.1204 -1.1706 -0.6553
 9296TIP3    H249304   4.966   6.354  16.660 -0.1674 -0.3984  0.9274
 9297TIP3   OH249305   1.319   5.881  13.971 -0.2282  0.2526 -0.4195
 9297TIP3    H149306   1.317   5.923  14.057 -0.0034  0.9528 -0.7510
 9297TIP3    H249307   1.314   5.954  13.908  0.0948 -0.2193 -1.0036
 9298TIP3   OH249308   5.857   3.628  15.828  1.1833 -0.1147  0.7546
 9298TIP3    H149309   5.808   3.562  15.876  0.2377 -1.0616 -1.3814
 9298TIP3    H249310   5.932   3.581  15.792  0.7894  0.0534 -0.3362
 9299TIP3   OH249311   6.169   4.089  14.453 -0.5050  0.4453  0.5169
 9299TIP3    H149312   6.091   4.122  14.497 -0.7869  0.8389 -0.2582
 9299TIP3    H249313   6.142   4.005  14.415 -0.3627  0.2753  0.7863
 9300TIP3   OH249314   2.477   3.636   3.838  0.2414 -0.2725  0.2313
 9300TIP3    H149315   2.421   3.572   3.882 -1.5670  1.0676 -0.0178
 9300TIP3    H249316   2.510   3.589   3.761  1.6234 -1.8992  1.7145
 9301TIP3   OH249317   2.706   0.118   1.289 -0.4398  0.1516 -0.3386
 9301TIP3    H149318   2.737   0.128   1.379 -0.4532  0.3718 -0.3589
 9301TIP3    H249319   2.617   0.153   1.291 -0.4433  0.1483 -0.4354
 9302TIP3   OH249320   4.407   2.637   0.632  0.7710 -0.4409 -0.1298
 9302TIP3    H149321   4.320   2.616   0.599  0.7477 -0.9141  0.2241
 9302TIP3    H249322   4.442   2.702   0.571 -0.8161  1.6642  1.0724
 9303TIP3   OH249323   4.116   0.461  14.900 -0.1552  0.0923  0.0936
 9303TIP3    H149324   4.181   0.486  14.966  0.8301  0.0545 -0.8304
 9303TIP3    H249325   4.087   0.374  14.927  0.7611 -0.2197  0.1006
 9304TIP3   OH249326   5.247   6.285  11.341 -0.3882  0.0077 -0.3877
 9304TIP3    H149327   5.186   6.244  11.402  1.9342 -1.4097  1.1454
 9304TIP3    H249328   5.248   6.377  11.366 -0.1742 -0.3826  1.1343
 9305TIP3   OH249329   6.224   3.467  17.112  0.3548  0.0220 -0.2755
 9305TIP3    H149330   6.305   3.495  17.069  0.5315  2.1850  1.2708
 9305TIP3    H249331   6.253   3.426  17.193 -0.0057 -3.3418 -1.6659
 9306TIP3   OH249332   3.955   2.152   0.964 -0.7027 -0.2382 -0.2401
 9306TIP3    H149333   3.975   2.072   1.013 -1.5123  0.1343  0.7387
 9306TIP3    H249334   3.863   2.141   0.937 -0.9793  0.5806  0.3431
 9307TIP3   OH249335   4.661   5.915   2.118 -0.2961 -0.2386  0.7410
 9307TIP3    H149336   4.607   5.985   2.082  0.2992  0.6196  1.4958
 9307TIP3    H249337   4.750   5.949   2.116 -0.0097 -0.9350  1.2081
 9308TIP3   OH249338   4.119   0.232   3.568  0.1911  0.0782 -0.1514
 9308TIP3    H149339   4.104   0.321   3.536 -0.6190  0.9143  2.3399
 9308TIP3    H249340   4.184   0.242   3.637  0.3022 -1.3250 -0.0261
 9309TIP3   OH249341   0.234   3.018   0.209 -0.0943  0.2110 -0.1647
 9309TIP3    H149342   0.303   2.983   0.152 -0.7764 -0.3822 -0.6479
 9309TIP3    H249343   0.163   3.043   0.149 -0.4329  0.5030  0.3479
 9310TIP3   OH249344   1.813   2.620  16.300 -0.2104  0.5663  0.2771
 9310TIP3    H149345   1.835   2.678  16.372 -1.1861  0.2588  0.8495
 9310TIP3    H249346   1.747   2.668  16.249 -1.0459 -0.0165  0.7690
 9311TIP3   OH249347   4.021   3.236  15.778 -0.1972 -0.3705 -0.2161
 9311TIP3    H149348   4.083   3.236  15.851  0.2533 -1.3490 -0.5873
 9311TIP3    H249349   3.991   3.326  15.773  0.7139 -0.0157  0.3779
 9312TIP3   OH249350   4.686   5.020  16.300  0.6401  1.0224  0.1700
 9312TIP3    H149351   4.657   5.106  16.329  0.8693  1.6580 -1.3639
 9312TIP3    H249352   4.743   5.038  16.225 -0.1000 -0.5056 -0.8136
 9313TIP3   OH249353   4.275   3.492  13.001  0.0747 -0.1862  0.4853
 9313TIP3    H149354   4.190   3.500  12.957  0.4444 -2.3073 -0.7531
 9313TIP3    H249355   4.270   3.554  13.074 -2.8058 -0.7669  0.8947
 9314TIP3   OH249356   1.442   4.985  10.907 -0.1527 -0.4260 -0.3226
 9314TIP3    H149357   1.434   5.081  10.909  0.9924 -0.2329 -2.0458
 9314TIP3    H249358   1.481   4.962  10.992 -0.5417  0.6144  0.1536
 9315TIP3   OH249359   2.322   5.272  16.408  0.0824 -0.5574 -0.3647
 9315TIP3    H149360   2.417   5.280  16.402  0.0064 -0.6045 -2.4121
 9315TIP3    H249361   2.301   5.299  16.498  2.0156 -0.6209  0.1524
 9316TIP3   OH249362   3.162   6.038  12.150 -0.0740  0.7153 -0.0898
 9316TIP3    H149363   3.221   5.966  12.173 -2.6888 -2.0301 -1.3067
 9316TIP3    H249364   3.177   6.053  12.057 -1.6853 -0.5227 -0.5926
 9317TIP3   OH249365   0.641   3.276  13.779  0.1229  0.0824  0.4948
 9317TIP3    H149366   0.735   3.266  13.791  0.3345  0.7294 -0.4234
 9317TIP3    H249367   0.633   3.315  13.692 -0.8824  1.8662  1.3336
 9318TIP3   OH249368   5.207   6.287  14.134 -0.3924 -0.5157 -0.2698
 9318TIP3    H149369   5.192   6.226  14.062 -1.0017 -0.3269 -0.3090
 9318TIP3    H249370   5.299   6.274  14.157 -0.0609 -0.2402 -1.3887
 9319TIP3   OH249371   0.365   2.095  14.974  0.1037  0.0843 -0.5025
 9319TIP3    H149372   0.338   2.006  14.951  0.5270 -0.3240  0.5452
 9319TIP3    H249373   0.325   2.150  14.907 -1.9708 -0.6642  0.0590
 9320TIP3   OH249374   6.125   1.625  12.521 -0.3631  0.5220 -0.4777
 9320TIP3    H149375   6.090   1.540  12.549  2.1600 -0.1401  0.9134
 9320TIP3    H249376   6.163   1.609  12.435 -0.4954  0.4203 -0.5176
 9321TIP3   OH249377   5.405   1.145   4.892 -0.6227 -0.4234  0.0334
 9321TIP3    H149378   5.441   1.056   4.893  2.5915  0.7183  0.2462
 9321TIP3    H249379   5.381   1.162   4.983 -0.9572 -0.9580  0.0492
 9322TIP3   OH249380   2.858   6.177  14.853  0.5004  0.7012  0.5436
 9322TIP3    H149381   2.854   6.245  14.785  0.5655 -1.2081 -1.5047
 9322TIP3    H249382   2.939   6.195  14.900 -0.0888  2.7158  0.8705
 9323TIP3   OH249383   2.898   3.097  15.792  0.2516 -0.2425 -0.2882
 9323TIP3    H149384   2.965   3.093  15.860  2.1129  0.3467 -1.9987
 9323TIP3    H249385   2.847   3.175  15.814  2.2420  1.2600 -0.7338
 9324TIP3   OH249386   3.374   2.403   0.537 -0.3358 -0.1091  0.1314
 9324TIP3    H149387   3.306   2.458   0.576 -2.1209 -1.4217 -0.9188
 9324TIP3    H249388   3.328   2.321   0.515  1.8525 -1.4632  0.3221
 9325TIP3   OH249389   5.139   6.135  11.552 -1.0006 -0.3476  0.1323
 9325TIP3    H149390   5.063   6.107  11.603 -0.1147 -1.6145  0.8055
 9325TIP3    H249391   5.183   6.054  11.528  0.4661  0.3819  0.2638
 9326TIP3   OH249392   0.587   2.817  16.205  0.3230 -0.1723 -0.5715
 9326TIP3    H149393   0.512   2.758  16.214  0.6558 -0.4629  0.5440
 9326TIP3    H249394   0.623   2.822  16.294  2.2625 -0.8832 -1.2699
 9327TIP3   OH249395   6.722   0.544   5.867 -0.0617  0.2740  0.1775
 9327TIP3    H149396   6.736   0.580   5.954 -0.7983 -0.0355  0.4318
 9327TIP3    H249397   6.668   0.610   5.822  0.3934  0.4762 -0.0789
 9328TIP3   OH249398   1.133   4.117  13.468 -0.1354 -0.1701  0.4424
 9328TIP3    H149399   1.159   4.195  13.517  2.1354  0.0241 -0.9177
 9328TIP3    H249400   1.140   4.046  13.531 -0.1599  0.4360  1.1495
 9329TIP3   OH249401   4.405   2.015   2.573 -0.0236 -0.0096 -0.0732
 9329TIP3    H149402   4.457   2.041   2.649 -0.1627  0.4356 -0.1235
 9329TIP3    H249403   4.410   2.091   2.515 -2.0719  0.7134  0.6175
 9330TIP3   OH249404   3.801   6.485   6.286  0.5405 -0.0200  0.2923
 9330TIP3    H149405   3.841   6.400   6.267 -0.6432 -0.7155  0.7981
 9330TIP3    H249406   3.721   6.464   6.334 -0.1818  1.3450 -0.2431
 9331TIP3   OH249407   2.765   5.141  11.676  1.0390  0.0069 -0.8962
 9331TIP3    H149408   2.810   5.056  11.673  1.1150  0.0594 -1.2876
 9331TIP3    H249409   2.786   5.182  11.592  0.4446  0.1247 -0.9926
 9332TIP3   OH249410   4.441   3.642  13.264 -0.3684 -0.3933  0.2910
 9332TIP3    H149411   4.490   3.725  13.271  0.8460 -0.7922 -2.3737
 9332TIP3    H249412   4.350   3.669  13.248  0.0084  0.4424 -0.5052
 9333TIP3   OH249413   5.178   1.167   5.598  0.3159 -0.2635 -0.5359
 9333TIP3    H149414   5.243   1.120   5.650 -0.1097 -0.6279 -0.3271
 9333TIP3    H249415   5.142   1.100   5.539  0.6450  0.0980 -1.1517
 9334TIP3   OH249416   4.623   2.677   3.516 -0.2949  0.1404 -0.0880
 9334TIP3    H149417   4.611   2.672   3.422  1.8915 -0.6158 -0.3866
 9334TIP3    H249418   4.663   2.764   3.530 -1.1330  0.4834  0.2243
 9335TIP3   OH249419   5.287   5.772  11.163 -0.4195 -0.5295  0.7819
 9335TIP3    H149420   5.290   5.860  11.200 -0.9806  0.4488 -1.3060
 9335TIP3    H249421   5.198   5.741  11.180 -0.8349  0.1192 -0.1120
 9336TIP3   OH249422   4.957   5.427  13.714 -0.3473 -0.7880  0.0745
 9336TIP3    H149423   5.034   5.392  13.670 -0.6645 -0.4714 -0.7587
 9336TIP3    H249424   4.939   5.366  13.786  1.8319  0.1627  1.5132
 9337TIP3   OH249425   5.774   4.822   1.155  0.4084 -0.4123 -0.0728
 9337TIP3    H149426   5.793   4.826   1.248 -0.5913 -0.9413  0.1739
 9337TIP3    H249427   5.859   4.808   1.113  0.5954 -2.8604  0.9537
 9338TIP3   OH249428   3.316   1.249   5.532 -0.3519  0.1144 -0.3581
 9338TIP3    H149429   3.319   1.325   5.591  0.2457 -0.2243  0.0562
 9338TIP3    H249430   3.337   1.174   5.587 -2.4478 -0.5902 -0.4276
 9339TIP3   OH249431   6.440   3.044   3.913 -0.1152 -0.0049 -0.1557
 9339TIP3    H149432   6.448   3.117   3.975 -0.6628 -0.0178 -0.0615
 9339TIP3    H249433   6.377   2.985   3.955 -0.5404  0.0173 -0.7621
 9340TIP3   OH249434   3.826   3.723   1.300  0.2707 -0.2490 -0.2369
 9340TIP3    H149435   3.800   3.807   1.337  0.5812  0.5056 -1.6353
 9340TIP3    H249436   3.830   3.663   1.375 -0.2046  0.9105  0.7473
 9341TIP3   OH249437   5.363   3.609   5.375  0.3921 -0.1454 -0.0306
 9341TIP3    H149438   5.305   3.685   5.370 -0.1341 -0.4797  0.8610
 9341TIP3    H249439   5.425   3.622   5.304  0.8700  1.6087  0.6477
 9342TIP3   OH249440   1.940   4.089   0.015  0.1272  0.1238 -0.9963
 9342TIP3    H149441   2.006   4.037   0.060 -0.3486  0.7054  0.4119
 9342TIP3    H249442   1.870   4.026  -0.005  0.0558 -0.0186 -0.3274
 9343TIP3   OH249443   5.342   1.770  11.017  0.0312 -0.3156 -0.2242
 9343TIP3    H149444   5.426   1.812  11.001  0.6490 -0.2162  2.6788
 9343TIP3    H249445   5.285   1.840  11.046 -1.1811 -0.3589 -2.3124
 9344TIP3   OH249446   4.154   4.519   3.566 -0.5443  0.9195 -0.9863
 9344TIP3    H149447   4.176   4.507   3.473 -0.5650  2.5339 -1.2438
 9344TIP3    H249448   4.118   4.435   3.593  2.2729 -0.6301 -1.5888
 9345TIP3   OH249449   5.879   1.229   5.594 -0.2707  0.4019  0.3333
 9345TIP3    H149450   5.819   1.300   5.571 -0.0523 -0.3204 -2.9496
 9345TIP3    H249451   5.845   1.195   5.677 -3.6354  0.8897 -0.6776
 9346TIP3   OH249452   1.099   0.698  12.536 -0.5825  0.2717  0.3441
 9346TIP3    H149453   1.179   0.656  12.567 -1.5155 -1.4696  0.5119
 9346TIP3    H249454   1.032   0.631  12.545 -1.8874  1.3872 -0.6805
 9347TIP3   OH249455   2.312   5.389  14.217  0.3904  1.1019  0.1108
 9347TIP3    H149456   2.364   5.467  14.197  0.3433  1.2622  0.5844
 9347TIP3    H249457   2.320   5.333  14.140 -0.9934  2.3421 -1.0024
 9348TIP3   OH249458   0.626   3.539  15.671 -1.2998  0.1805  0.3170
 9348TIP3    H149459   0.604   3.572  15.584  0.1380 -1.6132 -0.7887
 9348TIP3    H249460   0.584   3.454  15.676  2.3849 -1.9374 -0.6575
 9349TIP3   OH249461   4.279   6.714  12.276  0.2553  0.2051 -0.4692
 9349TIP3    H149462   4.229   6.682  12.201  2.9823 -0.6867 -2.0382
 9349TIP3    H249463   4.284   6.639  12.335  1.6011 -0.4376 -1.3685
 9350TIP3   OH249464   0.031   0.973   2.403  0.3944 -0.6988  0.5819
 9350TIP3    H149465   0.089   1.045   2.381  0.2930 -1.4694 -2.7791
 9350TIP3    H249466  -0.055   1.014   2.417  1.0445  0.1214  2.6207
 9351TIP3   OH249467   5.165   2.799   1.530 -0.0934  0.3008 -0.1356
 9351TIP3    H149468   5.141   2.867   1.593  0.9331  0.8286 -0.3020
 9351TIP3    H249469   5.111   2.723   1.554  0.8583  0.2139  1.8761
 9352TIP3   OH249470   1.107   0.342   3.637  0.2768  0.2148 -0.1062
 9352TIP3    H149471   1.082   0.431   3.662  0.8579  0.2903  0.2341
 9352TIP3    H249472   1.173   0.354   3.569 -0.5840  0.0171 -1.0019
 9353TIP3   OH249473   1.146   2.175  17.190  0.5632  0.1581 -0.1802
 9353TIP3    H149474   1.185   2.246  17.140 -1.3746  0.7148 -0.9767
 9353TIP3    H249475   1.117   2.216  17.271  1.2629 -0.1732  0.2464
 9354TIP3   OH249476   5.996   5.640   2.634  0.2871 -0.0305 -0.1356
 9354TIP3    H149477   6.086   5.628   2.665  0.7013  1.7034 -0.6014
 9354TIP3    H249478   5.950   5.677   2.709  0.5850  1.4266 -0.6508
 9355TIP3   OH249479   1.301   5.109   2.939  0.5436 -0.0901 -0.8705
 9355TIP3    H149480   1.248   5.167   2.995  0.0418 -0.7130 -0.6895
 9355TIP3    H249481   1.368   5.167   2.903 -0.3990  0.7845 -1.2913
 9356TIP3   OH249482   6.385   1.490  13.965  0.0961 -0.5705  0.3147
 9356TIP3    H149483   6.333   1.554  13.916  1.5441  1.6602  1.4944
 9356TIP3    H249484   6.474   1.500  13.931  0.0922 -3.3883 -0.7764
 9357TIP3   OH249485   3.795   0.249   0.544  0.2265  0.3584  0.3948
 9357TIP3    H149486   3.862   0.183   0.561 -0.2981 -0.0695  0.8114
 9357TIP3    H249487   3.744   0.213   0.471  0.1415  0.4528  0.4068
 9358TIP3   OH249488   4.289   4.145   3.414  0.2745  0.0676 -0.0756
 9358TIP3    H149489   4.242   4.079   3.363 -0.4668 -0.8342  1.6825
 9358TIP3    H249490   4.256   4.229   3.380 -1.8056 -0.5224  0.3250
 9359TIP3   OH249491   5.145   3.767   1.245 -0.0457 -0.4988 -0.1687
 9359TIP3    H149492   5.234   3.753   1.279 -1.0958 -0.2071  3.0798
 9359TIP3    H249493   5.089   3.759   1.322 -2.8903 -0.7429 -2.1116
 9360TIP3   OH249494   3.485   4.942   0.081 -0.0791 -0.4466  0.8873
 9360TIP3    H149495   3.515   4.991   0.157  0.8323 -1.1307  0.9784
 9360TIP3    H249496   3.392   4.927   0.097 -0.2459  0.7665  1.1108
 9361TIP3   OH249497   2.364   0.179   0.642  0.0515  0.7150 -0.9124
 9361TIP3    H149498   2.455   0.207   0.629  0.3342  1.6526  2.2398
 9361TIP3    H249499   2.312   0.243   0.594  0.9890 -0.1041 -3.1596
 9362TIP3   OH249500   6.095   6.215   0.777  0.0743 -0.0298 -0.4478
 9362TIP3    H149501   6.095   6.122   0.755  1.8959 -0.3720  0.8077
 9362TIP3    H249502   6.155   6.255   0.713  0.0315  0.1185 -0.3960
 9363TIP3   OH249503   1.367   4.547  14.749  0.1156  0.2545  0.0264
 9363TIP3    H149504   1.460   4.524  14.742 -0.3615 -1.2545 -2.6224
 9363TIP3    H249505   1.334   4.539  14.660 -2.6874  0.2290  0.9882
 9364TIP3   OH249506   2.411   0.162  15.386 -0.3329 -0.5515  0.1348
 9364TIP3    H149507   2.325   0.136  15.352 -0.3476  1.3153 -1.4159
 9364TIP3    H249508   2.473   0.134  15.318  0.0953 -0.2993  0.4154
 9365TIP3   OH249509   5.550   3.674  12.725 -0.3610  0.5866  0.3331
 9365TIP3    H149510   5.516   3.674  12.814 -0.9103 -2.3742  0.2340
 9365TIP3    H249511   5.514   3.594  12.686  1.0913  1.0103 -2.0570
 9366TIP3   OH249512   5.165   3.951  16.554 -0.2572  0.1054  0.4264
 9366TIP3    H149513   5.134   3.950  16.644 -0.2368  0.5688  0.4389
 9366TIP3    H249514   5.215   4.032  16.546  0.3191 -0.2600  0.1921
 9367TIP3   OH249515   3.026   3.380  15.937 -0.0948 -0.0113 -0.5910
 9367TIP3    H149516   3.114   3.395  15.904 -0.3357  2.3898 -0.3011
 9367TIP3    H249517   3.038   3.326  16.015  1.1260  0.2363 -0.5944
 9368TIP3   OH249518   1.948   2.170  12.188  0.2137  0.5586 -0.4445
 9368TIP3    H149519   1.915   2.090  12.146  1.8240 -0.3982  0.0258
 9368TIP3    H249520   1.898   2.177  12.269  0.0761  0.0215 -0.4790
 9369TIP3   OH249521   0.127   6.456  15.571  0.1093  0.1917 -0.2361
 9369TIP3    H149522   0.151   6.509  15.495 -0.0504 -0.7634 -0.9715
 9369TIP3    H249523   0.162   6.504  15.646  2.4712 -0.0798 -1.0943
 9370TIP3   OH249524   0.830   1.601   6.238 -0.0158  0.0468 -0.1053
 9370TIP3    H149525   0.900   1.640   6.291  0.5790 -0.7122 -0.3085
 9370TIP3    H249526   0.845   1.635   6.150  0.7756 -0.9482 -0.3770
 9371TIP3   OH249527   4.677   6.432  10.922  0.8953  0.1985  0.4193
 9371TIP3    H149528   4.610   6.376  10.884  1.6746 -1.6784  1.6806
 9371TIP3    H249529   4.646   6.521  10.905 -0.0675 -0.5631 -2.1847
 9372TIP3   OH249530   4.565   6.459  17.029 -0.2863  0.1093  0.6394
 9372TIP3    H149531   4.648   6.440  16.985 -0.4643 -0.1116  0.3960
 9372TIP3    H249532   4.566   6.554  17.044 -0.5297  0.3028 -0.4796
 9373TIP3   OH249533   2.395   6.161  15.392  0.5803  0.9727 -1.2836
 9373TIP3    H149534   2.472   6.107  15.408 -0.7934 -1.1837 -1.4180
 9373TIP3    H249535   2.366   6.136  15.304 -1.7072 -0.2802 -0.2602
 9374TIP3   OH249536   0.215   4.363  14.238 -0.3310 -0.8145 -0.1605
 9374TIP3    H149537   0.227   4.457  14.234  1.5973 -1.0240 -0.3492
 9374TIP3    H249538   0.130   4.348  14.197 -0.3634  0.7785 -0.7470
 9375TIP3   OH249539   3.243   2.026  16.024 -0.0923  0.2395 -0.2551
 9375TIP3    H149540   3.243   1.931  16.035  0.4445  0.1618 -0.8201
 9375TIP3    H249541   3.242   2.039  15.929 -1.9077  0.8276 -0.1791
 9376TIP3   OH249542   3.937   6.578   5.809  0.2090 -0.0585  0.6610
 9376TIP3    H149543   3.894   6.566   5.894 -1.0630 -0.8971 -0.0572
 9376TIP3    H249544   3.913   6.666   5.782 -2.1483 -0.9031 -0.2509
 9377TIP3   OH249545   0.949   4.128   1.699 -0.4712 -0.0187 -0.3257
 9377TIP3    H149546   0.984   4.040   1.685  1.0786  0.9309 -3.2485
 9377TIP3    H249547   0.979   4.178   1.623 -2.5093  2.6898  0.4982
 9378TIP3   OH249548   0.763   4.364  16.162  0.1556  0.3723  0.1029
 9378TIP3    H149549   0.800   4.452  16.172  0.2300  0.3366  0.1467
 9378TIP3    H249550   0.817   4.323  16.094  0.8790 -0.0479  0.9083
 9379TIP3   OH249551   2.036   2.531  14.795 -0.7176  0.2659  0.1727
 9379TIP3    H149552   1.965   2.593  14.776 -0.3951  0.7745  0.6034
 9379TIP3    H249553   2.083   2.570  14.868 -1.4708 -1.2577  1.5413
 9380TIP3   OH249554   2.277   1.195  17.134  0.1861  0.2639 -0.2940
 9380TIP3    H149555   2.333   1.245  17.074  0.8012  2.7008  2.0878
 9380TIP3    H249556   2.190   1.231  17.120  0.6749  2.4900  1.6331
 9381TIP3   OH249557   3.521   3.639   2.174 -0.2299 -0.0470  0.1156
 9381TIP3    H149558   3.562   3.718   2.209  2.3514 -1.0568 -0.4003
 9381TIP3    H249559   3.513   3.656   2.080  0.5429 -0.4616 -0.0314
 9382TIP3   OH249560   2.750   0.446  11.725 -0.4027 -0.4121  0.1614
 9382TIP3    H149561   2.805   0.429  11.649  0.1250  1.5950  0.0226
 9382TIP3    H249562   2.749   0.542  11.732 -3.2543 -0.4025  0.6225
 9383TIP3   OH249563   4.316   0.276   5.251  0.0970  0.1502  0.0557
 9383TIP3    H149564   4.401   0.287   5.293 -0.1604  0.4966  0.4919
 9383TIP3    H249565   4.337   0.259   5.159  0.5911  2.2394 -0.2546
 9384TIP3   OH249566   1.557   3.345  13.980  0.0031 -0.5392  0.0164
 9384TIP3    H149567   1.637   3.383  13.944 -1.2260 -0.5293 -3.0185
 9384TIP3    H249568   1.532   3.277  13.917 -3.0294  0.3224  0.1101
 9385TIP3   OH249569   2.677   4.822  16.339  0.2816  0.1993 -0.6623
 9385TIP3    H149570   2.587   4.854  16.329  0.1807 -0.4661 -2.1218
 9385TIP3    H249571   2.673   4.763  16.414 -0.0403  1.6908  0.5570
 9386TIP3   OH249572   2.722   5.755   2.272 -0.4536 -0.0963  0.7077
 9386TIP3    H149573   2.643   5.793   2.311 -0.1118  0.8721  0.4955
 9386TIP3    H249574   2.790   5.821   2.287 -0.1394 -0.0283 -0.8353
 9387TIP3   OH249575   5.573   3.192   0.794 -0.1998 -0.1078 -0.2026
 9387TIP3    H149576   5.612   3.189   0.707 -0.5331  0.7663 -0.3886
 9387TIP3    H249577   5.517   3.114   0.799 -0.1299 -0.1914 -0.7386
 9388TIP3   OH249578   5.341   5.091  17.193  0.2209  0.4915  1.2017
 9388TIP3    H149579   5.353   5.154  17.122  0.6706 -1.0390 -0.1282
 9388TIP3    H249580   5.264   5.124  17.240  0.1801  1.7863  0.3013
 9389TIP3   OH249581   2.576   6.721  11.475 -0.2578 -0.1541  0.6065
 9389TIP3    H149582   2.498   6.775  11.460 -1.7510 -1.7976  2.1176
 9389TIP3    H249583   2.631   6.774  11.532  0.4457  1.5762 -1.5101
 9390TIP3   OH249584   2.068   6.606  15.813 -0.5534  0.7071 -0.2210
 9390TIP3    H149585   2.120   6.671  15.861 -0.2633  1.7892 -1.9105
 9390TIP3    H249586   1.979   6.641  15.814 -0.7703  0.1550  0.4740
 9391TIP3   OH249587   0.308   1.757   5.598 -0.0374 -0.0415 -0.1176
 9391TIP3    H149588   0.278   1.776   5.508 -1.5761 -1.0290  0.1532
 9391TIP3    H249589   0.367   1.830   5.619  1.0597 -0.2259 -2.2299
 9392TIP3   OH249590   0.407   4.342   0.125  0.0079  0.4809 -0.1050
 9392TIP3    H149591   0.487   4.392   0.114  0.9453 -0.5639  1.5892
 9392TIP3    H249592   0.387   4.310   0.037  0.5367  2.0542 -0.8336
 9393TIP3   OH249593   4.715   6.529   5.739 -0.0428 -0.3235 -0.6260
 9393TIP3    H149594   4.656   6.477   5.792  0.1406 -0.0766 -0.1738
 9393TIP3    H249595   4.767   6.465   5.691  0.7403 -0.5808  0.5351
 9394TIP3   OH249596   1.619   2.002   4.020 -0.1519  0.2964 -0.2107
 9394TIP3    H149597   1.570   1.937   4.070  0.6161  0.9625  1.4606
 9394TIP3    H249598   1.582   2.086   4.045 -0.8355  0.5740 -2.0198
 9395TIP3   OH249599   5.672   6.045  14.277  0.3981  0.0723  0.6524
 9395TIP3    H149600   5.669   6.006  14.364 -0.5862 -0.7661  0.2617
 9395TIP3    H249601   5.637   5.978  14.219  3.4791 -0.4636 -0.8197
 9396TIP3   OH249602   1.801   0.653   3.980  0.7982 -0.1875  0.3182
 9396TIP3    H149603   1.843   0.726   3.933  0.4900  0.3686  0.8903
 9396TIP3    H249604   1.795   0.683   4.071  0.9592 -1.0634  0.6288
 9397TIP3   OH249605   0.677   6.478   3.334  0.1535  0.1648  0.0678
 9397TIP3    H149606   0.635   6.432   3.406 -0.9276 -0.8945 -1.1933
 9397TIP3    H249607   0.752   6.424   3.310  2.0973  1.7958  1.9775
 9398TIP3   OH249608   4.914   5.883   5.659 -0.2749 -0.0740 -0.0667
 9398TIP3    H149609   4.863   5.847   5.586 -2.1705  0.5123  0.9005
 9398TIP3    H249610   4.879   5.841   5.737 -1.4304  2.4879  0.9339
 9399TIP3   OH249611   2.123   0.222   4.945  0.1745  0.4336 -0.0607
 9399TIP3    H149612   2.169   0.198   5.026  1.5758  0.9923 -0.6614
 9399TIP3    H249613   2.031   0.228   4.971  0.6077  0.7362  1.5210
 9400TIP3   OH249614   6.317   2.390   2.709  0.1229  0.3225  0.2277
 9400TIP3    H149615   6.384   2.335   2.669  1.2433  0.5291  1.7332
 9400TIP3    H249616   6.265   2.422   2.635  1.4476 -0.1493 -0.9538
 9401TIP3   OH249617   0.021   5.428   2.908 -0.2298  0.4321  0.1788
 9401TIP3    H149618   0.009   5.517   2.874 -4.0065  0.3258  0.7572
 9401TIP3    H249619   0.002   5.371   2.834  1.5901  0.0624 -0.0359
 9402TIP3   OH249620   5.808   4.291  15.785  0.3525  0.2594 -0.0921
 9402TIP3    H149621   5.903   4.283  15.789  0.2917  0.0095  1.6814
 9402TIP3    H249622   5.778   4.202  15.769  0.4126  0.3839 -0.9392
 9403TIP3   OH249623   1.760   1.003   1.762 -0.2345  0.7349  0.5954
 9403TIP3    H149624   1.812   0.941   1.710 -0.9765  1.2365 -0.7741
 9403TIP3    H249625   1.780   0.979   1.853  2.9890  1.3813  0.1922
 9404TIP3   OH249626   3.067   1.266   2.550 -0.1855  0.0349 -0.2259
 9404TIP3    H149627   3.102   1.305   2.630 -1.6003  1.1604 -0.0980
 9404TIP3    H249628   3.097   1.324   2.480 -1.1587  0.6213 -0.1852
 9405TIP3   OH249629   4.788   6.693   3.565 -0.3761 -0.0250 -0.3084
 9405TIP3    H149630   4.693   6.706   3.573 -0.1549  2.3406 -0.7525
 9405TIP3    H249631   4.818   6.766   3.511  2.1206  1.1939  2.4513
 9406TIP3   OH249632   1.382   5.008   2.646  0.2215 -0.2883  0.1820
 9406TIP3    H149633   1.357   4.942   2.711  0.3901 -1.2921 -0.7437
 9406TIP3    H249634   1.336   5.087   2.674 -0.5375 -0.9738  0.9388
 9407TIP3   OH249635   4.885   0.439  17.276 -0.4958 -0.6430 -0.2004
 9407TIP3    H149636   4.975   0.422  17.303 -0.6429  0.5637  1.1805
 9407TIP3    H249637   4.835   0.365  17.313  0.0307 -1.8937 -1.8901
 9408TIP3   OH249638   2.231   1.482  15.408  0.2420 -0.0533 -0.4533
 9408TIP3    H149639   2.306   1.495  15.349  0.2832 -0.8581 -0.5912
 9408TIP3    H249640   2.245   1.546  15.478  1.5976 -0.8221  0.0282
 9409TIP3   OH249641   6.364   0.251   6.300 -0.3753 -0.1125 -0.1352
 9409TIP3    H149642   6.376   0.335   6.344  0.6083 -1.0244  1.4199
 9409TIP3    H249643   6.435   0.248   6.236  1.3965 -0.9253  1.7642
 9410TIP3   OH249644   5.278   6.142  12.282  0.1005 -0.0789 -0.1853
 9410TIP3    H149645   5.276   6.216  12.343  0.2769 -0.0794 -0.1762
 9410TIP3    H249646   5.341   6.081  12.322 -1.8156 -1.3385  1.0707
 9411TIP3   OH249647   0.041   5.082  14.182  0.2443  0.1448  0.0678
 9411TIP3    H149648   0.106   5.102  14.115  0.7130 -0.5920  0.2904
 9411TIP3    H249649   0.093   5.059  14.259 -0.2788 -0.3325  0.2823
 9412TIP3   OH249650   1.527   6.496  11.936  0.2790  0.5201  0.0646
 9412TIP3    H149651   1.448   6.538  11.904  0.8802  1.4585 -0.2354
 9412TIP3    H249652   1.496   6.422  11.988 -0.7698  0.1239 -1.0724
 9413TIP3   OH249653   0.831   1.302   6.585  0.4097  0.1832  0.4076
 9413TIP3    H149654   0.748   1.283   6.541  0.8046  0.5937 -0.5397
 9413TIP3    H249655   0.805   1.328   6.674 -0.5881  1.3840 -0.1889
 9414TIP3   OH249656   2.676   2.395   4.368 -0.0273  0.3347 -0.5732
 9414TIP3    H149657   2.610   2.437   4.423  1.1225 -0.9279  1.9469
 9414TIP3    H249658   2.759   2.430   4.400  0.7377 -1.1214 -0.8945
 9415TIP3   OH249659   5.403   6.120   5.348 -0.1061 -0.1849 -0.1122
 9415TIP3    H149660   5.317   6.159   5.366 -0.5502 -1.4941  0.7337
 9415TIP3    H249661   5.401   6.100   5.255  0.4555  2.4854 -0.7869
 9416TIP3   OH249662   1.580   0.065   1.904 -0.1281 -0.4190  0.0791
 9416TIP3    H149663   1.556   0.139   1.848 -0.3242  0.7295  1.6172
 9416TIP3    H249664   1.501   0.047   1.956  0.4184 -0.6300  0.8583
 9417TIP3   OH249665   4.722   1.771   1.342 -0.1996 -0.0517 -0.2386
 9417TIP3    H149666   4.696   1.826   1.415  0.1497 -0.4304  0.1738
 9417TIP3    H249667   4.781   1.706   1.380 -0.4236 -0.5704 -0.7581
 9418TIP3   OH249668   1.555   6.491  15.319 -0.1835 -0.1006  0.5049
 9418TIP3    H149669   1.537   6.485  15.225 -1.0888  4.2509  0.1726
 9418TIP3    H249670   1.642   6.454  15.330  0.3079  0.0466 -2.2308
 9419TIP3   OH249671   6.311   3.039  13.941  0.1967 -0.0776  0.3522
 9419TIP3    H149672   6.234   2.989  13.964 -0.4109 -0.1591 -1.6432
 9419TIP3    H249673   6.278   3.109  13.885  1.4607  0.4275  0.2018
 9420TIP3   OH249674   1.454   1.503   4.243  0.2771  0.2050  0.1174
 9420TIP3    H149675   1.378   1.540   4.196  0.9295  1.2714 -0.1522
 9420TIP3    H249676   1.426   1.498   4.334 -0.6099 -0.7903 -0.1919
 9421TIP3   OH249677   4.675   2.563  16.158 -0.2429 -0.3417  0.3004
 9421TIP3    H149678   4.693   2.483  16.208  1.6845  0.3090  0.7312
 9421TIP3    H249679   4.673   2.632  16.224  0.7103  0.3027 -0.3229
 9422TIP3   OH249680   2.650   5.219   3.280 -0.5447 -0.4122 -0.1057
 9422TIP3    H149681   2.621   5.283   3.215 -1.0445  0.1595  0.6428
 9422TIP3    H249682   2.652   5.269   3.362 -1.8401 -1.5713  0.6752
 9423TIP3   OH249683   1.338   2.247  12.597  0.3466 -0.5321 -0.1258
 9423TIP3    H149684   1.343   2.323  12.655  2.8379 -0.0318 -0.8874
 9423TIP3    H249685   1.330   2.172  12.657 -4.2853  0.2399  0.6253
 9424TIP3   OH249686   2.096   6.242  15.047 -0.1119 -0.4614 -0.5944
 9424TIP3    H149687   2.101   6.309  15.116 -1.8549 -1.2107  0.3425
 9424TIP3    H249688   2.145   6.279  14.974 -1.2003  1.9665 -0.2144
 9425TIP3   OH249689   4.373   6.305  10.656  0.3087 -0.3645 -0.7151
 9425TIP3    H149690   4.377   6.243  10.729  1.3980 -0.3488 -0.7451
 9425TIP3    H249691   4.300   6.274  10.603 -1.4768  0.4804  1.1101
 9426TIP3   OH249692   3.936   5.111   4.206 -0.0973 -0.1344 -0.1421
 9426TIP3    H149693   3.932   5.081   4.297 -0.6611 -1.4057 -0.5568
 9426TIP3    H249694   3.909   5.203   4.210 -1.4282 -0.5265  0.8214
 9427TIP3   OH249695   3.251   5.903  10.696 -0.0533  0.1966 -0.1777
 9427TIP3    H149696   3.251   5.957  10.776  1.1984 -1.0513  0.7118
 9427TIP3    H249697   3.333   5.926  10.652  1.0111 -1.5853  0.7171
 9428TIP3   OH249698   4.319   0.954  12.881  0.2550  0.0400 -0.7759
 9428TIP3    H149699   4.387   1.013  12.914  0.0704 -0.4529  0.5730
 9428TIP3    H249700   4.338   0.945  12.788  1.3197  0.8541 -0.6631
 9429TIP3   OH249701   4.497   5.493  16.031  0.1728 -0.1583  0.4049
 9429TIP3    H149702   4.412   5.454  16.011  0.2944 -0.7138  0.9529
 9429TIP3    H249703   4.476   5.583  16.058 -0.2447 -0.2907  0.5257
 9430TIP3   OH249704   3.125   1.971  13.046  0.2731  0.6057  0.2583
 9430TIP3    H149705   3.094   1.894  12.999 -1.6000  1.6200 -0.2564
 9430TIP3    H249706   3.086   1.963  13.133  1.5427  0.0957  0.8046
 9431TIP3   OH249707   3.495   1.062   6.146 -0.5040  0.4562  0.5528
 9431TIP3    H149708   3.548   1.029   6.219  1.1391 -0.2952 -0.8971
 9431TIP3    H249709   3.464   0.983   6.102  0.1943  0.8540 -0.6959
 9432TIP3   OH249710   6.683   6.550   4.434 -0.2406 -0.0545 -0.4116
 9432TIP3    H149711   6.671   6.639   4.469 -0.3969  0.0026 -0.6095
 9432TIP3    H249712   6.597   6.509   4.444  0.4957 -1.1428  2.3067
 9433TIP3   OH249713   0.105   0.455  13.487  0.4050 -0.3710 -0.0754
 9433TIP3    H149714   0.027   0.437  13.540  0.9007 -1.9916  0.1347
 9433TIP3    H249715   0.135   0.370  13.457  2.7496  0.0703  0.7722
 9434TIP3   OH249716   3.806   5.163   2.675 -0.2689  0.3971  0.0768
 9434TIP3    H149717   3.837   5.109   2.603 -0.1338  0.6324 -0.0436
 9434TIP3    H249718   3.711   5.163   2.666 -0.2817  0.0206  0.1965
 9435TIP3   OH249719   1.641   0.968   2.508 -0.1299  0.0477  0.0897
 9435TIP3    H149720   1.568   1.025   2.531  0.4864  1.1587 -0.6053
 9435TIP3    H249721   1.701   0.976   2.582 -0.0593  0.2721  0.0081
 9436TIP3   OH249722   0.124   4.768  13.275 -0.0271  0.0772  0.6600
 9436TIP3    H149723   0.091   4.682  13.251  1.0812 -0.7788  2.0049
 9436TIP3    H249724   0.218   4.763  13.255  0.4319  0.2212  2.6151
 9437TIP3   OH249725   3.751   1.890  11.358  0.3306 -0.3099 -0.1889
 9437TIP3    H149726   3.836   1.862  11.325  0.7173 -1.3104  1.5287
 9437TIP3    H249727   3.729   1.826  11.426 -2.0020 -0.3182 -0.8534
 9438TIP3   OH249728   5.035   3.422   5.631 -0.0437  0.0701  0.5669
 9438TIP3    H149729   4.965   3.432   5.696  0.5878 -1.4861  1.5373
 9438TIP3    H249730   4.997   3.367   5.563  0.2454 -0.8613  1.1443
 9439TIP3   OH249731   2.826   2.456  11.612 -0.0512 -0.2279 -0.1698
 9439TIP3    H149732   2.755   2.432  11.554 -0.4495  0.2011  0.1304
 9439TIP3    H249733   2.783   2.500  11.686  0.3804 -1.3480  0.7724
 9440TIP3   OH249734   6.078   0.884  13.434 -0.1800  0.3186 -0.2388
 9440TIP3    H149735   6.001   0.892  13.489 -1.1727  3.8120 -1.8348
 9440TIP3    H249736   6.044   0.887  13.344  1.7596  2.1995 -0.9932
 9441TIP3   OH249737   1.258   4.610  15.495 -0.2295 -0.4602 -0.5678
 9441TIP3    H149738   1.198   4.672  15.455  0.2858 -0.3875 -1.2378
 9441TIP3    H249739   1.342   4.626  15.452  0.8259  0.8955  1.8121
 9442TIP3   OH249740   2.979   1.112   5.243 -0.1831 -0.3101  0.1131
 9442TIP3    H149741   3.038   1.055   5.293  1.5257 -0.2343 -1.6990
 9442TIP3    H249742   3.023   1.197   5.242 -2.0381  0.7191  1.6078
 9443TIP3   OH249743   0.134   5.238   1.730 -0.2056  0.5448  0.5746
 9443TIP3    H149744   0.083   5.278   1.660 -0.3421  0.0204  0.3724
 9443TIP3    H249745   0.113   5.145   1.725  1.6132  0.1493 -0.2048
 9444TIP3   OH249746   0.988   1.209  13.992  0.0490  0.1797 -0.4528
 9444TIP3    H149747   1.001   1.278  13.926  0.9163 -0.5030 -1.0277
 9444TIP3    H249748   0.897   1.182  13.981 -0.0327  0.5966 -0.8497
 9445TIP3   OH249749   3.171   0.705   5.518  0.1057 -0.7982  0.5136
 9445TIP3    H149750   3.084   0.665   5.526  0.3654 -2.1051 -2.2272
 9445TIP3    H249751   3.232   0.633   5.535  0.7464  0.2538  3.0574
 9446TIP3   OH249752   4.291   4.864  15.062  0.3134  0.0651 -0.3601
 9446TIP3    H149753   4.322   4.780  15.028  1.0542 -0.0844  0.6418
 9446TIP3    H249754   4.243   4.841  15.141 -1.5751  0.3907 -1.3652
 9447TIP3   OH249755   2.451   3.892   2.473 -0.0158 -0.3945 -0.4454
 9447TIP3    H149756   2.400   3.902   2.393 -0.3230  0.5655 -0.1551
 9447TIP3    H249757   2.410   3.954   2.534  1.3079  0.1722 -0.1019
 9448TIP3   OH249758   5.913   6.019   5.884  0.4142  0.3099  0.3444
 9448TIP3    H149759   5.994   6.043   5.838  0.0681 -0.2218 -0.5832
 9448TIP3    H249760   5.852   6.090   5.863  0.7483  0.9366  1.4037
 9449TIP3   OH249761   6.421   3.854   0.150 -0.2525 -0.0932 -0.3015
 9449TIP3    H149762   6.337   3.880   0.113 -0.6767  0.4663  0.9770
 9449TIP3    H249763   6.401   3.779   0.206  0.2227 -0.3890 -0.5216
 9450TIP3   OH249764   0.069   3.447  15.494 -0.6997  0.3542 -0.6606
 9450TIP3    H149765   0.031   3.534  15.508  0.8296  0.8371  0.7421
 9450TIP3    H249766   0.110   3.453  15.408  1.4223  1.8703  0.3573
 9451TIP3   OH249767   0.165   2.050  16.867  0.1054 -0.2922 -0.3902
 9451TIP3    H149768   0.237   1.999  16.829  0.9977  1.3076 -0.9388
 9451TIP3    H249769   0.175   2.038  16.962 -0.1352 -1.6551 -0.5100
 9452TIP3   OH249770   0.491   4.720  13.537  0.4479 -0.2074 -0.0961
 9452TIP3    H149771   0.575   4.676  13.551  0.0188 -0.9001  0.3428
 9452TIP3    H249772   0.443   4.664  13.476  0.7105  0.7418 -1.2228
 9453TIP3   OH249773   4.694   0.287   6.633 -0.1096  0.2577 -0.0460
 9453TIP3    H149774   4.664   0.225   6.567 -3.4443 -0.0125  1.5350
 9453TIP3    H249775   4.723   0.232   6.706 -0.0563  0.5618  0.1637
 9454TIP3   OH249776   3.526   1.458   4.160 -0.2805  0.0019  0.1664
 9454TIP3    H149777   3.455   1.495   4.107 -0.0532  1.2738  0.7058
 9454TIP3    H249778   3.510   1.492   4.248  1.9329  1.7776 -0.0185
 9455TIP3   OH249779   3.827   3.764   3.604  0.4749  0.1499 -0.0241
 9455TIP3    H149780   3.815   3.680   3.649 -0.5091 -0.5820 -1.5300
 9455TIP3    H249781   3.808   3.830   3.670  1.4319 -0.7854  1.2493
 9456TIP3   OH249782   0.068   5.944   2.545 -0.3358  0.3208  0.8546
 9456TIP3    H149783  -0.021   5.911   2.537 -0.0829 -0.6099  1.7868
 9456TIP3    H249784   0.071   5.986   2.631  0.6974 -1.5190  1.7661
 9457TIP3   OH249785   2.808   1.080  17.165  0.2275  0.0641 -0.2346
 9457TIP3    H149786   2.813   1.173  17.144 -0.4381  0.3363  0.7374
 9457TIP3    H249787   2.860   1.070  17.244  1.5786 -0.7013 -1.1686
 9458TIP3   OH249788   2.167   5.321   5.405  0.2115  0.0380  0.0011
 9458TIP3    H149789   2.196   5.297   5.494  0.4294  0.9438  0.1836
 9458TIP3    H249790   2.092   5.379   5.419  1.0506  1.2521 -0.3551
 9459TIP3   OH249791   3.829   0.122  16.968 -0.1864  0.4360 -0.1261
 9459TIP3    H149792   3.752   0.083  17.008  0.5082 -0.6516  0.2080
 9459TIP3    H249793   3.829   0.091  16.878 -1.3574  2.3010 -0.8155
 9460TIP3   OH249794   4.561   0.093  14.719  0.1650 -0.0735  0.1428
 9460TIP3    H149795   4.556  -0.002  14.728 -1.6478 -0.1481 -1.0689
 9460TIP3    H249796   4.487   0.126  14.771  2.1452  0.9186  2.5441
 9461TIP3   OH249797   1.035   5.340   0.470  0.2902 -0.0543  0.4760
 9461TIP3    H149798   1.038   5.336   0.375  1.5091 -0.8389  0.5200
 9461TIP3    H249799   1.059   5.252   0.499  3.1655  0.9425  1.4950
 9462TIP3   OH249800   0.374   3.170   3.326  0.0343  0.0084  0.3215
 9462TIP3    H149801   0.286   3.136   3.313  0.1199 -0.4373  0.8729
 9462TIP3    H249802   0.368   3.262   3.302 -0.1847 -0.3908 -1.2496
 9463TIP3   OH249803   3.507   3.106   6.453 -0.1240  0.6487 -0.4837
 9463TIP3    H149804   3.428   3.119   6.402 -1.1124  0.5516  0.9580
 9463TIP3    H249805   3.555   3.189   6.446 -2.0598  2.0414  1.4265
 9464TIP3   OH249806   0.295   2.130  11.310 -0.3443  0.5872 -0.5833
 9464TIP3    H149807   0.286   2.171  11.224 -0.7790 -1.2596 -1.4621
 9464TIP3    H249808   0.210   2.088  11.326  0.3489 -0.6773 -0.1108
 9465TIP3   OH249809   5.784   3.268   1.205  0.1622 -0.5911 -0.3253
 9465TIP3    H149810   5.704   3.255   1.154  0.2140 -1.0293 -0.2927
 9465TIP3    H249811   5.797   3.186   1.251  0.0183 -0.1326  0.5423
 9466TIP3   OH249812   5.909   5.935  14.978 -0.1875 -0.3116 -0.1114
 9466TIP3    H149813   5.961   6.015  14.980  0.3108 -0.6315 -0.0755
 9466TIP3    H249814   5.973   5.865  14.973 -0.4894 -0.8515  2.2287
 9467TIP3   OH249815   4.048   4.133   0.095  0.2719  0.1253 -0.1532
 9467TIP3    H149816   4.023   4.185   0.019 -1.3986 -0.3327  0.0393
 9467TIP3    H249817   4.090   4.055   0.059 -1.7325 -0.7511 -0.7232
 9468TIP3   OH249818   3.526   0.923   1.085  0.4649  0.0629  0.0328
 9468TIP3    H149819   3.616   0.921   1.050  0.8232 -1.4539  0.9381
 9468TIP3    H249820   3.471   0.943   1.009  1.5614  1.1435 -0.5184
 9469TIP3   OH249821   3.510   3.801   5.808 -0.2009  0.2869 -0.4448
 9469TIP3    H149822   3.560   3.779   5.886 -0.3732  0.2499 -0.3451
 9469TIP3    H249823   3.451   3.871   5.836  0.5018  1.0517 -0.8139
 9470TIP3   OH249824   2.375   3.812   2.220 -0.2787 -0.1002  0.0930
 9470TIP3    H149825   2.455   3.763   2.238 -0.6680  0.2904  3.5248
 9470TIP3    H249826   2.328   3.759   2.155  0.6724 -2.7563  1.4428
 9471TIP3   OH249827   3.857   3.522  13.500 -0.4764  0.6208 -0.0035
 9471TIP3    H149828   3.767   3.533  13.531 -0.3476 -0.1801  0.6880
 9471TIP3    H249829   3.875   3.429  13.509 -0.2448  0.4148 -2.0655
 9472TIP3   OH249830   2.360   4.006   5.699 -0.3494 -0.5433  0.5319
 9472TIP3    H149831   2.300   4.013   5.773 -1.2846 -1.0014 -0.1550
 9472TIP3    H249832   2.415   3.931   5.721 -0.9241 -0.9660  0.5700
 9473TIP3   OH249833   4.848   5.654   2.053 -0.6543  0.1017 -0.1286
 9473TIP3    H149834   4.906   5.607   1.994 -0.8532  0.9316 -1.0013
 9473TIP3    H249835   4.772   5.678   2.000 -0.9600  0.6261  0.5229
 9474TIP3   OH249836   2.012   0.802  11.072 -0.3911  0.5865 -0.8920
 9474TIP3    H149837   2.027   0.755  11.154  0.0703  1.5015 -0.4455
 9474TIP3    H249838   2.069   0.757  11.008 -1.0186 -0.3516 -0.8143
 9475TIP3   OH249839   5.502   1.049   3.432  0.1970 -0.0531  0.0466
 9475TIP3    H149840   5.549   1.114   3.484 -1.8889  1.6269 -0.0472
 9475TIP3    H249841   5.527   1.068   3.342  2.0821 -1.5500  0.1701
 9476TIP3   OH249842   3.446   5.180  14.167 -0.0934 -0.4134 -0.2902
 9476TIP3    H149843   3.473   5.102  14.117 -0.5199 -0.7515  0.0008
 9476TIP3    H249844   3.521   5.199  14.223 -0.2745 -1.0813  0.1942
 9477TIP3   OH249845   5.840   5.341   2.367 -0.7267 -0.3513  0.3901
 9477TIP3    H149846   5.803   5.315   2.283 -0.4044  0.5681 -0.0476
 9477TIP3    H249847   5.896   5.416   2.347 -0.3008 -0.3907  1.3595
 9478TIP3   OH249848   6.310   5.243  15.741  0.4397  0.3815 -0.4919
 9478TIP3    H149849   6.353   5.173  15.692 -1.2143 -0.3059 -1.0233
 9478TIP3    H249850   6.217   5.235  15.718 -0.3547  0.3179  2.4340
 9479TIP3   OH249851   2.140   0.659   3.998  1.0334 -0.2181 -0.3792
 9479TIP3    H149852   2.168   0.739   3.952  0.8584 -1.1595 -2.2009
 9479TIP3    H249853   2.045   0.670   4.008  1.3471  1.0662  2.0259
 9480TIP3   OH249854   0.902   2.593   4.625 -0.1045  0.2852  0.3711
 9480TIP3    H149855   0.901   2.682   4.590 -1.3890  1.0528  2.2398
 9480TIP3    H249856   0.822   2.553   4.593  0.1431  0.0046  0.0877
 9481TIP3   OH249857   3.724   0.265   0.805 -0.5388 -0.4390  0.5395
 9481TIP3    H149858   3.807   0.291   0.844 -1.3359  0.9874  1.4233
 9481TIP3    H249859   3.741   0.260   0.711  0.6132 -0.4686  0.7427
 9482TIP3   OH249860   2.755   3.328   1.211  0.4031  0.7384 -0.8714
 9482TIP3    H149861   2.670   3.312   1.253  0.9093 -1.1672 -0.4577
 9482TIP3    H249862   2.803   3.382   1.274 -0.4283  1.6661 -1.0259
 9483TIP3   OH249863   0.638   2.329  11.695  0.9703 -0.3210 -0.2638
 9483TIP3    H149864   0.639   2.238  11.724  1.7270 -0.6198 -1.1546
 9483TIP3    H249865   0.582   2.329  11.617  0.0877  0.2000  0.3458
 9484TIP3   OH249866   5.158   6.092   1.716 -0.5523 -0.7006  0.4644
 9484TIP3    H149867   5.123   6.065   1.801  0.6372  1.0886  1.5845
 9484TIP3    H249868   5.124   6.180   1.703 -0.9034 -1.0298 -1.0623
 9485TIP3   OH249869   2.127   5.302   2.272 -0.0079 -0.1318 -0.3553
 9485TIP3    H149870   2.088   5.375   2.320  0.0284 -0.2536 -0.1393
 9485TIP3    H249871   2.171   5.344   2.198  1.7300  0.3189  0.8334
 9486TIP3   OH249872   1.323   5.442   0.845 -0.2755 -0.4003  0.9505
 9486TIP3    H149873   1.288   5.512   0.790  0.3207 -1.1559 -0.4384
 9486TIP3    H249874   1.277   5.363   0.817  0.8314 -0.9927  0.7524
 9487TIP3   OH249875   0.407   5.078   5.229 -0.0435  0.2187 -0.0474
 9487TIP3    H149876   0.462   5.004   5.256 -1.1528 -0.6161 -0.0052
 9487TIP3    H249877   0.338   5.082   5.295 -0.9384  0.2274 -0.9637
 9488TIP3   OH249878   3.783   6.003  14.588 -0.0316 -0.0539  0.2787
 9488TIP3    H149879   3.708   5.966  14.635 -0.1485 -0.4295 -0.1987
 9488TIP3    H249880   3.848   6.019  14.657  0.7692 -2.9225  0.3165
 9489TIP3   OH249881   3.609   1.760   1.544  0.2610 -0.3406  0.3557
 9489TIP3    H149882   3.695   1.721   1.529  0.5344  0.6977 -0.9913
 9489TIP3    H249883   3.599   1.825   1.473 -1.7231 -0.6073  0.3270
 9490TIP3   OH249884   0.897   4.202  16.761  0.5771 -0.4443  0.2614
 9490TIP3    H149885   0.823   4.208  16.821 -0.0822 -0.6983 -0.5075
 9490TIP3    H249886   0.891   4.114  16.723  1.4021 -0.5502  0.3497
 9491TIP3   OH249887   2.588   3.080  10.506 -0.8789 -0.1253  0.0752
 9491TIP3    H149888   2.620   2.990  10.498 -1.1903 -0.3122  0.8461
 9491TIP3    H249889   2.667   3.134  10.506 -0.7101 -0.3525 -0.8653
 9492TIP3   OH249890   1.402   4.931   5.073 -0.4879  0.1283 -0.3597
 9492TIP3    H149891   1.329   4.989   5.055  1.0069  2.3941  0.4033
 9492TIP3    H249892   1.475   4.968   5.023  0.9337 -0.0492  1.4605
 9493TIP3   OH249893   5.027   4.611  17.078  0.0774 -0.0558  0.0331
 9493TIP3    H149894   5.101   4.627  17.137 -0.0504 -1.4756  0.6197
 9493TIP3    H249895   4.953   4.654  17.120  0.2329 -0.0241  0.2735
 9494TIP3   OH249896   5.678   0.707  14.911  0.0239 -0.1362  0.3203
 9494TIP3    H149897   5.616   0.646  14.951  1.0281 -1.2974  0.1545
 9494TIP3    H249898   5.719   0.658  14.840  1.5258  0.4073  0.7631
 9495TIP3   OH249899   5.208   3.117   3.632  0.4025  0.3949 -0.1332
 9495TIP3    H149900   5.161   3.182   3.581 -1.2715 -1.1905 -0.7420
 9495TIP3    H249901   5.180   3.132   3.722 -0.1394  0.3886 -0.2996
 9496TIP3   OH249902   0.910   5.938   0.957 -0.2115  0.6765 -0.4148
 9496TIP3    H149903   0.927   5.870   0.893  0.6219 -1.5423  1.9951
 9496TIP3    H249904   0.997   5.970   0.982 -0.5054  1.3416 -0.2087
 9497TIP3   OH249905   1.971   0.577   1.673  0.3258 -0.1149 -0.0066
 9497TIP3    H149906   1.957   0.498   1.726 -2.8818  0.0735 -0.3577
 9497TIP3    H249907   2.061   0.603   1.692  0.3730 -1.8846  2.8008
 9498TIP3   OH249908   6.325   0.750   4.856  0.0410  0.2187 -0.5867
 9498TIP3    H149909   6.340   0.666   4.812 -2.7593 -1.1164  0.7371
 9498TIP3    H249910   6.411   0.775   4.889  0.8048 -2.8508  0.1249
 9499TIP3   OH249911   1.220   2.808  14.172  0.2225 -0.6719  0.1230
 9499TIP3    H149912   1.303   2.850  14.151 -0.1157  1.0310  1.9504
 9499TIP3    H249913   1.157   2.880  14.174 -1.3709 -1.9329 -1.3417
 9500TIP3   OH249914   5.736   3.102  12.565  0.1966 -0.3294 -0.5224
 9500TIP3    H149915   5.743   3.123  12.658 -0.4307  0.7705 -0.7127
 9500TIP3    H249916   5.712   3.185  12.523 -0.7774 -1.0834 -1.5029
 9501TIP3   OH249917   3.979   0.933  16.367 -0.4611  0.3595  0.7293
 9501TIP3    H149918   3.917   0.874  16.325 -0.4505  0.8513 -0.0026
 9501TIP3    H249919   3.932   1.016  16.376 -0.5627  0.1739  1.9810
 9502TIP3   OH249920   3.660   5.869   3.722  0.0121  0.0801 -0.1198
 9502TIP3    H149921   3.685   5.789   3.769  1.4483  0.2941 -0.4656
 9502TIP3    H249922   3.732   5.929   3.738 -0.0198  0.5635 -1.6279
 9503TIP3   OH249923   5.434   2.661  13.887  0.4149 -0.4218  0.2521
 9503TIP3    H149924   5.362   2.722  13.867  0.4472  0.3475  2.2419
 9503TIP3    H249925   5.426   2.592  13.821 -1.1014  0.5179 -0.6081
 9504TIP3   OH249926   6.438   6.362  12.620  0.3029  0.5492  0.5831
 9504TIP3    H149927   6.515   6.407  12.655  0.5889  1.2729 -0.9259
 9504TIP3    H249928   6.421   6.404  12.536 -2.1828  0.9121  1.1692
 9505TIP3   OH249929   2.344   2.706  12.792  0.5993  0.2166 -0.1620
 9505TIP3    H149930   2.330   2.625  12.742  0.0847  0.2855 -0.1319
 9505TIP3    H249931   2.326   2.776  12.729 -0.0831  0.3046  0.1291
 9506TIP3   OH249932   6.158   1.197   0.199  0.1541 -0.3435 -0.1660
 9506TIP3    H149933   6.238   1.199   0.252 -1.3985  2.0530  2.3757
 9506TIP3    H249934   6.087   1.203   0.263 -2.1533 -2.3875 -2.3056
 9507TIP3   OH249935   3.829   1.125   4.457  0.4982 -0.2245  0.0041
 9507TIP3    H149936   3.746   1.169   4.437  0.2268  0.7992  2.9315
 9507TIP3    H249937   3.804   1.036   4.480  0.5080 -0.5557 -1.1743
 9508TIP3   OH249938   4.403   0.228   1.875  0.2828 -0.4560  0.1378
 9508TIP3    H149939   4.369   0.144   1.842  0.3489  0.1123 -1.4606
 9508TIP3    H249940   4.325   0.274   1.906  0.2503 -1.1009  1.0743
 9509TIP3   OH249941   1.354   5.335  16.311 -0.2322  0.0095 -0.2569
 9509TIP3    H149942   1.283   5.354  16.373  0.2361  0.6798  0.0828
 9509TIP3    H249943   1.328   5.253  16.269 -1.2654  0.3102 -0.2242
 9510TIP3   OH249944   5.901   6.287  15.246  0.6803 -0.6460 -0.6363
 9510TIP3    H149945   5.854   6.206  15.261 -0.8953  0.5905  1.5206
 9510TIP3    H249946   5.835   6.348  15.212  0.5154  1.1276  2.4807
 9511TIP3   OH249947   6.570   3.154   5.977  0.2978  0.5187  0.4243
 9511TIP3    H149948   6.488   3.144   5.929  1.2590  1.3740 -1.5116
 9511TIP3    H249949   6.597   3.065   5.998  0.8178 -0.1156 -2.4575
 9512TIP3   OH249950   0.538   6.599   5.635  0.1860 -0.2901  0.2495
 9512TIP3    H149951   0.541   6.694   5.650  2.3544 -0.2949  0.1880
 9512TIP3    H249952   0.445   6.578   5.634 -0.3664  1.8781  0.0211
 9513TIP3   OH249953   6.439   5.934   1.912  0.1068  0.2873  0.0393
 9513TIP3    H149954   6.473   5.939   2.001  0.3545  0.1159 -0.0444
 9513TIP3    H249955   6.431   5.840   1.894 -1.7434  0.3119  0.5589
 9514TIP3   OH249956   3.843   1.645   1.472 -0.5814 -0.2186  0.0685
 9514TIP3    H149957   3.869   1.651   1.380  2.1431 -0.4136  0.7319
 9514TIP3    H249958   3.810   1.555   1.481  0.8076 -0.8101 -0.3790
 9515TIP3   OH249959   2.033   4.639   5.481 -0.4092 -0.2430 -0.3043
 9515TIP3    H149960   2.041   4.572   5.549 -2.2637  1.2904  1.5622
 9515TIP3    H249961   2.075   4.716   5.519 -1.0059  0.5057 -1.1273
 9516TIP3   OH249962   2.129   5.792  17.011 -0.4822  0.3565 -1.0027
 9516TIP3    H149963   2.114   5.875  16.967 -0.8610  1.3798  0.9282
 9516TIP3    H249964   2.219   5.770  16.991 -0.5809  0.8793 -2.0846
 9517TIP3   OH249965   1.395   5.448  16.984 -0.1514  0.0828 -0.1082
 9517TIP3    H149966   1.413   5.354  16.980 -0.2177  0.0753 -0.2160
 9517TIP3    H249967   1.368   5.472  16.895  2.0915  0.6651 -0.6856
 9518TIP3   OH249968   5.980   0.733  16.792  0.8916 -1.0039 -0.2672
 9518TIP3    H149969   5.995   0.671  16.864  2.0252  0.1925  0.5772
 9518TIP3    H249970   5.949   0.813  16.835 -0.4951 -0.9188 -1.3326
 9519TIP3   OH249971   4.468   1.276  13.143  0.3330  0.3192  0.3695
 9519TIP3    H149972   4.396   1.339  13.144 -1.0420 -1.1219 -1.3799
 9519TIP3    H249973   4.487   1.259  13.235 -0.0133  2.3880  0.8663
 9520TIP3   OH249974   0.481   2.332  16.901  0.7166 -0.0230  0.2396
 9520TIP3    H149975   0.554   2.386  16.872  1.1493 -1.4337 -1.4170
 9520TIP3    H249976   0.424   2.324  16.825 -0.1924 -0.5320  0.9459
 9521TIP3   OH249977   2.210   1.726  16.720  0.0915 -0.4530 -0.2105
 9521TIP3    H149978   2.285   1.769  16.680  0.8823 -1.3090  0.3293
 9521TIP3    H249979   2.175   1.790  16.781  1.5356 -0.7122  0.9269
 9522TIP3   OH249980   3.253   3.448  11.288 -0.5004  0.1707 -0.2127
 9522TIP3    H149981   3.172   3.498  11.297  0.0934  1.2789 -0.7524
 9522TIP3    H249982   3.321   3.515  11.279  0.5994 -0.7165  1.1091
 9523TIP3   OH249983   6.195   4.276   4.512 -0.2569 -0.2526  0.1333
 9523TIP3    H149984   6.275   4.251   4.465 -0.2478  0.0099  0.0009
 9523TIP3    H249985   6.188   4.214   4.583 -0.6580 -1.1007 -0.6293
 9524TIP3   OH249986   1.698   5.037   2.697 -0.1728  0.8749 -0.4289
 9524TIP3    H149987   1.608   5.010   2.678  0.2021  0.0835 -1.1653
 9524TIP3    H249988   1.734   5.061   2.611  1.3782 -2.1627 -0.7703
 9525TIP3   OH249989   2.358   3.168  14.151 -0.3367  0.1572  0.2440
 9525TIP3    H149990   2.405   3.232  14.097 -1.4693 -1.1059 -2.4466
 9525TIP3    H249991   2.420   3.096  14.162  0.3312  0.9161  1.8081
 9526TIP3   OH249992   5.737   3.623   4.011  0.4798  0.7587 -0.1070
 9526TIP3    H149993   5.652   3.668   4.006  0.1343  0.6091  2.9148
 9526TIP3    H249994   5.801   3.690   3.985 -0.3538  1.7343  0.2798
 9527TIP3   OH249995   0.254   2.622  13.843 -0.3518 -0.1830  0.5440
 9527TIP3    H149996   0.290   2.584  13.763  1.2578  0.7406  0.7888
 9527TIP3    H249997   0.207   2.700  13.815 -0.4988 -0.3078  0.4367
 9528TIP3   OH249998   6.035   0.185  14.935 -0.1074  0.4130  0.1315
 9528TIP3    H149999   5.957   0.240  14.941  0.8408  1.7445  0.8076
 9528TIP3    H250000   6.108   0.246  14.936  1.0027 -0.8606  0.8565
 9529TIP3   OH250001   6.619   2.321  14.505  0.0063  0.1250 -0.2827
 9529TIP3    H150002   6.641   2.250  14.445 -0.2418 -1.1998  1.1521
 9529TIP3    H250003   6.523   2.327  14.501 -0.0284 -0.1283  0.1593
 9530TIP3   OH250004   4.047   6.612  11.930  0.3252  0.1763  0.1600
 9530TIP3    H150005   4.110   6.637  11.862 -0.7027  2.3690 -0.0874
 9530TIP3    H250006   3.980   6.562  11.883  0.4753  0.2236 -0.1086
 9531TIP3   OH250007   4.947   0.386  15.398 -0.4183  0.0830 -0.1314
 9531TIP3    H150008   4.933   0.334  15.319  1.0144 -0.4531 -0.0465
 9531TIP3    H250009   5.016   0.448  15.374 -0.1989  0.1296  0.6143
 9532TIP3   OH250010   4.301   6.263   0.387  0.2614  0.3431  0.4362
 9532TIP3    H150011   4.334   6.329   0.326 -3.3664 -0.8882 -3.3307
 9532TIP3    H250012   4.354   6.185   0.368 -0.5712  0.0867 -0.9713
 9533TIP3   OH250013   2.079   6.749   3.314  0.4094  0.0896 -0.1137
 9533TIP3    H150014   2.140   6.800   3.261 -1.0944  2.1892  0.0657
 9533TIP3    H250015   1.998   6.747   3.263 -0.0916 -0.6291  0.6709
 9534TIP3   OH250016   4.256   5.384  15.528 -0.3334  0.1985  0.1240
 9534TIP3    H150017   4.299   5.425  15.602 -0.9323  2.1248 -0.5496
 9534TIP3    H250018   4.163   5.389  15.547 -0.4833  0.5038 -0.6446
 9535TIP3   OH250019   1.737   0.934  13.855 -0.4253  0.4491  0.0781
 9535TIP3    H150020   1.694   1.001  13.803  0.1301  0.5501 -0.2579
 9535TIP3    H250021   1.721   0.853  13.808  0.2112  0.5619 -0.3430
 9536TIP3   OH250022   0.801   6.739   5.611  0.6986  0.1368  0.0697
 9536TIP3    H150023   0.876   6.685   5.638  1.0466  0.8869  0.6398
 9536TIP3    H250024   0.729   6.677   5.600  0.9143 -0.3729  1.3679
 9537TIP3   OH250025   5.577   1.304  15.934 -0.8478 -0.8836 -0.6881
 9537TIP3    H150026   5.524   1.269  16.006  1.1714 -0.8847  0.8698
 9537TIP3    H250027   5.656   1.338  15.976  0.8374 -1.7123 -2.9677
 9538TIP3   OH250028   0.680   4.833   2.946  0.2885 -0.5746 -0.0079
 9538TIP3    H150029   0.694   4.839   2.852 -2.9110  0.1463 -0.5627
 9538TIP3    H250030   0.744   4.768   2.976  3.9492  1.7556 -1.9480
 9539TIP3   OH250031   4.540   2.223   5.710  0.2560  0.3767 -0.3351
 9539TIP3    H150032   4.529   2.189   5.622  2.3334 -1.1711 -0.0628
 9539TIP3    H250033   4.490   2.163   5.765 -0.2977  0.8168 -0.3466
 9540TIP3   OH250034   3.064   2.872  12.884  0.3266  0.0731  0.4095
 9540TIP3    H150035   3.098   2.951  12.925 -0.0263  0.1457  0.5713
 9540TIP3    H250036   3.060   2.892  12.791  1.9376 -0.3860  0.2078
 9541TIP3   OH250037   3.967   6.246   0.772 -0.0231  0.0088  0.1791
 9541TIP3    H150038   4.039   6.301   0.742 -0.1700  0.7833  1.1956
 9541TIP3    H250039   3.889   6.302   0.764  0.0789  0.7567  3.1023
 9542TIP3   OH250040   1.412   0.468  14.990 -0.3007 -0.0302 -0.6362
 9542TIP3    H150041   1.328   0.452  15.033  0.3611 -0.1576  0.6624
 9542TIP3    H250042   1.421   0.563  14.987 -0.8665  0.0019 -1.5587
 9543TIP3   OH250043   0.480   2.117  17.060 -0.1299 -0.8638  0.1090
 9543TIP3    H150044   0.468   2.204  17.021 -0.2565 -1.8766 -2.2793
 9543TIP3    H250045   0.398   2.100  17.106 -0.6158 -0.2178 -0.4928
 9544TIP3   OH250046   1.056   3.541  12.082  0.1254  0.4994  0.0578
 9544TIP3    H150047   1.095   3.620  12.044  1.4514 -0.1461  0.0395
 9544TIP3    H250048   1.065   3.553  12.176  1.8714 -0.3590  0.0285
 9545TIP3   OH250049   0.540   4.707  12.721  0.0043 -0.2701 -0.1166
 9545TIP3    H150050   0.512   4.787  12.678 -0.6093 -0.3527  0.1275
 9545TIP3    H250051   0.552   4.731  12.813 -1.4165 -0.7320  0.2171
 9546TIP3   OH250052   3.264   6.071   5.657  0.1403 -0.3746  0.7911
 9546TIP3    H150053   3.310   5.987   5.649  1.0130  0.1401  0.1056
 9546TIP3    H250054   3.281   6.099   5.747 -1.0876 -1.4288  1.3844
 9547TIP3   OH250055   2.100   4.045   2.465 -0.3553 -0.0249  0.3715
 9547TIP3    H150056   2.178   4.073   2.513  0.0221 -0.4692  0.0193
 9547TIP3    H250057   2.033   4.032   2.533 -0.1004  0.2804  0.6789
 9548TIP3   OH250058   0.079   1.001   1.352 -0.0267 -0.4082  0.3533
 9548TIP3    H150059   0.144   1.052   1.304  0.4795 -0.2069  1.2253
 9548TIP3    H250060   0.007   1.063   1.366  0.5807  0.0985  1.3963
 9549TIP3   OH250061   2.759   5.684   5.059 -0.1129 -0.3277  0.6080
 9549TIP3    H150062   2.744   5.646   5.145  0.0372 -1.2793  0.2228
 9549TIP3    H250063   2.781   5.610   5.003 -1.2053  0.1393 -0.4819
 9550TIP3   OH250064   0.536   2.602  15.180  0.1256  0.5008  0.3625
 9550TIP3    H150065   0.526   2.525  15.123  0.7904  2.9513 -3.4237
 9550TIP3    H250066   0.446   2.631  15.195 -0.0606 -0.0339  0.3146
 9551TIP3   OH250067   4.512   2.370   3.334  0.2454  0.4299 -0.3618
 9551TIP3    H150068   4.505   2.298   3.272  0.6848  0.4660 -0.4513
 9551TIP3    H250069   4.561   2.438   3.288 -1.5392  1.4402 -0.8654
 9552TIP3   OH250070   6.422   2.271  13.826  0.2728 -0.1455  0.3022
 9552TIP3    H150071   6.430   2.235  13.914  0.0031 -1.2609 -0.1048
 9552TIP3    H250072   6.437   2.365  13.836 -0.8753 -0.0820  1.7016
 9553TIP3   OH250073   2.347   5.985  12.582 -0.3218  0.1939 -0.2856
 9553TIP3    H150074   2.311   6.034  12.507 -1.5198 -0.0869  0.0814
 9553TIP3    H250075   2.384   5.906  12.543 -0.7799  0.1342 -0.6106
 9554TIP3   OH250076   3.436   2.553   0.771 -0.1055  0.5765  0.5547
 9554TIP3    H150077   3.341   2.558   0.769 -0.3008 -1.7787 -0.6077
 9554TIP3    H250078   3.464   2.576   0.683  0.3090  0.3607  0.6212
 9555TIP3   OH250079   5.680   4.331  12.926  0.0961 -0.6730  0.0408
 9555TIP3    H150080   5.640   4.279  12.996  1.0535 -2.3027 -0.5753
 9555TIP3    H250081   5.712   4.266  12.863  1.4400  0.6600 -0.7077
 9556TIP3   OH250082   1.799   0.298  12.070 -0.0384 -0.1584  0.4741
 9556TIP3    H150083   1.817   0.349  12.149  0.1453  0.1809  0.2182
 9556TIP3    H250084   1.859   0.224  12.075  0.3265  0.1294  0.4053
 9557TIP3   OH250085   0.507   3.154   1.033 -0.3684 -0.4239 -0.2747
 9557TIP3    H150086   0.421   3.113   1.026 -0.7330  0.1910  0.4185
 9557TIP3    H250087   0.554   3.126   0.955 -0.6638 -1.9902  0.0856
 9558TIP3   OH250088   2.181   0.381  11.518 -0.0054 -0.9138  0.2214
 9558TIP3    H150089   2.217   0.342  11.598 -0.6064  2.0984  2.1068
 9558TIP3    H250090   2.254   0.431  11.482 -0.1096 -1.2071 -0.3968
 9559TIP3   OH250091   3.396   6.026  12.513 -0.1315  0.0552 -0.7694
 9559TIP3    H150092   3.328   6.084  12.550  1.3017 -1.1892  4.6512
 9559TIP3    H250093   3.468   6.085  12.492 -0.7973  0.7877 -1.0772
 9560TIP3   OH250094   1.902   3.073  13.996  0.2671 -0.0753  0.0872
 9560TIP3    H150095   1.883   3.000  14.054 -0.2889 -0.0993 -0.1245
 9560TIP3    H250096   1.899   3.150  14.053 -1.9118  0.0956 -0.1734
 9561TIP3   OH250097   3.607   5.080   2.146 -0.2452  0.0979  0.0797
 9561TIP3    H150098   3.575   5.109   2.061 -1.5127  2.6577  1.3210
 9561TIP3    H250099   3.527   5.063   2.197  0.4678 -2.5533  0.4976
 9562TIP3   OH250100   4.212   3.325  10.193 -0.0342  0.1416 -0.0403
 9562TIP3    H150101   4.244   3.409  10.226 -0.7639 -0.6612  3.0571
 9562TIP3    H250102   4.291   3.272  10.180  0.3063 -0.3350  3.1627
 9563TIP3   OH250103   6.093   6.655   4.309 -0.4357 -0.1532 -0.0346
 9563TIP3    H150104   6.121   6.629   4.396 -0.6508 -0.3044 -0.0096
 9563TIP3    H250105   6.173   6.684   4.265 -0.5127  1.1501  0.6356
 9564TIP3   OH250106   2.686   5.361   6.611  0.3668  0.4690 -0.3852
 9564TIP3    H150107   2.749   5.432   6.614 -0.5419  1.2883 -0.2464
 9564TIP3    H250108   2.610   5.394   6.659  0.2936 -0.9608  0.5351
 9565TIP3   OH250109   5.415   1.584  13.420  0.0130  0.5818 -0.6881
 9565TIP3    H150110   5.474   1.615  13.351 -1.2422  0.4018 -1.9039
 9565TIP3    H250111   5.370   1.509  13.381 -0.9144  0.6317  0.2462
 9566TIP3   OH250112   1.758   6.674  14.691  0.3851 -0.1772 -0.2970
 9566TIP3    H150113   1.708   6.644  14.615 -0.4695  1.7653 -0.5709
 9566TIP3    H250114   1.716   6.633  14.766  0.4674 -1.1507 -0.7650
 9567TIP3   OH250115   5.613   1.429  11.365  0.2670  0.6490 -0.0556
 9567TIP3    H150116   5.641   1.441  11.274 -0.0711  0.7644 -0.1444
 9567TIP3    H250117   5.654   1.347  11.392 -0.5474  0.0241 -0.6744
 9568TIP3   OH250118   4.948   2.665  12.037  0.2002  0.7667 -0.0225
 9568TIP3    H150119   4.962   2.743  11.983  0.5376  0.6061 -0.1699
 9568TIP3    H250120   4.913   2.600  11.977  1.0308  0.4359 -0.1565
 9569TIP3   OH250121   3.692   4.495  14.961  0.2865  0.2257 -0.2132
 9569TIP3    H150122   3.716   4.460  15.047 -1.4413 -0.4542  0.0189
 9569TIP3    H250123   3.656   4.582  14.980 -3.2933 -1.1980  0.2528
 9570TIP3   OH250124   2.652   4.826  14.691 -0.0787  0.5566 -0.0427
 9570TIP3    H150125   2.561   4.801  14.671 -0.2251  1.3306 -0.3692
 9570TIP3    H250126   2.702   4.793  14.617  0.1407 -1.1629  0.8171
 9571TIP3   OH250127   3.317   0.194  16.646 -0.1932  0.8179  0.3391
 9571TIP3    H150128   3.375   0.262  16.680  1.2822  0.3201 -1.0311
 9571TIP3    H250129   3.267   0.238  16.576 -0.9477  1.0549  1.0136
 9572TIP3   OH250130   0.903   6.483   4.644  0.0821  0.4000  0.0532
 9572TIP3    H150131   0.874   6.401   4.684  1.3113 -0.0877 -0.0024
 9572TIP3    H250132   0.936   6.535   4.717  0.7949  0.1837 -0.1111
 9573TIP3   OH250133   0.789   5.950   1.802  0.1136 -0.4814  0.0110
 9573TIP3    H150134   0.850   5.911   1.864  0.3634 -1.9329 -1.1044
 9573TIP3    H250135   0.784   6.042   1.828  3.9574  0.0838 -0.7463
 9574TIP3   OH250136   4.352   3.058  17.198  0.2955 -0.0944 -0.1306
 9574TIP3    H150137   4.274   3.048  17.143 -1.0315 -2.5883  1.9578
 9574TIP3    H250138   4.374   3.151  17.191 -2.8285  0.7242 -0.8920
 9575TIP3   OH250139   4.351   1.718  12.679 -0.2648  0.0099 -0.1921
 9575TIP3    H150140   4.320   1.746  12.593 -0.7205 -2.1099 -0.7946
 9575TIP3    H250141   4.271   1.693  12.726  0.1425 -4.2122 -1.2778
 9576TIP3   OH250142   5.207   3.761  14.259 -0.2649  0.3570  0.3285
 9576TIP3    H150143   5.202   3.668  14.282 -0.4698  0.2242 -0.2565
 9576TIP3    H250144   5.286   3.792  14.303  0.8716 -0.5353 -1.0189
 9577TIP3   OH250145   0.052   1.917   4.181 -0.2492  0.6739  0.3171
 9577TIP3    H150146  -0.006   1.961   4.119 -0.8694 -0.6278 -0.0691
 9577TIP3    H250147   0.025   1.825   4.178  1.8128  0.0113  0.1305
 9578TIP3   OH250148   1.801   0.544   0.750  0.2157  0.3445  0.5037
 9578TIP3    H150149   1.817   0.465   0.802  0.2665  0.8020  1.1995
 9578TIP3    H250150   1.705   0.553   0.749  0.2182  0.3793  0.5835
 9579TIP3   OH250151   2.244   1.147   0.004  0.0206  0.3983  0.2190
 9579TIP3    H150152   2.191   1.068  -0.008 -0.2800  0.6368 -0.0399
 9579TIP3    H250153   2.261   1.177  -0.085 -0.2516  0.8815  0.3299
 9580TIP3   OH250154   4.182   6.007   4.669 -0.0114 -0.0011  0.9205
 9580TIP3    H150155   4.149   6.072   4.731 -0.0550 -0.9329  1.8931
 9580TIP3    H250156   4.107   5.949   4.654 -0.3804  0.8926 -0.9574
 9581TIP3   OH250157   5.112   2.007  15.928  0.2444 -0.6492  0.1246
 9581TIP3    H150158   5.107   1.927  15.981  2.3611 -0.7750  0.2356
 9581TIP3    H250159   5.157   2.070  15.984 -2.6435  1.1722  0.5739
 9582TIP3   OH250160   4.096   0.389  14.081  0.3227 -0.1874 -0.6810
 9582TIP3    H150161   4.157   0.385  14.006  0.7424  0.5196 -0.3900
 9582TIP3    H250162   4.119   0.314  14.135  0.5789 -0.2326 -0.8506
 9583TIP3   OH250163   0.118   5.459   1.933 -0.2430 -0.1281 -0.1209
 9583TIP3    H150164   0.123   5.382   1.877 -1.7095 -0.8849  0.7244
 9583TIP3    H250165   0.188   5.446   1.997  0.1421 -0.2642 -0.5634
 9584TIP3   OH250166   0.001   0.286  15.128  0.6672 -0.3459 -0.3295
 9584TIP3    H150167   0.014   0.323  15.215 -0.1918  0.2287 -0.4329
 9584TIP3    H250168   0.089   0.283  15.089  1.2153 -1.5459  0.9009
 9585TIP3   OH250169   5.104   5.472  14.742  0.2470 -0.0892  0.4504
 9585TIP3    H150170   5.168   5.518  14.798 -0.0693  1.0946 -0.1161
 9585TIP3    H250171   5.026   5.527  14.746  0.9438  1.4307 -3.0377
 9586TIP3   OH250172   6.139   2.234   1.210 -0.0007 -0.0077  0.3635
 9586TIP3    H150173   6.147   2.273   1.297  1.4179  1.7426 -0.4853
 9586TIP3    H250174   6.229   2.228   1.178 -0.4419 -1.2964 -0.7273
 9587TIP3   OH250175   1.202   2.544   0.850 -0.3996  0.0875 -0.7712
 9587TIP3    H150176   1.162   2.465   0.814 -0.6105  0.3368 -1.0946
 9587TIP3    H250177   1.227   2.520   0.939 -0.7995 -0.2319 -0.7432
 9588TIP3   OH250178   0.831   0.639   2.642  0.1245  0.6928 -0.5342
 9588TIP3    H150179   0.794   0.644   2.730  0.8929  0.4156 -0.1839
 9588TIP3    H250180   0.838   0.731   2.613  1.2083  0.8836  0.2794
 9589TIP3   OH250181   3.929   4.766   2.665 -0.3723  0.3352  0.2538
 9589TIP3    H150182   3.992   4.838   2.670  2.2420 -1.4753 -2.9283
 9589TIP3    H250183   3.973   4.693   2.709 -0.8388 -0.5843 -0.7564
 9590TIP3   OH250184   0.239   5.638   2.906 -0.7143  0.1357 -0.3941
 9590TIP3    H150185   0.323   5.681   2.920  0.3135 -2.2729  1.3985
 9590TIP3    H250186   0.259   5.545   2.902 -3.2933 -0.5179 -0.1562
 9591TIP3   OH250187   3.779   0.909   3.724  0.6207 -0.2911  0.3316
 9591TIP3    H150188   3.828   0.990   3.741  2.7893 -1.3373 -0.5669
 9591TIP3    H250189   3.799   0.853   3.798 -0.6019 -0.1721  0.7759
 9592TIP3   OH250190   3.684   5.969   2.022 -0.1655  0.0836 -0.0791
 9592TIP3    H150191   3.759   5.910   2.009  0.3220  0.8472 -0.8984
 9592TIP3    H250192   3.657   5.955   2.112  1.4800  0.3369  0.4898
 9593TIP3   OH250193   2.334   3.384   1.455  0.6000  0.7152 -0.2038
 9593TIP3    H150194   2.325   3.411   1.363  0.2046 -0.8309 -0.6436
 9593TIP3    H250195   2.274   3.310   1.465  1.5152  0.0941  0.9781
 9594TIP3   OH250196   0.209   4.946  13.487  0.1847  0.0572 -0.1529
 9594TIP3    H150197   0.240   5.034  13.464 -2.5540  1.4236  0.9718
 9594TIP3    H250198   0.196   4.903  13.403 -3.0058  2.4989 -1.0849
 9595TIP3   OH250199   4.466   5.937  14.450 -0.3147 -0.0402 -0.4045
 9595TIP3    H150200   4.544   5.881  14.454 -1.1350 -1.3676 -1.6743
 9595TIP3    H250201   4.452   5.949  14.356 -1.6372  0.1705 -0.1886
 9596TIP3   OH250202   6.578   5.990  17.347 -0.6976 -0.3398 -0.7120
 9596TIP3    H150203   6.518   6.060  17.320  0.9429  0.9250 -1.2691
 9596TIP3    H250204   6.521   5.919  17.375 -2.4506  1.0312 -0.5987
 9597TIP3   OH250205   5.510   2.857   3.525 -0.8306  0.0351  0.6364
 9597TIP3    H150206   5.495   2.843   3.618 -2.4485 -0.9701  0.2617
 9597TIP3    H250207   5.426   2.889   3.491 -0.3763  0.0557 -0.5341
 9598TIP3   OH250208   3.879   5.480   0.453  0.2917 -0.5104 -0.3212
 9598TIP3    H150209   3.961   5.447   0.489  1.1530  1.5216 -0.2657
 9598TIP3    H250210   3.877   5.449   0.363  1.6900  0.3191 -0.6553
 9599TIP3   OH250211   3.670   3.966   3.731  0.0917  0.9361  0.5485
 9599TIP3    H150212   3.648   3.961   3.824 -0.4083  0.2450  0.4002
 9599TIP3    H250213   3.703   4.055   3.719  3.1382  0.1334  2.0339
 9600TIP3   OH250214   2.901   1.563  16.547  0.2525  0.2787 -0.1201
 9600TIP3    H150215   2.807   1.565  16.530  0.1949 -2.2945 -0.5036
 9600TIP3    H250216   2.920   1.648  16.589 -2.6483 -0.0428  2.1706
 9601TIP3   OH250217   6.244   6.432  12.784 -0.0745 -0.6382 -0.6235
 9601TIP3    H150218   6.308   6.474  12.842 -0.8273 -0.5224  0.1380
 9601TIP3    H250219   6.298   6.388  12.718  0.7469  1.3391 -1.3443
 9602TIP3   OH250220   2.367   3.561  15.148 -0.1335 -0.2754  0.7978
 9602TIP3    H150221   2.343   3.619  15.220  0.0328 -0.5225  1.0578
 9602TIP3    H250222   2.410   3.487  15.191  1.0802  0.1470  0.3470
 9603TIP3   OH250223   0.958   5.011  13.262 -0.5763 -0.2068  0.1766
 9603TIP3    H150224   1.032   5.020  13.322 -0.3437 -0.3786 -0.0783
 9603TIP3    H250225   0.883   4.993  13.318 -0.0272 -2.3138  0.3160
 9604TIP3   OH250226   2.193   4.261  12.922 -0.0562  0.2341 -0.2540
 9604TIP3    H150227   2.218   4.353  12.915 -0.8010  0.4812  0.2718
 9604TIP3    H250228   2.246   4.228  12.995  0.4658  0.1505 -0.6635
 9605TIP3   OH250229   2.800   2.216  12.958 -0.2138  0.0825 -0.7553
 9605TIP3    H150230   2.848   2.198  13.039 -1.6929  1.6582  0.5359
 9605TIP3    H250231   2.747   2.137  12.944  0.7630 -0.5935 -0.7553
 9606TIP3   OH250232   4.620   4.915   4.105  0.6154  0.1865  0.1271
 9606TIP3    H150233   4.600   4.842   4.047  1.4738  0.2785 -0.3081
 9606TIP3    H250234   4.697   4.956   4.066  1.7349 -0.2465  1.7606
 9607TIP3   OH250235   1.399   2.488  16.362 -0.3689  0.1039 -0.1211
 9607TIP3    H150236   1.408   2.577  16.328  0.3839 -0.3039 -1.0580
 9607TIP3    H250237   1.327   2.450  16.310 -0.2082 -0.0511 -0.2340
 9608TIP3   OH250238   6.461   2.730  15.779  0.5847 -0.0487  0.4426
 9608TIP3    H150239   6.499   2.739  15.692  0.2007 -0.2768  0.2477
 9608TIP3    H250240   6.371   2.700  15.763  1.0282 -1.7705  0.9639
 9609TIP3   OH250241   0.474   2.687  14.510 -0.3032  0.4767 -0.0898
 9609TIP3    H150242   0.558   2.659  14.548 -1.7609 -2.0651  1.5341
 9609TIP3    H250243   0.417   2.700  14.585 -1.7576  0.8634 -1.2216
 9610TIP3   OH250244   2.157   1.977  14.650 -0.1876 -0.6708 -0.2115
 9610TIP3    H150245   2.085   2.009  14.704  0.1022  0.7517 -0.6287
 9610TIP3    H250246   2.206   2.055  14.625  0.3447 -1.4015 -1.5976
 9611TIP3   OH250247   5.711   1.477  11.126 -0.2683 -0.4769  0.6579
 9611TIP3    H150248   5.741   1.435  11.045  0.3039 -0.7128  0.9856
 9611TIP3    H250249   5.738   1.568  11.117  1.7953 -0.9468  1.5144
 9612TIP3   OH250250   4.770   2.756   6.421 -0.4156  0.2186 -0.3296
 9612TIP3    H150251   4.777   2.735   6.328 -1.1349  0.1507 -0.3788
 9612TIP3    H250252   4.678   2.780   6.433  0.2043  2.7747 -0.1523
 9613TIP3   OH250253   5.825   2.940   2.298  0.0094 -0.4607 -0.2242
 9613TIP3    H150254   5.820   3.033   2.275 -0.0235 -0.8130 -1.7087
 9613TIP3    H250255   5.850   2.940   2.391 -1.5351  1.0504  0.2560
 9614TIP3   OH250256   0.234   5.027  17.185  0.2718 -0.1736 -0.0067
 9614TIP3    H150257   0.205   4.940  17.210 -2.6029  0.3653 -1.1130
 9614TIP3    H250258   0.307   5.046  17.245 -0.4986 -2.3984  1.7839
 9615TIP3   OH250259   1.337   4.035   3.147  0.4813  0.5885 -0.2678
 9615TIP3    H150260   1.377   4.017   3.062 -0.1339 -0.4966 -0.3600
 9615TIP3    H250261   1.255   3.985   3.144  0.0506  1.2353  0.6333
 9616TIP3   OH250262   0.759   3.185   5.199 -0.6294 -0.0038 -0.3268
 9616TIP3    H150263   0.671   3.151   5.183 -0.4188 -1.7912  1.8463
 9616TIP3    H250264   0.817   3.123   5.154 -0.3675 -1.0770  1.4000
 9617TIP3   OH250265   5.137   0.458   1.627  0.0495 -0.4015 -0.6717
 9617TIP3    H150266   5.061   0.480   1.681  2.2752 -0.7512  2.9249
 9617TIP3    H250267   5.117   0.371   1.592 -1.1990 -0.4968  0.1948
 9618TIP3   OH250268   2.583   1.455  14.895 -0.7006 -0.2098 -0.2732
 9618TIP3    H150269   2.585   1.550  14.901  0.1521 -0.1864 -0.8756
 9618TIP3    H250270   2.516   1.437  14.829 -3.1260 -0.1695  1.9713
 9619TIP3   OH250271   4.850   3.747   0.344  0.2453 -0.5298  0.7420
 9619TIP3    H150272   4.908   3.818   0.371  0.7085 -1.6470  3.0012
 9619TIP3    H250273   4.882   3.671   0.394 -2.2105 -1.5508  0.8924
 9620TIP3   OH250274   4.256   4.320  10.357  0.0998  0.0810  0.2705
 9620TIP3    H150275   4.235   4.407  10.391  0.1399  0.3371 -0.3608
 9620TIP3    H250276   4.326   4.334  10.294  0.6969 -0.5149  0.7867
 9621TIP3   OH250277   5.104   0.980   4.755 -0.1414  0.8343 -0.4620
 9621TIP3    H150278   5.187   0.973   4.802  1.8112 -0.2404 -3.7925
 9621TIP3    H250279   5.099   1.072   4.729 -0.6453  1.1681  0.7496
 9622TIP3   OH250280   6.592   3.032  12.385 -0.8238  0.1681 -0.5459
 9622TIP3    H150281   6.555   2.947  12.410  1.8691 -0.1778  3.0362
 9622TIP3    H250282   6.569   3.090  12.457 -1.2783  2.1293 -2.1926
 9623TIP3   OH250283   4.674   0.803  11.663  0.4350 -0.2244 -0.6482
 9623TIP3    H150284   4.652   0.833  11.575  1.9984  1.1308 -0.6144
 9623TIP3    H250285   4.736   0.867  11.696 -0.5952 -0.3368  1.7161
 9624TIP3   OH250286   4.929   0.243   4.112  0.0397  0.3156 -0.2983
 9624TIP3    H150287   5.012   0.225   4.157  0.4866  0.1725 -1.1549
 9624TIP3    H250288   4.950   0.313   4.051 -0.2912 -0.2055 -1.0242
 9625TIP3   OH250289   2.190   6.440   5.678  0.3053 -0.1962  0.4412
 9625TIP3    H150290   2.215   6.355   5.643 -0.3566  0.0552 -0.7204
 9625TIP3    H250291   2.261   6.464   5.737  2.4104  0.0571 -1.9808
 9626TIP3   OH250292   0.711   4.925   2.477 -0.1713  0.0316  0.4006
 9626TIP3    H150293   0.767   4.953   2.404 -2.2256 -0.9443 -1.6585
 9626TIP3    H250294   0.700   5.004   2.530  0.7700  0.9633 -0.7270
 9627TIP3   OH250295   2.807   4.924   3.510 -0.5179  0.6277  0.0726
 9627TIP3    H150296   2.726   4.935   3.461 -1.2119 -1.3682  0.6503
 9627TIP3    H250297   2.792   4.972   3.592 -0.2430  2.0608 -0.6952
 9628TIP3   OH250298   0.776   3.994   1.410 -0.2934  0.0819 -0.1556
 9628TIP3    H150299   0.757   4.028   1.497 -0.5101 -0.6089  0.0808
 9628TIP3    H250300   0.824   3.913   1.426 -1.2650 -0.6212 -0.6327
 9629TIP3   OH250301   3.721   5.471  17.315 -0.7945 -0.0430 -0.2258
 9629TIP3    H150302   3.720   5.566  17.303 -0.1103  0.0066  0.0489
 9629TIP3    H250303   3.760   5.438  17.234  0.6485  0.0512  0.3974
 9630TIP3   OH250304   0.839   0.293  15.924  0.2880  0.1772  0.2763
 9630TIP3    H150305   0.749   0.324  15.928 -0.3453 -1.6164  1.5823
 9630TIP3    H250306   0.876   0.333  15.846 -1.2388  1.9529  0.4169
 9631TIP3   OH250307   5.713   0.810  11.241  0.3146  0.3739  0.5935
 9631TIP3    H150308   5.667   0.797  11.324 -1.1248 -1.7679 -0.4522
 9631TIP3    H250309   5.804   0.828  11.267 -0.1191 -0.1420  2.6284
 9632TIP3   OH250310   1.432   3.509  13.720 -0.3693 -0.0027  0.0522
 9632TIP3    H150311   1.385   3.519  13.803  0.6150 -2.7916  1.0808
 9632TIP3    H250312   1.364   3.490  13.656 -1.0886  1.5270  0.3263
 9633TIP3   OH250313   3.489   6.675  15.061 -0.1168  0.0591  0.1495
 9633TIP3    H150314   3.447   6.732  15.126 -2.7955 -0.4403 -1.0230
 9633TIP3    H250315   3.417   6.639  15.010  1.7132 -1.7903 -1.3147
 9634TIP3   OH250316   1.921   3.841   4.640  0.4921  0.7598 -0.0373
 9634TIP3    H150317   1.884   3.887   4.715 -0.4560 -2.4134  1.6206
 9634TIP3    H250318   1.845   3.821   4.585  0.6117 -0.2555  0.1467
 9635TIP3   OH250319   2.931   5.420   5.093 -0.1494  0.0746  0.1573
 9635TIP3    H150320   2.982   5.485   5.045 -1.4727 -0.0652 -1.5151
 9635TIP3    H250321   2.916   5.461   5.178  2.4412  0.2303  0.6246
 9636TIP3   OH250322   4.682   2.564   5.899  0.0251  0.4531 -0.7385
 9636TIP3    H150323   4.658   2.656   5.906  2.4159  1.3052 -2.5625
 9636TIP3    H250324   4.774   2.565   5.871 -0.1774 -2.4779 -1.8220
 9637TIP3   OH250325   5.282   5.878  13.473 -0.7617 -0.2883 -0.1006
 9637TIP3    H150326   5.270   5.857  13.565 -1.5328 -1.5385 -0.4617
 9637TIP3    H250327   5.206   5.932  13.450 -0.7043 -0.1956 -0.0756
 9638TIP3   OH250328   0.501   2.875  17.126 -0.2604  0.4690 -0.5062
 9638TIP3    H150329   0.592   2.863  17.097 -0.5855 -1.1188 -0.9817
 9638TIP3    H250330   0.502   2.849  17.218 -0.1432  0.9653 -0.3636
 9639TIP3   OH250331   2.712   5.071   4.661 -1.2229 -0.0373 -0.5813
 9639TIP3    H150332   2.658   5.061   4.583 -1.7901  0.6707 -0.2918
 9639TIP3    H250333   2.691   5.158   4.694  0.5388  0.4943 -0.7844
 9640TIP3   OH250334   4.971   4.025  11.644 -0.0223  0.2858  0.0189
 9640TIP3    H150335   5.036   3.955  11.638 -0.0988  0.2570 -0.4797
 9640TIP3    H250336   4.964   4.043  11.738  0.3348 -0.0577  0.1126
 9641TIP3   OH250337   3.855   0.110   5.853 -0.1830  0.6349 -0.2712
 9641TIP3    H150338   3.814   0.061   5.924  4.3358 -2.1340  0.8055
 9641TIP3    H250339   3.884   0.192   5.893  1.0825 -0.2978  0.8156
 9642TIP3   OH250340   1.140   6.209  13.854 -0.1511 -0.6120 -0.0573
 9642TIP3    H150341   1.096   6.282  13.897 -0.5269  0.0869 -1.5858
 9642TIP3    H250342   1.104   6.207  13.765  0.0727 -2.4647 -0.1615
 9643TIP3   OH250343   1.229   2.419  16.162  0.8828  0.4082 -0.1297
 9643TIP3    H150344   1.137   2.394  16.155  1.0120 -0.2949  0.5859
 9643TIP3    H250345   1.238   2.493  16.102 -0.3556  1.0526  0.4212
 9644TIP3   OH250346   4.288   4.466  12.714  0.6136  0.3620  0.2522
 9644TIP3    H150347   4.369   4.427  12.747 -0.2836 -0.3073  1.7283
 9644TIP3    H250348   4.288   4.556  12.749  1.6736  1.0738 -1.4455
 9645TIP3   OH250349   2.842   1.650  11.686 -0.2462 -0.2043 -0.4303
 9645TIP3    H150350   2.763   1.618  11.642  0.2611 -1.3863 -0.4942
 9645TIP3    H250351   2.813   1.666  11.776 -0.2717 -1.8407 -0.1302
 9646TIP3   OH250352   1.134   4.360  15.450 -0.0196  0.2430  0.0294
 9646TIP3    H150353   1.154   4.449  15.478 -0.0793 -0.5678  2.9236
 9646TIP3    H250354   1.219   4.317  15.445 -0.0714  0.1835 -0.4183
 9647TIP3   OH250355   1.479   2.119   4.481 -0.6120  0.2170 -0.1175
 9647TIP3    H150356   1.471   2.144   4.389  3.4620 -0.4501 -0.8558
 9647TIP3    H250357   1.494   2.201   4.528  2.0758  0.2777 -0.9078
 9648TIP3   OH250358   0.187   0.394   4.722  0.5326  0.1539  0.2516
 9648TIP3    H150359   0.275   0.397   4.760  1.5136 -0.2389 -1.8574
 9648TIP3    H250360   0.166   0.301   4.716 -1.0234  0.2503  2.7409
 9649TIP3   OH250361   4.336   5.151   1.144 -0.1873 -0.6298 -0.5778
 9649TIP3    H150362   4.259   5.165   1.199 -0.3423 -0.6721 -0.7825
 9649TIP3    H250363   4.301   5.137   1.056  0.1462  3.0199 -1.4687
 9650TIP3   OH250364   4.163   2.639   5.356  0.4522 -0.0773  0.0146
 9650TIP3    H150365   4.088   2.601   5.401  0.7685  0.2011  0.7924
 9650TIP3    H250366   4.174   2.585   5.278 -0.3887 -0.2845  0.0257
 9651TIP3   OH250367   5.922   3.253   1.892  0.5460 -0.3971 -0.1204
 9651TIP3    H150368   5.973   3.287   1.818 -0.7717 -0.1285 -0.9462
 9651TIP3    H250369   5.897   3.165   1.865 -0.6632  0.0140 -0.3880
 9652TIP3   OH250370   0.508   6.541   3.120  0.1500 -0.2044 -0.3340
 9652TIP3    H150371   0.580   6.515   3.177  0.5539 -0.0925 -0.7826
 9652TIP3    H250372   0.437   6.563   3.179  0.9929  1.2462  0.2107
 9653TIP3   OH250373   6.555   0.413   3.707 -0.0667 -0.5431 -0.0409
 9653TIP3    H150374   6.640   0.387   3.743 -0.5152 -0.9242  0.7575
 9653TIP3    H250375   6.503   0.333   3.709 -0.1786 -0.5310 -1.3634
 9654TIP3   OH250376   2.272   3.674   3.009  0.0157 -0.2069 -0.1840
 9654TIP3    H150377   2.341   3.683   2.944 -1.1057  0.1345 -1.3819
 9654TIP3    H250378   2.312   3.624   3.081  1.9553  1.3652 -0.0914
 9655TIP3   OH250379   4.448   5.484   2.835  0.7218  0.2697 -0.4160
 9655TIP3    H150380   4.422   5.456   2.747 -1.2305  2.8145 -0.7575
 9655TIP3    H250381   4.401   5.425   2.894  0.5823 -0.3048 -1.0919
 9656TIP3   OH250382   4.215   3.635   5.492  0.3159 -0.4349 -0.1605
 9656TIP3    H150383   4.250   3.559   5.539  1.1138 -0.1308 -0.2451
 9656TIP3    H250384   4.133   3.655   5.536 -0.4715 -2.0301 -0.8334
 9657TIP3   OH250385   1.202   2.882  13.198  0.4128 -0.3889 -0.3182
 9657TIP3    H150386   1.242   2.888  13.112  0.1281  0.9808 -0.3717
 9657TIP3    H250387   1.124   2.827  13.185 -1.4375  2.3639 -1.6634
 9658TIP3   OH250388   3.961   5.741  15.977 -0.2882 -0.1224  0.0901
 9658TIP3    H150389   4.035   5.735  16.039 -0.1106  0.4987 -0.0457
 9658TIP3    H250390   3.963   5.833  15.949 -0.1551 -0.4807 -1.0991
 9659TIP3   OH250391   4.431   2.670  14.137  0.2720 -0.0845 -0.2235
 9659TIP3    H150392   4.440   2.577  14.160 -1.4414 -1.0013 -2.8068
 9659TIP3    H250393   4.506   2.712  14.179 -0.5867 -2.0225  3.7418
 9660TIP3   OH250394   4.734   5.289  14.504 -0.5472 -0.0854 -0.1277
 9660TIP3    H150395   4.827   5.313  14.498  0.2835 -2.7759  0.5655
 9660TIP3    H250396   4.707   5.320  14.590  0.7923 -2.2536  1.2030
 9661TIP3   OH250397   0.969   4.300  15.674  0.0446  0.0325  0.1141
 9661TIP3    H150398   1.037   4.301  15.606 -0.1146 -3.6628 -0.3073
 9661TIP3    H250399   0.887   4.294  15.626 -0.1170 -1.7463  0.5183
 9662TIP3   OH250400   1.063   5.584  15.527  0.5705 -0.2840  0.1678
 9662TIP3    H150401   1.004   5.658  15.511 -1.2423 -1.7486 -0.2441
 9662TIP3    H250402   1.057   5.568  15.621  0.1477 -0.5556  0.0953
 9663TIP3   OH250403   5.044   4.922   3.578  0.6468 -0.2067 -0.2969
 9663TIP3    H150404   5.076   5.012   3.568  0.8567 -0.0564  1.4298
 9663TIP3    H250405   5.052   4.884   3.491 -1.2749  2.0267 -1.5588
 9664TIP3   OH250406   0.399   6.605  14.626 -0.6770  0.2444  0.4305
 9664TIP3    H150407   0.426   6.678  14.571 -0.1011  0.8292  1.4479
 9664TIP3    H250408   0.365   6.539  14.565 -0.3324  0.9807 -0.5758
 9665TIP3   OH250409   3.047   3.311  10.291  0.5687  0.3384  0.4830
 9665TIP3    H150410   3.131   3.295  10.335 -0.0021  0.9929  1.8965
 9665TIP3    H250411   3.034   3.235  10.236  1.6947 -0.1763  0.8898
 9666TIP3   OH250412   5.924   6.494  12.509  0.7764 -0.6159 -0.0452
 9666TIP3    H150413   5.954   6.584  12.494 -1.2319 -0.0611 -1.1124
 9666TIP3    H250414   5.884   6.497  12.596  0.7176 -0.4957 -0.0771
 9667TIP3   OH250415   5.373   3.734   2.116 -0.1695  0.5169 -0.3672
 9667TIP3    H150416   5.398   3.826   2.108  0.4780  0.2020 -2.6694
 9667TIP3    H250417   5.450   3.691   2.152 -0.8314  0.9680  1.7530
 9668TIP3   OH250418   5.205   0.227  12.884  0.3603 -0.3251 -0.5016
 9668TIP3    H150419   5.248   0.313  12.890  0.0021 -0.0973 -1.1686
 9668TIP3    H250420   5.117   0.243  12.919 -0.1435 -0.1051 -1.8210
 9669TIP3   OH250421   5.715   5.037  14.788  0.1804  0.6625  0.4271
 9669TIP3    H150422   5.719   5.070  14.878 -2.0125 -1.7850  1.5744
 9669TIP3    H250423   5.747   4.947  14.794 -1.0537  0.0792 -0.9752
 9670TIP3   OH250424   4.538   0.962   5.370  0.3696  0.9266  0.1503
 9670TIP3    H150425   4.568   0.914   5.447 -1.0768  0.2866  0.3521
 9670TIP3    H250426   4.487   1.035   5.405 -0.3613  0.5878 -0.1791
 9671TIP3   OH250427   3.282   1.602   4.137 -0.4133  0.6592  0.2892
 9671TIP3    H150428   3.227   1.644   4.072 -0.4374  0.0632 -0.0862
 9671TIP3    H250429   3.280   1.661   4.212  0.4431  1.8855 -0.5950
 9672TIP3   OH250430   4.503   4.414  13.281 -0.2008  0.2351  0.1171
 9672TIP3    H150431   4.583   4.379  13.319 -0.2363 -0.1984 -0.1994
 9672TIP3    H250432   4.512   4.509  13.288  1.1954  0.2777 -1.5620
 9673TIP3   OH250433   3.883   2.352  15.314 -0.0845  0.5804  0.1275
 9673TIP3    H150434   3.866   2.273  15.262  0.0527 -0.3496  1.4372
 9673TIP3    H250435   3.976   2.370  15.301 -0.4213  1.3864 -1.3015
 9674TIP3   OH250436   2.176   5.701   4.907  0.0397  0.1479  0.1201
 9674TIP3    H150437   2.108   5.682   4.972 -1.4573  0.3148 -1.3395
 9674TIP3    H250438   2.161   5.792   4.882  1.0792  0.3174  0.0639
 9675TIP3   OH250439   1.028   4.066  15.849  0.6106 -0.4820  0.0855
 9675TIP3    H150440   1.011   4.153  15.811  0.3017 -0.6689 -0.2142
 9675TIP3    H250441   0.941   4.027  15.860  0.8003 -1.7964 -2.2949
 9676TIP3   OH250442   1.565   6.130   5.494  0.2971  0.1021 -0.3767
 9676TIP3    H150443   1.623   6.174   5.431  2.4533 -1.9808  0.0105
 9676TIP3    H250444   1.530   6.055   5.445 -0.4350  0.1887  0.0078
 9677TIP3   OH250445   4.923   6.323   2.772 -0.1947 -1.0679 -0.0015
 9677TIP3    H150446   4.951   6.316   2.863 -0.8143  0.8104  0.3773
 9677TIP3    H250447   4.984   6.266   2.724  0.7488 -1.3471  1.4573
 9678TIP3   OH250448   2.916   0.033   1.489 -0.2971  0.0045  0.1561
 9678TIP3    H150449   2.949   0.103   1.546  2.0533 -0.9382  0.0875
 9678TIP3    H250450   2.994  -0.016   1.464 -1.8493 -2.7705  0.3468
 9679TIP3   OH250451   0.396   4.509  14.579 -0.1491  0.9000 -0.0426
 9679TIP3    H150452   0.387   4.426  14.532 -0.2679  0.5333  0.6157
 9679TIP3    H250453   0.366   4.490  14.668  0.2657  1.5302  0.2431
 9680TIP3   OH250454   1.282   0.324  14.748  0.0015  0.1701 -0.3610
 9680TIP3    H150455   1.363   0.290  14.710  0.4840 -1.7334  2.0787
 9680TIP3    H250456   1.310   0.403  14.795  0.1622  0.3044 -0.6777
 9681TIP3   OH250457   1.812   3.501   5.619 -0.3314  0.1475 -0.5170
 9681TIP3    H150458   1.784   3.433   5.681 -0.5902  1.3335  0.7335
 9681TIP3    H250459   1.842   3.453   5.542 -0.4147 -1.3764  0.3574
 9682TIP3   OH250460   4.442   5.914   6.635 -0.1766 -0.3581 -0.6289
 9682TIP3    H150461   4.428   5.979   6.567  2.1037  1.0513  0.1018
 9682TIP3    H250462   4.374   5.932   6.700 -0.4947  0.3192 -1.1342
 9683TIP3   OH250463   1.854   0.650  13.222  0.5339 -0.4611  0.1602
 9683TIP3    H150464   1.926   0.630  13.281  1.5094  0.1672 -0.7612
 9683TIP3    H250465   1.800   0.714  13.270  1.0022 -0.3755  0.5767
 9684TIP3   OH250466   4.350   3.901   1.569 -0.4657  0.3228  0.2985
 9684TIP3    H150467   4.328   3.946   1.488  2.3056 -0.5483 -1.0603
 9684TIP3    H250468   4.356   3.808   1.545  1.4221  0.1536  1.1629
 9685TIP3   OH250469   0.689   0.111   6.571  0.6473 -0.1253 -0.2216
 9685TIP3    H150470   0.633   0.057   6.627  0.5249 -1.1123 -1.2516
 9685TIP3    H250471   0.629   0.159   6.515  0.8026 -1.1625 -1.3082
 9686TIP3   OH250472   2.603   4.083  15.136  0.2323 -0.2296  0.3735
 9686TIP3    H150473   2.518   4.114  15.104  0.5458  1.4840  1.0786
 9686TIP3    H250474   2.606   3.990  15.112 -2.0042 -0.4323  0.7193
 9687TIP3   OH250475   6.011   3.399  12.333  0.0152 -0.3057 -0.1102
 9687TIP3    H150476   6.000   3.420  12.426 -1.3455  0.1218 -0.3408
 9687TIP3    H250477   5.971   3.472  12.286 -3.1266 -2.3549 -0.9553
 9688TIP3   OH250478   2.367   3.870   6.068  0.1518 -0.0327 -0.1269
 9688TIP3    H150479   2.304   3.799   6.051  0.5932  0.0923 -2.7211
 9688TIP3    H250480   2.313   3.944   6.094 -0.4220 -0.9354  1.3906
 9689TIP3   OH250481   5.932   4.646   1.933  0.1545 -0.4877 -0.2873
 9689TIP3    H150482   5.966   4.565   1.895 -0.1845  0.7703 -3.5639
 9689TIP3    H250483   6.009   4.700   1.948  0.1428 -0.1406 -1.4087
 9690TIP3   OH250484   5.767   3.454   2.351 -0.0788 -0.0000  0.1635
 9690TIP3    H150485   5.786   3.482   2.441  2.2665  0.0565 -0.2906
 9690TIP3    H250486   5.777   3.534   2.299  2.8570 -0.7408 -0.6288
 9691TIP3   OH250487   6.166   3.013   0.838 -0.0510 -0.4901 -0.0843
 9691TIP3    H150488   6.262   3.010   0.844 -0.0198 -0.8168 -0.6813
 9691TIP3    H250489   6.136   2.976   0.921  0.3365 -0.0156  0.2760
 9692TIP3   OH250490   3.467   2.606   0.224  0.0382  0.0720  0.3447
 9692TIP3    H150491   3.424   2.630   0.305  2.4776  0.4692  1.6004
 9692TIP3    H250492   3.550   2.568   0.251  1.7072  1.7951 -1.9771
 9693TIP3   OH250493   5.927   6.235   1.977 -0.8767 -0.4758 -0.3443
 9693TIP3    H150494   5.898   6.325   1.959 -1.4715 -0.4276  0.7368
 9693TIP3    H250495   5.871   6.206   2.049 -0.6879 -1.7244 -0.6774
 9694TIP3   OH250496   5.286   2.408   4.611  0.4601 -0.3943  0.1461
 9694TIP3    H150497   5.368   2.360   4.601  0.6719 -0.2230  0.9924
 9694TIP3    H250498   5.236   2.357   4.675 -0.8500 -1.4640 -1.6432
 9695TIP3   OH250499   5.421   2.651   1.820 -0.0561 -0.0121 -0.2923
 9695TIP3    H150500   5.515   2.644   1.836 -0.0407  0.4900 -0.1579
 9695TIP3    H250501   5.414   2.676   1.728 -0.0640 -0.2056 -0.3447
 9696TIP3   OH250502   1.987   2.764  16.097  0.0843  0.1175  0.1575
 9696TIP3    H150503   2.016   2.845  16.138  0.8742 -0.4512  0.7494
 9696TIP3    H250504   2.042   2.696  16.136 -0.6396 -0.7214 -0.2391
 9697TIP3   OH250505   2.856   5.164  13.168 -0.0883 -0.1390 -0.2532
 9697TIP3    H150506   2.801   5.137  13.095 -0.6334 -0.7431  0.3654
 9697TIP3    H250507   2.839   5.099  13.237  0.6196  0.2560  0.3112
 9698TIP3   OH250508   3.320   5.530  12.777 -0.2271  0.1888  0.2729
 9698TIP3    H150509   3.369   5.560  12.700 -1.4981 -0.8275 -0.9863
 9698TIP3    H250510   3.319   5.435  12.769  0.3033  0.0080  2.0124
 9699TIP3   OH250511   0.323   3.057   1.338  0.3459 -0.1794  0.3368
 9699TIP3    H150512   0.303   3.084   1.248 -0.5957  0.2026  0.6475
 9699TIP3    H250513   0.280   2.972   1.348 -2.0713  1.0534  1.2968
 9700TIP3   OH250514   2.906   0.880   4.651 -0.1765 -0.2457  0.0533
 9700TIP3    H150515   2.859   0.895   4.733  0.6509 -1.0185  0.6971
 9700TIP3    H250516   2.968   0.953   4.645  0.5706 -0.7971  0.7422
 9701TIP3   OH250517   4.303   2.008   0.894 -0.0770  0.2280  0.1630
 9701TIP3    H150518   4.243   2.000   0.820  0.4371 -2.1593 -0.0761
 9701TIP3    H250519   4.349   2.090   0.878 -1.6839  0.9876 -0.8304
 9702TIP3   OH250520   4.429   3.009   1.059 -0.7263 -0.6089  0.0839
 9702TIP3    H150521   4.362   2.953   1.022  0.7375 -1.8742 -0.7576
 9702TIP3    H250522   4.486   2.950   1.108  0.9183  0.0795 -0.9025
 9703TIP3   OH250523   3.470   5.171  14.524 -0.9149 -0.0450  0.1786
 9703TIP3    H150524   3.546   5.205  14.477 -1.1688 -0.6418 -0.6910
 9703TIP3    H250525   3.503   5.092  14.568 -0.6236  0.6316  1.2118
 9704TIP3   OH250526   1.989   6.266   3.997 -0.3693 -0.5107  1.0698
 9704TIP3    H150527   2.060   6.217   4.037 -1.1155 -3.0664 -0.4946
 9704TIP3    H250528   1.965   6.216   3.919 -1.4372  2.2388 -0.5345
 9705TIP3   OH250529   4.547   0.768   1.064 -0.0512 -0.6094  0.0727
 9705TIP3    H150530   4.529   0.679   1.093 -0.3378 -0.9576 -1.1289
 9705TIP3    H250531   4.521   0.770   0.972  0.8952  0.4264 -0.2042
 9706TIP3   OH250532   0.429   2.971  13.888 -0.1129  0.0660  0.4978
 9706TIP3    H150533   0.388   2.942  13.806  2.1081  1.5850 -1.2917
 9706TIP3    H250534   0.369   3.035  13.924 -1.4738 -1.1531  0.4868
 9707TIP3   OH250535   5.836   3.140   2.526  0.5626  0.4560 -0.2727
 9707TIP3    H150536   5.755   3.160   2.480  1.3527  2.2497 -0.9708
 9707TIP3    H250537   5.808   3.090   2.603 -0.9822 -0.7154 -1.5282
 9708TIP3   OH250538   0.462   2.010  16.808  0.3807 -0.1368 -0.1321
 9708TIP3    H150539   0.474   2.052  16.893 -0.1286 -0.4797  0.1137
 9708TIP3    H250540   0.516   2.061  16.748  0.1077  0.5971  0.2408
 9709TIP3   OH250541   5.639   6.670  13.242  0.5367  0.2912  0.0978
 9709TIP3    H150542   5.603   6.585  13.268 -0.0346  0.0091 -1.4683
 9709TIP3    H250543   5.629   6.725  13.319 -1.7948 -0.2476  0.2702
 9710TIP3   OH250544   3.082   3.265  10.721 -0.0722  0.6647 -0.3074
 9710TIP3    H150545   3.115   3.355  10.720  1.6345  0.0931 -0.0841
 9710TIP3    H250546   3.058   3.249  10.812 -1.0210  1.0983 -0.4755
 9711TIP3   OH250547   4.506   0.110   2.116  0.2911 -0.3764  1.0885
 9711TIP3    H150548   4.552   0.026   2.104  1.8036  0.6576 -0.9674
 9711TIP3    H250549   4.522   0.158   2.035  2.6046  3.3817  3.4663
 9712TIP3   OH250550   1.728   3.653  11.877  0.4261  0.1823  0.2843
 9712TIP3    H150551   1.730   3.591  11.949 -0.8969 -0.7468 -0.4388
 9712TIP3    H250552   1.651   3.708  11.894 -0.1367 -0.3012 -0.5868
 9713TIP3   OH250553   0.302   3.956  14.939  0.5170  0.0482 -0.2938
 9713TIP3    H150554   0.306   3.918  14.852 -1.4484 -1.5990  0.2636
 9713TIP3    H250555   0.218   3.927  14.975  0.3771  2.2976  1.4283
 9714TIP3   OH250556   3.964   6.619  14.296 -0.4475 -0.4003  0.3723
 9714TIP3    H150557   4.040   6.589  14.246  1.4672  0.4986  2.5616
 9714TIP3    H250558   3.891   6.567  14.262  0.7507 -0.1733 -2.9764
 9715TIP3   OH250559   5.007   4.206  15.112 -0.1576  0.4692 -0.4989
 9715TIP3    H150560   5.068   4.279  15.100  0.8449 -0.1956  0.3260
 9715TIP3    H250561   4.936   4.223  15.050  0.8945  1.2471 -1.5367
 9716TIP3   OH250562   0.894   3.164   0.235 -0.7745 -0.2661  0.0683
 9716TIP3    H150563   0.821   3.197   0.183  0.1586  0.7389 -0.6309
 9716TIP3    H250564   0.960   3.139   0.171 -0.3364 -0.7891  0.7101
 9717TIP3   OH250565   0.497   4.692   1.349 -0.3203 -0.4023  0.0165
 9717TIP3    H150566   0.540   4.620   1.395  0.4554 -0.8844 -1.4222
 9717TIP3    H250567   0.538   4.694   1.263 -1.7949  0.4211 -0.7061
 9718TIP3   OH250568   0.993   5.445  17.011  0.7927 -0.0238  0.1089
 9718TIP3    H150569   1.036   5.473  16.931  0.9568  2.5170  0.9858
 9718TIP3    H250570   0.911   5.496  17.013  0.8016 -0.0166  1.5190
 9719TIP3   OH250571   1.408   3.101  14.857  0.1243 -0.2476  0.2212
 9719TIP3    H150572   1.342   3.158  14.817  0.2962 -0.1022  0.1409
 9719TIP3    H250573   1.481   3.104  14.796  0.3575 -0.0923  0.5046
 9720TIP3   OH250574   3.796   5.044   4.676  0.0044 -0.0797 -0.1408
 9720TIP3    H150575   3.878   5.091   4.687 -0.2890  0.4148 -0.0482
 9720TIP3    H250576   3.802   4.969   4.735  0.3485  0.0076 -0.0667
 9721TIP3   OH250577   4.438   1.918   3.681  0.2602 -0.5085  0.3149
 9721TIP3    H150578   4.478   1.839   3.715  0.8770 -0.2875  0.1193
 9721TIP3    H250579   4.512   1.975   3.659 -0.1684  0.0422  0.2701
 9722TIP3   OH250580   3.698   4.562  13.506 -0.0822  0.1789  1.1173
 9722TIP3    H150581   3.658   4.649  13.510 -0.6888 -0.0372 -0.1036
 9722TIP3    H250582   3.689   4.527  13.595  1.3801  1.8708  2.0042
 9723TIP3   OH250583   5.078   3.589  16.681  0.4581 -0.2830 -0.3026
 9723TIP3    H150584   5.138   3.517  16.702  1.0286 -0.0079 -0.9518
 9723TIP3    H250585   4.998   3.569  16.730  0.5522 -1.4438 -0.5902
 9724TIP3   OH250586   1.762   5.372  16.488  0.3925  0.2406  0.1762
 9724TIP3    H150587   1.704   5.429  16.436 -1.1732 -1.3835  0.0304
 9724TIP3    H250588   1.707   5.341  16.560 -0.3144 -4.2384 -1.8996
 9725TIP3   OH250589   1.804   6.593   4.934  0.2111  0.2042  0.5028
 9725TIP3    H150590   1.764   6.653   4.870 -0.4434 -1.3658 -0.6245
 9725TIP3    H250591   1.895   6.620   4.938  0.0338  0.9894 -0.3325
 9726TIP3   OH250592   4.067   4.623  16.766 -0.1519 -0.0189  0.2151
 9726TIP3    H150593   4.111   4.547  16.804  1.0939  0.6344  0.1473
 9726TIP3    H250594   4.079   4.613  16.672  1.4834  1.0580  0.2633
 9727TIP3   OH250595   2.290   0.621   5.810  0.1279  0.0804  0.0845
 9727TIP3    H150596   2.254   0.699   5.767  0.3151  0.0566 -0.1137
 9727TIP3    H250597   2.329   0.654   5.891 -1.3870 -0.0389  0.9077
 9728TIP3   OH250598   1.221   0.093  11.395 -0.3194 -0.1409 -0.6375
 9728TIP3    H150599   1.306   0.062  11.428 -0.6070  0.4678  0.7506
 9728TIP3    H250600   1.236   0.111  11.302  1.2922  0.7005 -0.2452
 9729TIP3   OH250601   6.295   3.377  16.348 -0.4026 -0.6100  0.2085
 9729TIP3    H150602   6.308   3.293  16.304  0.5065 -0.8598  0.9124
 9729TIP3    H250603   6.205   3.375  16.380 -0.3868 -1.3204  0.2229
 9730TIP3   OH250604   0.992   2.431  11.416  0.4082  0.1394 -0.2157
 9730TIP3    H150605   0.921   2.456  11.475  0.5655 -0.6335  0.3212
 9730TIP3    H250606   1.067   2.482  11.447  0.6127 -0.6206  0.5743
 9731TIP3   OH250607   5.339   1.258  10.336  0.5404  0.2005 -0.1371
 9731TIP3    H150608   5.298   1.215  10.412  1.9675 -1.5384 -0.2883
 9731TIP3    H250609   5.266   1.300  10.290 -0.7292 -0.9092  0.7850
 9732TIP3   OH250610   4.710   1.638   2.267 -0.2813  0.2078 -0.8896
 9732TIP3    H150611   4.696   1.732   2.255 -2.0108  0.0181 -0.7042
 9732TIP3    H250612   4.623   1.600   2.257 -0.3769 -0.9553  2.7844
 9733TIP3   OH250613   6.580   3.847   4.086  0.3714 -0.7829  0.1315
 9733TIP3    H150614   6.643   3.918   4.073  1.3466 -1.7666 -0.7497
 9733TIP3    H250615   6.596   3.817   4.175  1.8307 -1.6042 -0.3669
 9734TIP3   OH250616   4.022   3.184  16.100 -0.6118 -0.1946  0.2920
 9734TIP3    H150617   4.112   3.178  16.132 -0.9700  0.8505  1.6198
 9734TIP3    H250618   3.968   3.159  16.175 -1.4476  0.1830 -0.1681
 9735TIP3   OH250619   2.502   0.847   4.023  0.0147  0.4247  0.0661
 9735TIP3    H150620   2.536   0.758   4.031 -0.4125  0.0993 -1.3813
 9735TIP3    H250621   2.522   0.888   4.107 -2.0105 -1.7697  1.7585
 9736TIP3   OH250622   2.724   3.357   5.244 -0.2859 -0.1564 -0.2931
 9736TIP3    H150623   2.754   3.363   5.335  2.4189 -1.9649 -0.9392
 9736TIP3    H250624   2.693   3.267   5.235 -2.1854  0.5031 -0.7744
 9737TIP3   OH250625   1.524   0.821   1.884 -0.1742 -0.0354  0.4189
 9737TIP3    H150626   1.463   0.845   1.953 -1.2741  0.4123 -0.6807
 9737TIP3    H250627   1.582   0.897   1.875 -0.1794 -0.0018  0.6868
 9738TIP3   OH250628   0.344   0.892  13.799 -0.2382  0.0244 -0.4313
 9738TIP3    H150629   0.349   0.987  13.788 -0.8787 -0.0207 -1.2362
 9738TIP3    H250630   0.310   0.860  13.715  2.0600 -1.1409 -1.0072
 9739TIP3   OH250631   2.680   4.116  13.196 -0.0620 -0.2115  0.3906
 9739TIP3    H150632   2.669   4.173  13.120 -0.1939  0.7526  1.1117
 9739TIP3    H250633   2.691   4.028  13.159  0.7594  0.3540 -0.7759
 9740TIP3   OH250634   3.704   3.015   2.409 -0.4697 -0.1533  0.1788
 9740TIP3    H150635   3.610   3.000   2.413 -0.5873  0.4464 -0.1845
 9740TIP3    H250636   3.731   2.974   2.327 -0.8093  1.6107 -0.8687
 9741TIP3   OH250637   5.443   3.731   3.469  0.9223 -0.0473 -0.2578
 9741TIP3    H150638   5.486   3.816   3.458  2.1762 -0.8442 -1.9540
 9741TIP3    H250639   5.406   3.734   3.558  1.7288  1.8929  0.0643
 9742TIP3   OH250640   1.920   4.542   3.779  0.2229  0.0038 -0.3869
 9742TIP3    H150641   1.875   4.619   3.813 -0.5697 -0.5240 -0.2090
 9742TIP3    H250642   1.993   4.528   3.839 -1.0024 -0.7680  1.0103
 9743TIP3   OH250643   4.163   0.483   3.130  0.0855  0.6147  0.3006
 9743TIP3    H150644   4.166   0.430   3.050 -0.3844  0.4082  0.4225
 9743TIP3    H250645   4.251   0.522   3.136  0.9343 -1.3041  1.0057
 9744TIP3   OH250646   2.144   1.301   3.923 -0.0494 -0.1032 -0.1222
 9744TIP3    H150647   2.112   1.388   3.899  0.1621 -0.3345 -1.2682
 9744TIP3    H250648   2.222   1.318   3.976 -0.5664  0.4077  0.5065
 9745TIP3   OH250649   1.405   6.750  13.173 -0.1609 -0.0432 -0.1660
 9745TIP3    H150650   1.406   6.672  13.228  0.6187  0.2859  0.3043
 9745TIP3    H250651   1.387   6.716  13.085  0.5788 -0.8083 -0.0428
 9746TIP3   OH250652   5.484   3.183  11.959  0.0809 -0.1801 -0.3441
 9746TIP3    H150653   5.399   3.149  11.931  0.1959 -0.9934  0.2911
 9746TIP3    H250654   5.498   3.259  11.901 -2.0929  1.3664  0.9640
 9747TIP3   OH250655   2.731   5.808  12.068  0.3126  0.4309 -0.1881
 9747TIP3    H150656   2.737   5.713  12.055  0.1232  0.2109  1.2032
 9747TIP3    H250657   2.651   5.833  12.022  0.4559 -0.0532 -0.7120
 9748TIP3   OH250658   0.323   0.475   5.774 -0.4139 -0.0226 -0.0533
 9748TIP3    H150659   0.327   0.553   5.830 -0.6853 -1.0685  1.4891
 9748TIP3    H250660   0.286   0.507   5.691  0.7194  1.7207  0.0574
 9749TIP3   OH250661   4.397   5.094   0.544  0.2544 -0.4940  0.2616
 9749TIP3    H150662   4.402   5.183   0.577  2.0978 -1.0505  1.7342
 9749TIP3    H250663   4.408   5.039   0.622 -0.0115 -1.9854 -0.7050
 9750TIP3   OH250664   1.993   5.935   0.921  0.3502 -0.2926  0.3718
 9750TIP3    H150665   2.002   5.847   0.884  0.5633  0.1656 -0.7055
 9750TIP3    H250666   1.956   5.987   0.850  0.2137  0.4955  1.0045
 9751TIP3   OH250667   3.502   0.186  16.183  0.1708  0.4861  0.5266
 9751TIP3    H150668   3.517   0.235  16.102  0.3545  1.4818  1.1511
 9751TIP3    H250669   3.406   0.180  16.189  0.1627 -0.2202 -0.1224
 9752TIP3   OH250670   0.725   0.640   0.805 -0.0901  0.0754 -0.2890
 9752TIP3    H150671   0.741   0.724   0.850  0.2650  0.0775 -0.4194
 9752TIP3    H250672   0.788   0.639   0.733  0.5090 -0.6973  0.2360
 9753TIP3   OH250673   5.902   1.119  13.796  0.6086  0.1055 -0.0721
 9753TIP3    H150674   5.903   1.063  13.718  0.9402 -0.2052  0.1498
 9753TIP3    H250675   5.822   1.171  13.788 -0.0734 -0.9021  0.0634
 9754TIP3   OH250676   2.609   6.274  12.296  0.2985 -0.0410 -0.6490
 9754TIP3    H150677   2.644   6.199  12.248  1.6413  0.3927 -0.3862
 9754TIP3    H250678   2.561   6.325  12.230  1.6639  0.2709 -1.4229
 9755TIP3   OH250679   3.631   2.009  14.710  0.4037  0.5030  0.5355
 9755TIP3    H150680   3.709   1.958  14.686 -0.9202 -0.9871 -0.7805
 9755TIP3    H250681   3.566   1.944  14.734 -0.8809  1.6572  0.2705
 9756TIP3   OH250682   1.997   1.864  13.393  0.1742  0.2068 -0.1056
 9756TIP3    H150683   1.978   1.775  13.364 -0.3600  0.2324  0.1348
 9756TIP3    H250684   1.911   1.900  13.414  0.3656  0.8729 -0.4684
 9757TIP3   OH250685   2.622   3.959   3.647 -0.9723  0.3196 -0.0791
 9757TIP3    H150686   2.625   4.055   3.652 -1.1089  0.3142  0.1032
 9757TIP3    H250687   2.677   3.929   3.719 -0.3061  0.2635 -0.5987
 9758TIP3   OH250688   0.423   5.131  15.128  0.6015 -0.2741  0.3050
 9758TIP3    H150689   0.495   5.168  15.178 -1.8670  4.6508  0.7304
 9758TIP3    H250690   0.456   5.128  15.038  1.2351  2.6244  0.3518
 9759TIP3   OH250691   4.651   3.555  15.118 -0.0416 -0.0100  0.1019
 9759TIP3    H150692   4.636   3.514  15.204  3.2318 -1.9008 -0.0321
 9759TIP3    H250693   4.593   3.508  15.059 -1.5661  0.5750  1.0954
 9760TIP3   OH250694   5.390   0.176  15.235  0.8342 -0.3985  0.8676
 9760TIP3    H150695   5.375   0.264  15.199  0.7648 -0.1262  1.5507
 9760TIP3    H250696   5.339   0.118  15.179  1.0898 -0.0376  0.2472
 9761TIP3   OH250697   3.366   3.393  12.019 -0.4376  0.2253  0.5168
 9761TIP3    H150698   3.429   3.322  12.024 -1.3207 -0.5292  1.3003
 9761TIP3    H250699   3.413   3.469  12.054  0.0973 -0.2671  0.8851
 9762TIP3   OH250700   5.420   5.062  14.800 -0.8010 -0.0282 -0.4213
 9762TIP3    H150701   5.514   5.058  14.780 -0.4720  0.4211  0.9213
 9762TIP3    H250702   5.403   4.983  14.851 -1.5047 -0.8731 -1.8918
 9763TIP3   OH250703   3.944   5.848   4.720 -0.2938 -0.1129  0.1885
 9763TIP3    H150704   3.945   5.752   4.716  0.3976 -0.0704 -0.8972
 9763TIP3    H250705   3.852   5.870   4.734 -0.5000 -0.9347  0.1686
 9764TIP3   OH250706   1.782   3.302  16.228  0.5149  0.2321  0.1702
 9764TIP3    H150707   1.829   3.285  16.310 -0.5839  0.8754  0.9490
 9764TIP3    H250708   1.832   3.371  16.185  1.9058 -1.0639 -0.4209
 9765TIP3   OH250709   4.531   4.784  16.594  0.1269 -0.2028 -0.0733
 9765TIP3    H150710   4.527   4.808  16.502 -0.1543  2.1877  0.5030
 9765TIP3    H250711   4.440   4.779  16.622  0.2056 -1.1078  0.0511
 9766TIP3   OH250712   2.401   1.488  17.292 -0.3452 -0.6463  0.4942
 9766TIP3    H150713   2.468   1.424  17.314  0.9974 -0.3076 -2.2290
 9766TIP3    H250714   2.320   1.452  17.329  0.8793 -2.3735  1.6010
 9767TIP3   OH250715   5.842   5.452  12.109  0.7021 -0.4515  0.1889
 9767TIP3    H150716   5.856   5.429  12.201 -0.5780  0.9053  0.7486
 9767TIP3    H250717   5.904   5.523  12.092  1.1018 -0.8553 -0.0868
 9768TIP3   OH250718   1.268   3.302   0.030  0.6351  0.3326  0.4332
 9768TIP3    H150719   1.294   3.311   0.122 -1.1217  1.4171  0.8742
 9768TIP3    H250720   1.185   3.255   0.033  0.9946 -0.4246 -0.6929
 9769TIP3   OH250721   3.118   0.831  15.277  0.2882 -0.3394  0.1839
 9769TIP3    H150722   3.083   0.801  15.193 -0.4517  0.9554 -0.0010
 9769TIP3    H250723   3.195   0.882  15.254  1.2539 -1.6003  0.4656
 9770TIP3   OH250724   1.324   2.748  16.235  0.3963 -0.3821 -0.0709
 9770TIP3    H150725   1.245   2.734  16.287  0.8783 -2.4362  0.2022
 9770TIP3    H250726   1.293   2.784  16.152 -0.5256  1.5259  1.0462
 9771TIP3   OH250727   5.318   6.595   6.241 -0.3856  0.4985 -0.1117
 9771TIP3    H150728   5.371   6.530   6.285 -0.7234 -0.3927 -0.9781
 9771TIP3    H250729   5.248   6.616   6.303 -0.5543 -0.3368 -0.0091
 9772TIP3   OH250730   5.016   4.049  11.016 -0.0409 -0.0281  0.0341
 9772TIP3    H150731   5.030   4.143  11.008  2.2412 -0.1272  1.6360
 9772TIP3    H250732   5.043   4.013  10.932 -0.2541  0.6918 -0.3467
 9773TIP3   OH250733   0.733   1.545  12.170 -0.4231 -0.1259 -0.0197
 9773TIP3    H150734   0.775   1.630  12.182  0.3454 -0.4294 -0.5082
 9773TIP3    H250735   0.663   1.544  12.236  0.8545  0.0471  1.3895
 9774TIP3   OH250736   4.173   5.509   3.661  0.1924 -0.2466  0.4676
 9774TIP3    H150737   4.125   5.428   3.647  0.9630 -0.5926 -0.2731
 9774TIP3    H250738   4.245   5.485   3.720  0.1152  0.0138  0.6697
 9775TIP3   OH250739   6.059   2.635   5.103  0.0358  0.1437  0.5595
 9775TIP3    H150740   6.140   2.600   5.140  0.0038 -0.6319 -0.0710
 9775TIP3    H250741   5.994   2.567   5.119  0.4515 -1.1571 -2.6278
 9776TIP3   OH250742   3.554   4.814   5.289  0.6042 -0.3114  0.0634
 9776TIP3    H150743   3.471   4.859   5.309  0.9251  0.8040 -1.0173
 9776TIP3    H250744   3.612   4.884   5.259  1.6482 -1.2322 -0.1020
 9777TIP3   OH250745   0.248   1.291   1.433  0.0648 -0.0201  0.0114
 9777TIP3    H150746   0.278   1.353   1.500  2.0339 -0.5736 -0.2947
 9777TIP3    H250747   0.190   1.232   1.481 -0.6605  1.1373  0.6289
 9778TIP3   OH250748   3.511   5.800  16.520 -0.0276 -0.0906 -0.1239
 9778TIP3    H150749   3.565   5.870  16.557  0.5171 -1.4327  1.8171
 9778TIP3    H250750   3.423   5.836  16.519  0.0585  0.3243  1.8422
 9779TIP3   OH250751   5.306   2.908  12.540  0.6717 -0.0867 -0.0890
 9779TIP3    H150752   5.242   2.957  12.592 -0.2200 -0.4655 -0.7958
 9779TIP3    H250753   5.306   2.951  12.455  0.3205 -0.9293 -0.5282
 9780TIP3   OH250754   5.095   1.006   5.388  0.4582  0.3396 -0.6311
 9780TIP3    H150755   5.011   0.986   5.430  0.3647  0.0583 -0.9529
 9780TIP3    H250756   5.072   1.020   5.296  0.6022  1.3417 -0.5239
 9781TIP3   OH250757   1.963   0.349  11.040 -0.5723  0.0183  0.0586
 9781TIP3    H150758   2.053   0.380  11.047 -0.7641  0.6772 -0.3568
 9781TIP3    H250759   1.964   0.290  10.965  0.2263 -2.6036  1.9684
 9782TIP3   OH250760   4.015   2.427  12.947 -0.5082  0.1936 -0.1719
 9782TIP3    H150761   4.065   2.424  12.866 -0.2391  1.3475 -0.0717
 9782TIP3    H250762   3.926   2.450  12.919 -0.9482 -1.5407 -0.3195
 9783TIP3   OH250763   6.410   6.182   1.346  0.3287  0.3417 -0.4194
 9783TIP3    H150764   6.432   6.240   1.274  0.6613 -0.8606 -1.3247
 9783TIP3    H250765   6.476   6.113   1.343  0.1517  0.0838  0.8284
 9784TIP3   OH250766   3.176   6.226  13.956  0.2625 -0.3695  0.0500
 9784TIP3    H150767   3.115   6.281  13.907  0.3084 -0.9847 -0.7218
 9784TIP3    H250768   3.257   6.229  13.905  0.2891 -1.0742  0.0363
 9785TIP3   OH250769   0.931   4.418  14.357 -0.6721 -0.9942 -0.0296
 9785TIP3    H150770   0.878   4.443  14.433 -0.4994 -1.0418  0.1058
 9785TIP3    H250771   0.904   4.479  14.288 -2.5584 -2.4294 -0.6504
 9786TIP3   OH250772   1.922   3.656  14.162  0.2206 -0.3890  0.3184
 9786TIP3    H150773   1.904   3.590  14.096  0.3365 -0.2791  0.1731
 9786TIP3    H250774   2.003   3.626  14.204 -0.8676 -1.4693  1.7318
 9787TIP3   OH250775   1.839   1.860   6.248  0.8841  0.3568  0.0341
 9787TIP3    H150776   1.822   1.815   6.331  2.0879  1.9501  1.2034
 9787TIP3    H250777   1.766   1.922   6.239  0.5534 -0.0713 -0.3202
 9788TIP3   OH250778   0.346   1.206   5.644 -0.3896  1.1212 -0.3296
 9788TIP3    H150779   0.275   1.210   5.708  1.2105  0.1808  1.6425
 9788TIP3    H250780   0.390   1.291   5.652  0.8507  0.3996  1.2132
 9789TIP3   OH250781   2.174   5.239  11.443  0.2929  0.0432  0.0015
 9789TIP3    H150782   2.097   5.274  11.487  0.2545 -0.7045  0.5486
 9789TIP3    H250783   2.138   5.181  11.375  0.3303  1.6953 -1.5195
 9790TIP3   OH250784   3.472   1.307  14.024 -0.0592 -0.5951  0.6058
 9790TIP3    H150785   3.442   1.235  14.080 -2.8966 -0.3211 -0.4392
 9790TIP3    H250786   3.444   1.386  14.069 -0.4531 -0.2969 -0.1547
 9791TIP3   OH250787   5.637   4.587   0.204  0.3400 -0.2773  0.2480
 9791TIP3    H150788   5.571   4.526   0.169  0.0667 -0.0544  0.3703
 9791TIP3    H250789   5.648   4.653   0.136 -1.2366  0.9519  1.1220
 9792TIP3   OH250790   6.077   3.951  12.097  0.4964 -0.1710  0.1231
 9792TIP3    H150791   6.069   4.044  12.077 -1.0222 -0.2551  0.2416
 9792TIP3    H250792   6.037   3.941  12.183 -1.7077 -1.3007 -0.9525
 9793TIP3   OH250793   1.518   3.125  16.866 -0.2039  0.3032 -0.6862
 9793TIP3    H150794   1.589   3.096  16.808  0.5095  0.2134  0.2172
 9793TIP3    H250795   1.555   3.201  16.911 -0.4188 -0.1865  0.3299
 9794TIP3   OH250796   5.094   5.354  16.161 -0.0420 -0.2225 -0.4997
 9794TIP3    H150797   5.174   5.303  16.160  0.8808  1.1613 -1.8974
 9794TIP3    H250798   5.122   5.445  16.148 -1.6216  0.6843  1.7445
 9795TIP3   OH250799   5.108   5.209  15.903 -0.0325 -0.6327 -1.0844
 9795TIP3    H150800   5.116   5.225  15.997  1.7490 -2.0598 -0.9293
 9795TIP3    H250801   5.073   5.291  15.867  1.1437  0.6621  0.5693
 9796TIP3   OH250802   6.136   2.864  13.197 -0.1477 -0.0295 -0.1423
 9796TIP3    H150803   6.174   2.791  13.149 -2.1494 -0.3835 -1.2712
 9796TIP3    H250804   6.087   2.914  13.132  0.9685  2.2521  0.6299
 9797TIP3   OH250805   5.803   1.366   0.293  0.5280  0.2382  0.2207
 9797TIP3    H150806   5.767   1.277   0.292 -0.4000  0.5957 -0.9898
 9797TIP3    H250807   5.829   1.382   0.203  2.4300  0.5522  0.7796
 9798TIP3   OH250808   5.245   0.558   2.992 -0.3417 -0.0771 -0.2068
 9798TIP3    H150809   5.154   0.542   2.970 -0.3854 -1.7610  0.9746
 9798TIP3    H250810   5.292   0.481   2.958  0.8433  1.2508 -1.7468
 9799TIP3   OH250811   5.773   3.364  16.195  0.0748 -0.2808  0.3681
 9799TIP3    H150812   5.837   3.429  16.223  1.1557 -0.4095 -1.6428
 9799TIP3    H250813   5.789   3.354  16.101 -2.6540 -0.5986 -0.1401
 9800TIP3   OH250814   1.908   3.040   0.290 -0.5773  0.2472 -0.3506
 9800TIP3    H150815   1.895   2.950   0.260  2.1075  0.0148 -1.0391
 9800TIP3    H250816   1.884   3.094   0.215 -1.8991  0.1161 -0.0402
 9801TIP3   OH250817   6.648   1.368  12.586 -1.0577 -0.4637  0.2127
 9801TIP3    H150818   6.692   1.453  12.588  0.4054 -1.1699 -0.2011
 9801TIP3    H250819   6.558   1.387  12.610 -0.8006  1.2244 -0.0091
 9802TIP3   OH250820   1.599   3.917   2.120  0.1529  0.0888 -0.1404
 9802TIP3    H150821   1.691   3.943   2.125  0.0632  0.3736  0.0123
 9802TIP3    H250822   1.550   3.999   2.118 -0.1751 -0.0531  1.1196
 9803TIP3   OH250823   3.633   5.627  13.723 -0.3226 -0.1938  0.2399
 9803TIP3    H150824   3.717   5.581  13.720  0.0774  0.4872  0.8780
 9803TIP3    H250825   3.569   5.558  13.740 -0.1885 -1.0524 -2.2813
 9804TIP3   OH250826   0.995   0.449   1.642 -0.5804  0.2656 -0.1383
 9804TIP3    H150827   0.939   0.504   1.587  2.5862  1.4353 -2.5027
 9804TIP3    H250828   0.959   0.361   1.632 -2.5259  1.0661 -0.6984
 9805TIP3   OH250829   6.592   6.237  15.318  0.0158  0.4414 -0.2958
 9805TIP3    H150830   6.503   6.210  15.296 -0.1255 -0.2064  0.9785
 9805TIP3    H250831   6.587   6.332  15.325 -0.6706  0.3864  0.0853
 9806TIP3   OH250832   4.595   3.694   0.454 -0.0960 -0.4492 -0.2183
 9806TIP3    H150833   4.650   3.684   0.532  0.2946  1.1734 -0.2367
 9806TIP3    H250834   4.656   3.721   0.385 -0.8183  0.9044 -0.3567
 9807TIP3   OH250835   1.540   5.565   2.771 -0.3201  0.0633  0.3402
 9807TIP3    H150836   1.525   5.645   2.721  1.9232 -1.0638 -2.4080
 9807TIP3    H250837   1.589   5.594   2.848  0.7991  1.3252 -0.7911
 9808TIP3   OH250838   5.937   4.346   3.190  0.5876  0.9441 -0.4049
 9808TIP3    H150839   5.995   4.413   3.227  0.7134  0.4304  0.3577
 9808TIP3    H250840   5.925   4.372   3.099  1.1654  1.6416 -0.2907
 9809TIP3   OH250841   3.076   2.672   4.057  0.1213 -0.3811  0.0374
 9809TIP3    H150842   3.000   2.728   4.074  1.0540  1.6757 -1.9477
 9809TIP3    H250843   3.120   2.665   4.142  0.1134  2.2706  0.3600
 9810TIP3   OH250844   0.283   6.621  16.033  0.1202  1.0680 -0.6847
 9810TIP3    H150845   0.214   6.672  16.075 -0.3665  0.3862 -0.6380
 9810TIP3    H250846   0.342   6.598  16.104 -0.2950  0.5655 -0.4934
 9811TIP3   OH250847   3.920   6.299  12.234 -0.0982  0.3487 -0.2427
 9811TIP3    H150848   3.915   6.231  12.168 -0.3993 -1.4696  1.5623
 9811TIP3    H250849   3.830   6.332  12.241 -0.5875 -1.1513  0.9163
 9812TIP3   OH250850   5.481   4.122  14.785  0.4499 -0.2702 -0.1721
 9812TIP3    H150851   5.491   4.106  14.691  0.5837  0.5340 -0.3017
 9812TIP3    H250852   5.473   4.035  14.823  1.6281 -0.6669 -0.7890
 9813TIP3   OH250853   0.885   4.456   4.311 -1.1831 -0.2216  0.9849
 9813TIP3    H150854   0.947   4.438   4.382 -1.5073 -0.0084  1.3231
 9813TIP3    H250855   0.881   4.374   4.262  1.0400  0.3655 -0.3624
 9814TIP3   OH250856   0.810   5.849  12.480  0.2845  0.0817  0.1813
 9814TIP3    H150857   0.824   5.876  12.390 -0.9796 -0.4177 -0.1914
 9814TIP3    H250858   0.896   5.819  12.510  0.2433 -2.2276 -1.7271
 9815TIP3   OH250859   0.037   1.002  12.003  0.0205 -0.2627  0.2329
 9815TIP3    H150860   0.125   0.970  12.019  0.1202 -0.8922 -1.3652
 9815TIP3    H250861  -0.020   0.929  12.029 -0.0046 -0.0653  0.7402
 9816TIP3   OH250862   4.722   5.482  16.560  0.4947 -0.1007  0.5076
 9816TIP3    H150863   4.722   5.572  16.527  1.1091  0.9823  3.2338
 9816TIP3    H250864   4.746   5.490  16.652  0.0856 -3.0407  0.9599
 9817TIP3   OH250865   2.483   4.948  13.833 -0.3352  0.9317  0.2108
 9817TIP3    H150866   2.480   4.863  13.788 -2.7169  1.2978 -0.4283
 9817TIP3    H250867   2.538   4.932  13.910 -0.6647 -1.1733  0.0682
 9818TIP3   OH250868   2.140   5.749   5.877 -0.1118  0.0371 -0.3333
 9818TIP3    H150869   2.232   5.773   5.885  0.0172 -0.8341  0.9806
 9818TIP3    H250870   2.138   5.655   5.890 -1.0925 -0.1029 -1.3298
 9819TIP3   OH250871   0.972   5.402   5.065 -0.1715 -0.4972 -0.1499
 9819TIP3    H150872   1.045   5.449   5.024 -0.5426 -1.3445 -1.9256
 9819TIP3    H250873   0.951   5.452   5.143  2.7501 -0.5779  0.8093
 9820TIP3   OH250874   0.727   6.695  10.799 -0.0477  0.6305  0.3735
 9820TIP3    H150875   0.787   6.769  10.812  0.2491  0.4836 -0.1309
 9820TIP3    H250876   0.671   6.696  10.876  0.0661  1.2782  0.4550
 9821TIP3   OH250877   3.832   1.684  12.379 -0.0785 -0.1561 -0.5991
 9821TIP3    H150878   3.763   1.711  12.318 -1.0275 -0.5582  0.2683
 9821TIP3    H250879   3.813   1.592  12.398  1.4979 -0.6772 -1.3706
 9822TIP3   OH250880   5.635   1.669   1.912  0.0472 -0.1780 -0.2756
 9822TIP3    H150881   5.557   1.723   1.920  1.0547  1.3055 -0.1882
 9822TIP3    H250882   5.662   1.679   1.821 -0.4930 -1.6347 -0.6317
 9823TIP3   OH250883   1.101   0.335  15.616  0.2337 -0.1645  0.4789
 9823TIP3    H150884   1.168   0.265  15.619  0.2170 -0.2569 -0.6341
 9823TIP3    H250885   1.112   0.382  15.698  0.4390 -1.3036  1.1360
 9824TIP3   OH250886   4.257   4.048  13.104 -0.0448  0.3978  0.4269
 9824TIP3    H150887   4.342   4.024  13.069  0.1294  1.3456  0.1651
 9824TIP3    H250888   4.249   4.142  13.086 -1.4751  0.1674 -0.2627
 9825TIP3   OH250889   1.872   4.674  15.171  0.2016  0.3320 -0.1780
 9825TIP3    H150890   1.797   4.618  15.148 -0.0577  0.7167 -0.2728
 9825TIP3    H250891   1.895   4.648  15.260  1.9757 -2.0445 -1.1873
 9826TIP3   OH250892   1.335   6.017  13.707 -0.4563  0.3437  0.2200
 9826TIP3    H150893   1.249   6.048  13.678 -0.1159 -0.4699 -1.8657
 9826TIP3    H250894   1.391   6.094  13.704 -0.3477  0.2398 -1.8263
 9827TIP3   OH250895   6.316   0.358   5.117 -0.4271 -0.0304  0.5806
 9827TIP3    H150896   6.236   0.310   5.095  0.0180 -0.2290 -0.6740
 9827TIP3    H250897   6.333   0.335   5.208 -0.0399 -2.5510 -0.0580
 9828TIP3   OH250898   6.378   5.760  11.584  0.2425 -0.6261  0.4152
 9828TIP3    H150899   6.393   5.710  11.665 -1.4304 -0.1986  1.0453
 9828TIP3    H250900   6.465   5.789  11.557  0.8103 -0.3761  2.3403
 9829TIP3   OH250901   3.735   2.578  16.301  0.4838 -0.0727 -0.4204
 9829TIP3    H150902   3.649   2.600  16.265  0.6204  1.5000  0.1524
 9829TIP3    H250903   3.797   2.632  16.252  0.8075  1.1116  1.1913
 9830TIP3   OH250904   2.240   3.192   0.542  0.3924  0.5532  0.4624
 9830TIP3    H150905   2.312   3.167   0.601  0.3571  0.6602  0.5524
 9830TIP3    H250906   2.174   3.228   0.601 -1.1363 -2.4865  0.8227
 9831TIP3   OH250907   1.582   1.322   2.933  0.3548  0.2646  0.4892
 9831TIP3    H150908   1.515   1.256   2.919 -1.5426  2.3571 -0.8976
 9831TIP3    H250909   1.659   1.288   2.888 -0.8620 -0.6014 -1.0497
 9832TIP3   OH250910   5.130   2.407  13.099  0.7134 -0.4703  0.0424
 9832TIP3    H150911   5.120   2.495  13.135 -0.3323 -0.6960  0.3134
 9832TIP3    H250912   5.139   2.422  13.004 -0.1222 -0.1173  0.0158
 9833TIP3   OH250913   5.596   0.276   4.738  0.0099  0.2449 -0.4573
 9833TIP3    H150914   5.638   0.193   4.718 -0.1067 -0.0903  0.5911
 9833TIP3    H250915   5.655   0.343   4.702  0.7197 -0.2607 -0.2471
 9834TIP3   OH250916   4.569   3.029  12.582  0.2151 -0.0389 -0.1119
 9834TIP3    H150917   4.655   3.067  12.563 -0.6077  1.7410 -0.4571
 9834TIP3    H250918   4.565   2.951  12.527  1.2584  0.3373 -0.7695
 9835TIP3   OH250919   1.290   5.688   4.408  0.6087 -0.0533 -0.5773
 9835TIP3    H150920   1.380   5.658   4.421  0.0408 -1.8166 -0.5629
 9835TIP3    H250921   1.300   5.779   4.380  2.3185  0.2740  0.9187
 9836TIP3   OH250922   6.706   2.379   5.630  0.7642  0.1900 -0.3653
 9836TIP3    H150923   6.676   2.320   5.698  0.5330 -0.8723 -1.3531
 9836TIP3    H250924   6.627   2.428   5.605  0.7042  0.1183 -0.3191
 9837TIP3   OH250925   4.645   5.070   4.900  0.6388 -0.0877  0.2188
 9837TIP3    H150926   4.605   5.108   4.979  0.8662 -0.3563  0.4660
 9837TIP3    H250927   4.648   4.976   4.918  0.8526 -0.1300 -0.0399
 9838TIP3   OH250928   3.455   2.979  16.258 -0.4833  0.0081  0.3074
 9838TIP3    H150929   3.458   2.940  16.171  0.8643  0.4567  0.1154
 9838TIP3    H250930   3.373   2.948  16.297 -1.3365  0.2021 -1.2932
 9839TIP3   OH250931   0.136   3.674  15.108  0.1789 -0.6715 -0.2689
 9839TIP3    H150932   0.044   3.649  15.104 -0.0120  0.0370 -0.5508
 9839TIP3    H250933   0.172   3.648  15.023 -0.1616  0.5074 -0.7935
 9840TIP3   OH250934   2.983   4.636  15.813  0.6700  0.4200  0.4666
 9840TIP3    H150935   2.911   4.668  15.868 -0.4296 -0.9956 -0.0776
 9840TIP3    H250936   3.059   4.685  15.843 -0.5888  2.3277  0.7406
 9841TIP3   OH250937   0.565   1.432  14.381 -0.4387  0.5639 -0.5226
 9841TIP3    H150938   0.648   1.463  14.419 -0.6277 -0.6997  1.0173
 9841TIP3    H250939   0.588   1.403  14.293  1.0618 -0.9697  0.3187
 9842TIP3   OH250940   1.454   0.855   6.045  0.2619  0.6349 -0.0619
 9842TIP3    H150941   1.493   0.768   6.055 -0.9049  0.1905  0.8051
 9842TIP3    H250942   1.371   0.839   6.000  0.1470  1.3325 -0.1086
 9843TIP3   OH250943   3.246   5.694  13.872  0.3021  0.3695  0.0750
 9843TIP3    H150944   3.180   5.709  13.939 -0.2133  0.0694 -0.3591
 9843TIP3    H250945   3.329   5.709  13.917 -0.0575  0.8524  0.6009
 9844TIP3   OH250946   5.264   4.048   1.418  0.3197 -0.1085  0.0505
 9844TIP3    H150947   5.342   4.034   1.471 -0.1949 -0.1831  0.7896
 9844TIP3    H250948   5.282   4.001   1.336  0.3595 -1.5430  0.8656
 9845TIP3   OH250949   0.454   5.900   5.369 -0.1958  0.1380  0.3676
 9845TIP3    H150950   0.369   5.869   5.401  0.3561  0.6376  2.4798
 9845TIP3    H250951   0.441   5.993   5.353 -0.1280  0.1447  0.3522
 9846TIP3   OH250952   6.445   1.043   1.310  0.1707 -0.0698  0.2134
 9846TIP3    H150953   6.420   1.012   1.223  0.8680 -1.1643  0.3784
 9846TIP3    H250954   6.396   1.124   1.322 -0.5939 -0.3552 -0.8457
 9847TIP3   OH250955   1.179   6.117  11.476 -0.3347 -0.2645 -0.5821
 9847TIP3    H150956   1.226   6.053  11.529 -1.1045  0.1869  0.6959
 9847TIP3    H250957   1.245   6.153  11.416  0.9167  0.2305  1.0315
 9848TIP3   OH250958   1.035   1.599   2.308 -0.1717  0.0520  0.3397
 9848TIP3    H150959   1.129   1.588   2.291 -0.3832 -1.5208  0.0438
 9848TIP3    H250960   1.030   1.606   2.403  0.2442  0.1504  0.3599
 9849TIP3   OH250961   0.002   3.620  17.323 -0.8128 -0.2593  0.0473
 9849TIP3    H150962  -0.001   3.659  17.411 -0.3191 -1.2371  0.5124
 9849TIP3    H250963  -0.031   3.689  17.266 -0.7875  0.5322  0.9533
 9850TIP3   OH250964   4.236   3.070   5.325  0.5321 -0.0540 -0.0334
 9850TIP3    H150965   4.198   3.126   5.393 -0.8889 -1.1431  0.1229
 9850TIP3    H250966   4.269   2.994   5.373  0.1101 -0.5320 -0.4872
 9851TIP3   OH250967   3.400   1.993   2.923  0.1354 -0.3273  0.0302
 9851TIP3    H150968   3.463   2.035   2.982  0.6753 -2.0611  0.7463
 9851TIP3    H250969   3.320   2.045   2.933  1.5180  2.2909 -1.3357
 9852TIP3   OH250970   1.595   5.814   2.294  0.2348 -0.6177 -0.1895
 9852TIP3    H150971   1.686   5.832   2.319 -0.3720  0.6470  1.2755
 9852TIP3    H250972   1.564   5.750   2.359 -0.0623 -0.6916 -0.4013
 9853TIP3   OH250973   6.451   4.891  11.959 -0.1075  0.1440 -0.2653
 9853TIP3    H150974   6.413   4.869  12.045 -1.7441  0.5794 -0.8393
 9853TIP3    H250975   6.544   4.904  11.977 -0.5586  1.1907  1.6443
 9854TIP3   OH250976   4.700   0.702   0.667 -0.1663  0.0686  0.5413
 9854TIP3    H150977   4.791   0.729   0.655 -0.0759 -1.1525 -2.3643
 9854TIP3    H250978   4.705   0.616   0.707 -0.0373 -0.0472  0.2773
 9855TIP3   OH250979   1.489   0.308  15.438  0.4532  0.4745 -0.6005
 9855TIP3    H150980   1.425   0.241  15.414 -0.5973  1.5305 -0.7964
 9855TIP3    H250981   1.458   0.388  15.395  1.4962  1.1752 -0.0849
 9856TIP3   OH250982   0.869   0.913  10.510  0.3071  0.2033  0.2298
 9856TIP3    H150983   0.847   0.906  10.603  2.5483  1.5916  0.9436
 9856TIP3    H250984   0.815   0.986  10.478  1.2169  1.2698  1.0614
 9857TIP3   OH250985   6.251   4.889  16.872  0.0871  0.0192 -0.1872
 9857TIP3    H150986   6.306   4.841  16.811 -0.7494 -0.9556 -0.2002
 9857TIP3    H250987   6.270   4.849  16.957  2.4122  2.3903  0.5232
 9858TIP3   OH250988   6.162   6.116   5.588  0.2001  0.6162  0.7657
 9858TIP3    H150989   6.072   6.145   5.576  0.4100  0.6811 -0.9402
 9858TIP3    H250990   6.187   6.079   5.503  1.5299 -0.1146  1.4386
 9859TIP3   OH250991   5.233   5.145  14.602  0.5026  0.3615 -0.1501
 9859TIP3    H150992   5.168   5.163  14.670  0.0181 -0.3619 -0.4001
 9859TIP3    H250993   5.307   5.107  14.650  1.4354  2.6420  0.3430
 9860TIP3   OH250994   6.364   6.589   0.532 -0.3151  0.1885  0.0459
 9860TIP3    H150995   6.383   6.679   0.559 -0.8069  0.2050  0.3437
 9860TIP3    H250996   6.416   6.576   0.452  1.8436 -0.1205  1.4025
 9861TIP3   OH250997   3.605   5.042  12.571  0.3340 -0.3320  0.6916
 9861TIP3    H150998   3.527   4.995  12.601  0.5460 -0.5746  0.8704
 9861TIP3    H250999   3.601   5.126  12.616  0.8698 -0.8505  1.7598
 9862TIP3   OH251000   3.938   2.116   5.673  0.4658 -0.3507 -0.5073
 9862TIP3    H151001   3.995   2.151   5.742 -2.3201  0.5756  1.4722
 9862TIP3    H251002   3.906   2.033   5.707 -0.8605  0.0699 -0.6566
 9863TIP3   OH251003   3.096   2.965   1.636  0.0062 -0.1270 -0.1866
 9863TIP3    H151004   3.150   2.965   1.715 -1.9183 -0.4405  1.2003
 9863TIP3    H251005   3.063   2.876   1.630  0.0588 -0.0885 -1.3443
 9864TIP3   OH251006   6.060   6.335   5.326 -0.2822  0.4099 -0.0749
 9864TIP3    H151007   6.024   6.254   5.289 -2.1344  2.3876 -3.1008
 9864TIP3    H251008   6.154   6.330   5.307 -0.4270 -0.8781 -0.5650
 9865TIP3   OH251009   3.859   5.605  17.019 -0.2175 -0.4888  0.2857
 9865TIP3    H151010   3.776   5.622  16.975 -0.2996  1.5487  1.1010
 9865TIP3    H251011   3.883   5.516  16.993 -0.8413  0.1559 -2.8806
 9866TIP3   OH251012   3.854   1.429   0.947  0.0050  0.4343  0.1203
 9866TIP3    H151013   3.828   1.417   1.039 -0.0467  0.8257  0.1554
 9866TIP3    H251014   3.789   1.379   0.897  0.6404 -0.6715  0.3502
 9867TIP3   OH251015   3.191   5.380  10.920  0.5545 -0.2949  0.0076
 9867TIP3    H151016   3.236   5.404  10.839 -1.5088 -0.1231 -1.1410
 9867TIP3    H251017   3.233   5.436  10.987  2.1151 -0.2556 -0.9423
 9868TIP3   OH251018   6.306   4.646  15.111 -0.5849  0.1136 -0.2124
 9868TIP3    H151019   6.282   4.735  15.135  1.6838  0.8125 -0.3407
 9868TIP3    H251020   6.324   4.603  15.194  2.1553  1.0016 -0.2455
 9869TIP3   OH251021   2.962   0.526   0.183  0.6180  0.3110 -0.0638
 9869TIP3    H151022   2.915   0.462   0.130 -0.8497 -0.2354  1.7916
 9869TIP3    H251023   3.050   0.489   0.193 -0.0340 -1.1663  0.5018
 9870TIP3   OH251024   6.238   4.046  15.853  0.3888 -0.9340 -0.3205
 9870TIP3    H151025   6.240   3.979  15.785 -0.2119  1.6134 -3.0583
 9870TIP3    H251026   6.327   4.083  15.853  1.0799 -2.3827  2.0187
 9871TIP3   OH251027   0.834   1.574   1.306 -0.2679 -0.1192 -0.5862
 9871TIP3    H151028   0.763   1.510   1.310 -0.2920 -0.0495  0.4584
 9871TIP3    H251029   0.808   1.642   1.368  1.2421 -0.6503  0.7042
 9872TIP3   OH251030   3.029   5.932  13.843  0.8961  0.1386 -0.1978
 9872TIP3    H151031   3.037   5.969  13.755  3.2552 -0.8386 -0.4763
 9872TIP3    H251032   3.116   5.942  13.881  0.6015 -1.6851  1.0967
 9873TIP3   OH251033   5.800   4.478  16.566 -0.1072  0.4199  0.8362
 9873TIP3    H151034   5.847   4.404  16.603 -0.7329 -0.2020  0.4157
 9873TIP3    H251035   5.772   4.449  16.479  0.6198  1.5591  0.1875
 9874TIP3   OH251036   3.478   1.032  12.073 -0.8848  0.2312  0.1451
 9874TIP3    H151037   3.508   0.952  12.115 -0.2465  0.0199 -0.6887
 9874TIP3    H251038   3.389   1.012  12.044 -0.9261  0.0150  0.4100
 9875TIP3   OH251039   1.542   4.368   5.593  0.8472 -0.4917 -0.3297
 9875TIP3    H151040   1.559   4.450   5.639  1.3518  0.0480 -1.4322
 9875TIP3    H251041   1.588   4.301   5.644  2.8926  0.3387 -0.9804
 9876TIP3   OH251042   2.148   3.675  11.348  0.0285  0.5839 -0.1339
 9876TIP3    H151043   2.067   3.660  11.397 -0.0588  0.6393 -0.2610
 9876TIP3    H251044   2.162   3.769  11.354  1.6520  0.2741  2.3786
 9877TIP3   OH251045   0.980   6.534   4.928  0.2938 -0.3195  0.5495
 9877TIP3    H151046   0.995   6.457   4.983  0.0255 -0.7192  0.0792
 9877TIP3    H251047   1.047   6.596   4.955  0.8772 -0.9318  0.5634
 9878TIP3   OH251048   3.353   4.952   5.409 -0.0382 -0.0676 -0.1954
 9878TIP3    H151049   3.333   5.044   5.429  1.3775  0.0851  0.6676
 9878TIP3    H251050   3.281   4.923   5.353 -0.8825  1.3584  0.1097
 9879TIP3   OH251051   2.210   6.309   0.557 -0.2252 -0.4696 -0.2010
 9879TIP3    H151052   2.193   6.234   0.614 -0.6588 -0.5447 -0.4198
 9879TIP3    H251053   2.141   6.372   0.579 -1.2770 -1.0669 -1.5988
 9880TIP3   OH251054   5.265   4.399  12.375 -0.3720 -0.3710  0.4620
 9880TIP3    H151055   5.178   4.361  12.368 -0.3279 -0.6293  1.2564
 9880TIP3    H251056   5.259   4.481  12.326 -1.3872  0.1542  1.4214
 9881TIP3   OH251057   5.234   4.465  15.754 -0.7444 -0.2891  0.2886
 9881TIP3    H151058   5.276   4.495  15.835 -0.1013 -1.5328  0.4465
 9881TIP3    H251059   5.149   4.509  15.753 -0.0245  1.1715  0.6906
 9882TIP3   OH251060   0.957   0.533  16.283  0.4313  0.1261  0.1610
 9882TIP3    H151061   0.979   0.455  16.232  3.5649  0.9879 -0.0735
 9882TIP3    H251062   0.973   0.509  16.374  1.4872  0.4526  0.0811
 9883TIP3   OH251063   3.240   2.767  13.214  0.7733  0.1657 -0.1017
 9883TIP3    H151064   3.225   2.731  13.301  0.1757 -1.7402 -0.9414
 9883TIP3    H251065   3.153   2.789  13.181  0.8344 -0.4773 -0.7372
 9884TIP3   OH251066   3.916   4.037  13.495  0.3370  0.1255  0.0787
 9884TIP3    H151067   3.936   4.053  13.587  1.8927  1.7941 -0.4762
 9884TIP3    H251068   3.895   3.944  13.490  1.2682 -0.2293  1.9416
 9885TIP3   OH251069   0.219   0.897   3.510 -0.0953 -0.3019  0.1705
 9885TIP3    H151070   0.186   0.843   3.439  0.1336 -0.2609  0.0314
 9885TIP3    H251071   0.150   0.896   3.576 -0.4612 -0.0486 -0.2020
 9886TIP3   OH251072   6.164   3.813  12.718  0.1202 -0.2747 -0.0746
 9886TIP3    H151073   6.097   3.817  12.786  1.5120 -1.1561  1.4200
 9886TIP3    H251074   6.226   3.882  12.741 -0.1237  0.3781 -1.3035
 9887TIP3   OH251075   1.544   3.002   0.384  0.4541  0.2785 -0.7081
 9887TIP3    H151076   1.484   3.025   0.313 -0.7137  1.5303  0.6192
 9887TIP3    H251077   1.487   2.981   0.458  1.6165  1.8001  0.7026
 9888TIP3   OH251078   3.092   3.089  11.638  0.1535 -0.2961 -0.2377
 9888TIP3    H151079   3.018   3.070  11.696  0.2931 -0.3567 -0.0794
 9888TIP3    H251080   3.144   3.009  11.639  0.8709  0.1558  0.6174
 9889TIP3   OH251081   5.722   4.215  14.669 -0.1306 -0.2936  0.1045
 9889TIP3    H151082   5.713   4.311  14.664 -0.3558 -0.3639 -1.1854
 9889TIP3    H251083   5.659   4.188  14.736 -1.3161  0.3048 -0.7390
 9890TIP3   OH251084   1.707   2.143   0.621 -0.2609  0.2720 -0.2622
 9890TIP3    H151085   1.709   2.224   0.671 -2.3502 -0.3366  0.8883
 9890TIP3    H251086   1.772   2.087   0.663  0.2598  0.8688 -0.2565
 9891TIP3   OH251087   6.245   6.518   0.218  0.2668  0.1298  0.2717
 9891TIP3    H151088   6.306   6.445   0.230 -0.3902 -0.9982 -2.5711
 9891TIP3    H251089   6.277   6.564   0.141 -1.0623  1.0140  0.2229
 9892TIP3   OH251090   5.203   0.996   1.130 -0.1566 -0.3972 -0.2995
 9892TIP3    H151091   5.178   1.018   1.219  1.2442  0.3093 -0.0582
 9892TIP3    H251092   5.260   0.920   1.139 -0.5130 -0.7161 -0.6605
 9893TIP3   OH251093   1.246   3.460  15.536  0.0891  0.3038 -0.2716
 9893TIP3    H151094   1.171   3.412  15.571  1.1244 -1.0472  0.1675
 9893TIP3    H251095   1.237   3.454  15.441  0.4043 -1.1355 -0.2305
 9894TIP3   OH251096   6.116   2.785  11.784 -0.0515 -0.1195  0.3791
 9894TIP3    H151097   6.210   2.775  11.801  0.4254  0.9091 -1.3530
 9894TIP3    H251098   6.098   2.878  11.800 -0.4537 -0.0191 -0.5575
 9895TIP3   OH251099   4.737   3.316  12.109  0.2461 -0.4023 -0.1062
 9895TIP3    H151100   4.641   3.323  12.106  0.1877 -1.4497 -1.7578
 9895TIP3    H251101   4.762   3.289  12.021  2.2902  2.1609 -0.4544
 9896TIP3   OH251102   6.595   4.681   5.378  0.6422  0.0814  0.0818
 9896TIP3    H151103   6.577   4.634   5.296  0.8757 -0.0402  0.0983
 9896TIP3    H251104   6.643   4.618   5.432 -2.0427 -0.8717  1.5069
 9897TIP3   OH251105   0.731   2.939  15.418  0.5162 -0.1974 -0.1813
 9897TIP3    H151106   0.706   2.944  15.325  2.5705  0.9511 -0.7237
 9897TIP3    H251107   0.669   2.876  15.455 -3.2801  2.4601 -1.3119
 9898TIP3   OH251108   4.829   3.706  12.476  0.0170 -0.5837 -0.5761
 9898TIP3    H151109   4.757   3.757  12.438 -0.8599 -0.5452  1.0625
 9898TIP3    H251110   4.804   3.615  12.463  0.2956 -0.5896 -1.1154
 9899TIP3   OH251111   2.805   1.403  13.193  0.0459  0.1751 -0.4103
 9899TIP3    H151112   2.885   1.408  13.140 -0.0046  1.1938 -0.4217
 9899TIP3    H251113   2.740   1.451  13.142 -0.0380  1.0593  0.5053
 9900TIP3   OH251114   4.783   5.539  11.269  0.2177 -0.5330 -0.2647
 9900TIP3    H151115   4.712   5.603  11.272  1.5411  0.9601  1.8517
 9900TIP3    H251116   4.854   5.584  11.224  0.9968 -0.6663  0.7935
 9901TIP3   OH251117   0.378   5.010  14.581  0.1016  0.3293  0.3067
 9901TIP3    H151118   0.349   5.007  14.672 -0.1577 -0.7296  0.2055
 9901TIP3    H251119   0.473   5.025  14.587  0.0056  0.7963  0.7274
 9902TIP3   OH251120   3.954   0.554  17.348 -1.1315  0.1052 -0.2151
 9902TIP3    H151121   3.897   0.631  17.357 -0.0594  0.9514 -0.4349
 9902TIP3    H251122   4.041   0.586  17.372 -0.3347 -0.5843 -2.0330
 9903TIP3   OH251123   5.382   0.345   2.887  0.8618  0.0109 -0.4834
 9903TIP3    H151124   5.405   0.257   2.915  0.6743  0.4345  1.0446
 9903TIP3    H251125   5.294   0.337   2.850 -0.3085 -0.0080  2.1334
 9904TIP3   OH251126   4.979   6.004   1.210 -0.1609  0.2507  0.3528
 9904TIP3    H151127   4.928   5.926   1.187  1.6552 -0.9736  0.2659
 9904TIP3    H251128   4.960   6.018   1.303 -0.8459 -0.0110  0.2631
 9905TIP3   OH251129   1.429   3.228  15.694 -0.1984 -0.5372  0.0345
 9905TIP3    H151130   1.351   3.207  15.745 -2.4175  3.3055 -1.3254
 9905TIP3    H251131   1.477   3.291  15.747 -1.2864  1.6605 -1.4238
 9906TIP3   OH251132   1.395   0.811  13.815 -0.0427  0.1934  0.0346
 9906TIP3    H151133   1.436   0.861  13.886 -1.7090  0.5259  0.7936
 9906TIP3    H251134   1.346   0.742  13.859 -1.8194  0.9154 -0.7010
 9907TIP3   OH251135   0.935   5.793  13.446  0.1850  0.2437 -0.2855
 9907TIP3    H151136   1.011   5.828  13.400  1.6004  0.1537  1.8695
 9907TIP3    H251137   0.949   5.698  13.446  0.0192  0.2194  0.0513
 9908TIP3   OH251138   3.253   1.454  11.834  0.3208  0.1631 -0.4547
 9908TIP3    H151139   3.267   1.524  11.898  1.5831  1.0795 -1.6571
 9908TIP3    H251140   3.214   1.499  11.759  1.1671 -0.3914 -1.2519
 9909TIP3   OH251141   4.184   5.071  11.576 -0.6029 -0.4871  0.3484
 9909TIP3    H151142   4.208   5.157  11.611 -0.3567 -1.1697  1.9314
 9909TIP3    H251143   4.247   5.010  11.615 -1.4414 -1.5354  0.1171
 9910TIP3   OH251144   0.905   1.848  15.898 -0.8702  0.1449 -0.4913
 9910TIP3    H151145   0.880   1.936  15.872  1.0894  0.5539 -1.1228
 9910TIP3    H251146   0.974   1.860  15.963  0.6018 -0.8819 -1.7928
 9911TIP3   OH251147   2.089   0.730  14.867  0.0719 -0.5732 -0.0912
 9911TIP3    H151148   2.138   0.773  14.796 -1.7412 -0.1946 -1.1935
 9911TIP3    H251149   1.997   0.754  14.849 -0.5594 -1.6016  1.6257
 9912TIP3   OH251150   4.597   5.307   1.954 -0.4864 -0.5626  0.3270
 9912TIP3    H151151   4.587   5.302   2.049 -0.1328  1.6293  0.5380
 9912TIP3    H251152   4.572   5.397   1.932 -1.8120 -1.3777 -1.8363
 9913TIP3   OH251153   3.542   1.761   5.800  0.6191  0.3285 -0.0952
 9913TIP3    H151154   3.611   1.812   5.843  1.8268  0.0293 -1.5582
 9913TIP3    H251155   3.492   1.825   5.751  0.3739  0.4399  0.2932
 9914TIP3   OH251156   5.196   6.310   5.258  0.3982  0.2697 -0.3919
 9914TIP3    H151157   5.109   6.270   5.255  1.6009 -2.8009  1.2116
 9914TIP3    H251158   5.187   6.381   5.321 -1.5881  2.1623 -2.5795
 9915TIP3   OH251159   5.070   5.609  11.465  0.2593  0.1545 -0.1146
 9915TIP3    H151160   5.070   5.626  11.370 -1.6743  2.2624  0.1677
 9915TIP3    H251161   5.163   5.603  11.488  0.7651 -0.9893 -2.2040
 9916TIP3   OH251162   0.365   3.538  13.593 -0.7758 -0.2363 -0.5332
 9916TIP3    H151163   0.398   3.608  13.536 -0.6238  0.1676  0.0380
 9916TIP3    H251164   0.293   3.499  13.544  0.7687 -1.4083 -1.9946
 9917TIP3   OH251165   5.384   3.970   4.900  0.5585 -0.2530  0.3100
 9917TIP3    H151166   5.390   3.992   4.993 -0.1984 -0.3868  0.3960
 9917TIP3    H251167   5.301   4.009   4.872  0.2814 -1.0954 -0.0597
 9918TIP3   OH251168   6.031   6.356  16.041  0.8252  0.4562 -0.8709
 9918TIP3    H151169   6.038   6.314  16.127 -0.5392  0.2202 -0.8498
 9918TIP3    H251170   6.065   6.445  16.055  0.9863  0.2939 -0.1894
 9919TIP3   OH251171   0.951   1.206   5.326  0.4453  0.6745  0.0342
 9919TIP3    H151172   0.995   1.223   5.410 -3.8523 -0.1534  2.7645
 9919TIP3    H251173   0.953   1.111   5.318 -0.1753  0.6818 -0.2007
 9920TIP3   OH251174   5.436   1.605   1.543  0.3349 -0.7145  0.2220
 9920TIP3    H151175   5.352   1.652   1.536  1.0598  0.8205  1.2699
 9920TIP3    H251176   5.415   1.525   1.591 -0.4314 -0.0422  1.0381
 9921TIP3   OH251177   1.421   1.857   3.235  0.0733 -0.0346 -0.1510
 9921TIP3    H151178   1.509   1.865   3.271 -0.2065  1.0587  0.3347
 9921TIP3    H251179   1.380   1.942   3.252  0.0266  0.6881 -3.3342
 9922TIP3   OH251180   2.246   4.108   0.835  0.4880  0.4339 -0.1557
 9922TIP3    H151181   2.230   4.016   0.855  0.2809  0.5381  0.1672
 9922TIP3    H251182   2.221   4.117   0.742  2.0555 -0.1919 -0.6639
 9923TIP3   OH251183   0.881   2.898  15.154  0.4393 -0.4331  0.2281
 9923TIP3    H151184   0.965   2.944  15.144 -0.0660  0.6049  0.5792
 9923TIP3    H251185   0.903   2.806  15.145  1.6003 -0.1693  0.1765
 9924TIP3   OH251186   5.780   6.719  15.863  0.4137  0.6491  0.1397
 9924TIP3    H151187   5.698   6.743  15.907 -0.7080 -0.4723 -1.2375
 9924TIP3    H251188   5.809   6.800  15.820 -0.3351  0.8964  0.0893
 9925TIP3   OH251189   1.522   0.247  14.637 -0.0204  0.0726 -0.6051
 9925TIP3    H151190   1.558   0.325  14.679 -0.9964  0.0087  0.3941
 9925TIP3    H251191   1.593   0.214  14.582  0.5870  1.3418 -0.6106
 9926TIP3   OH251192   6.289   4.455  12.845  0.6372  0.1608  0.5835
 9926TIP3    H151193   6.315   4.544  12.870  1.1199  0.4073 -0.6945
 9926TIP3    H251194   6.250   4.466  12.758  0.6941 -0.8833  0.4192
 9927TIP3   OH251195   3.967   4.918   2.933 -0.0129  0.4117  0.3740
 9927TIP3    H151196   3.991   4.908   3.025  0.2825 -1.0876  0.1587
 9927TIP3    H251197   3.934   4.832   2.907  0.0548  0.7674 -0.9733
 9928TIP3   OH251198   4.330   4.678  12.879  0.0477  0.1378  0.4554
 9928TIP3    H151199   4.340   4.746  12.813 -0.1806 -1.0077 -0.7913
 9928TIP3    H251200   4.418   4.667  12.915 -0.2007  2.2733  1.9567
 9929TIP3   OH251201   3.110   4.857   1.859  1.0104  0.0506 -0.0117
 9929TIP3    H151202   3.100   4.774   1.906  0.6454  0.6231  0.9387
 9929TIP3    H251203   3.191   4.895   1.893 -0.0489  1.1942  1.3311
 9930TIP3   OH251204   4.085   5.605   1.040  0.2210  0.1259  0.4073
 9930TIP3    H151205   4.054   5.527   1.086  0.1156  1.3797  2.5792
 9930TIP3    H251206   4.173   5.581   1.010 -0.6945 -1.6111 -1.1317
 9931TIP3   OH251207   0.594   4.246  16.335 -0.3700 -0.5291  0.0898
 9931TIP3    H151208   0.671   4.262  16.280  1.0655 -2.2291  1.4723
 9931TIP3    H251209   0.526   4.303  16.299  2.2056  3.0423  0.3724
 9932TIP3   OH251210   4.302   4.548   1.518  0.7198  0.5026  0.0263
 9932TIP3    H151211   4.272   4.476   1.575  2.3330  0.2277  0.5785
 9932TIP3    H251212   4.397   4.552   1.532  0.7703  2.2687 -0.5652
 9933TIP3   OH251213   3.202   1.539  10.640  0.1486  0.5854  0.4340
 9933TIP3    H151214   3.255   1.460  10.629 -1.8500 -0.4867 -4.9283
 9933TIP3    H251215   3.260   1.611  10.616  0.5992 -0.0014 -0.2898
 9934TIP3   OH251216   3.242   5.038  14.431 -0.5508  0.2972  0.2336
 9934TIP3    H151217   3.308   5.099  14.399 -0.5896  1.0614  1.5291
 9934TIP3    H251218   3.159   5.084  14.420 -0.5521  0.6425  1.5184
 9935TIP3   OH251219   6.110   3.806  16.579  0.1155 -0.0717  0.0157
 9935TIP3    H151220   6.131   3.782  16.489  1.0903 -1.6857  0.6088
 9935TIP3    H251221   6.165   3.882  16.597  0.3012 -0.0514 -0.5999
 9936TIP3   OH251222   3.292   1.225   2.808 -0.1368  0.0465  0.2330
 9936TIP3    H151223   3.230   1.292   2.836 -1.0157 -1.2469  1.5067
 9936TIP3    H251224   3.350   1.213   2.884  0.9277  0.3642 -0.5021
 9937TIP3   OH251225   0.971   2.532   1.066 -0.2314  0.2586  0.2788
 9937TIP3    H151226   0.976   2.627   1.074  0.7713  0.1757  0.7126
 9937TIP3    H251227   1.010   2.498   1.147 -0.5855 -0.5261  0.1391
 9938TIP3   OH251228   3.655   2.542   1.890  0.0449 -0.1367  0.1349
 9938TIP3    H151229   3.650   2.636   1.905  0.3045 -0.0815 -0.1174
 9938TIP3    H251230   3.719   2.511   1.953 -0.3219 -0.2046  0.4790
 9939TIP3   OH251231   1.500   3.819  15.261 -0.1572  0.2829 -0.0311
 9939TIP3    H151232   1.419   3.843  15.306  0.6686 -0.0813  1.7265
 9939TIP3    H251233   1.482   3.837  15.168 -2.1078  0.5419  0.3540
 9940TIP3   OH251234   6.352   6.632   1.637 -0.0528  0.2999  0.0727
 9940TIP3    H151235   6.376   6.572   1.567  0.4820  0.7777 -0.1589
 9940TIP3    H251236   6.344   6.576   1.715  2.9922  0.2187  0.4433
 9941TIP3   OH251237   1.160   6.713   5.039 -0.2328  0.2433  0.2691
 9941TIP3    H151238   1.242   6.708   4.990 -0.1755  2.8228  0.0031
 9941TIP3    H251239   1.186   6.742   5.127 -0.8038  0.5257  0.3503
 9942TIP3   OH251240   0.090   4.885   6.020 -0.4294  0.2253  0.8268
 9942TIP3    H151241  -0.006   4.890   6.023 -0.5778 -1.9131  1.2237
 9942TIP3    H251242   0.118   4.891   6.111 -0.2975 -0.5023  0.8394
 9943TIP3   OH251243   2.272   6.121  15.647  0.2568 -0.1067 -0.6896
 9943TIP3    H151244   2.293   6.141  15.556  0.8929  1.0368 -0.3115
 9943TIP3    H251245   2.217   6.194  15.676 -0.8856 -1.0188 -0.4640
 9944TIP3   OH251246   1.870   0.307   1.729 -0.7712 -0.5277 -0.8276
 9944TIP3    H151247   1.813   0.254   1.673 -1.2223  0.0759 -0.9577
 9944TIP3    H251248   1.870   0.263   1.814 -0.0137 -1.5056 -1.3062
 9945TIP3   OH251249   6.223   4.146   4.166 -0.1130 -0.3891 -0.2896
 9945TIP3    H151250   6.291   4.178   4.225  0.0299 -0.4067 -0.4449
 9945TIP3    H251251   6.266   4.077   4.115 -0.3043 -0.5453 -0.2418
 9946TIP3   OH251252   2.065   1.741  12.863 -0.2988 -0.3469  0.5984
 9946TIP3    H151253   2.152   1.768  12.835 -0.9873  0.5881 -0.7746
 9946TIP3    H251254   2.026   1.820  12.902 -0.2853 -0.9556  1.8963
 9947TIP3   OH251255   4.514   2.761  11.573 -0.0575 -0.6438  0.1691
 9947TIP3    H151256   4.548   2.689  11.626  0.6781 -1.5774 -1.4713
 9947TIP3    H251257   4.420   2.762  11.591  0.1738 -0.9215  1.4645
 9948TIP3   OH251258   1.005   3.246  15.073 -0.0918  0.1856 -0.2423
 9948TIP3    H151259   0.963   3.327  15.045  0.4718 -0.2538 -2.5607
 9948TIP3    H251260   1.006   3.191  14.995  2.2720 -0.8686  0.4370
 9949TIP3   OH251261   5.509   3.709   2.401 -0.1501 -0.4226 -0.1388
 9949TIP3    H151262   5.478   3.628   2.443  1.2704 -1.0417 -0.2484
 9949TIP3    H251263   5.571   3.679   2.335 -2.1076  0.5332 -2.5735
 9950TIP3   OH251264   5.071   0.009  11.116  0.2627  0.1115 -0.5370
 9950TIP3    H151265   5.106   0.063  11.045  1.8720  0.5185  0.5141
 9950TIP3    H251266   5.119  -0.073  11.110  1.7532  0.8050  1.1399
 9951TIP3   OH251267   1.433   1.457  14.212  0.0327 -0.6615  0.1996
 9951TIP3    H151268   1.517   1.483  14.249 -0.4847 -0.2034  1.0644
 9951TIP3    H251269   1.449   1.368  14.179  1.0261 -0.3373 -0.2456
 9952TIP3   OH251270   3.039   3.864   6.241 -0.0610 -0.0511 -0.5018
 9952TIP3    H151271   3.058   3.951   6.276 -0.2735 -0.6937  1.3138
 9952TIP3    H251272   2.986   3.822   6.309  1.9560 -2.4160 -0.2694
 9953TIP3   OH251273   5.460   2.868   4.053 -0.1468  0.0628 -0.2991
 9953TIP3    H151274   5.458   2.844   4.146  1.0438  0.4802 -0.1516
 9953TIP3    H251275   5.370   2.893   4.034 -0.3722  0.1688  0.7957
 9954TIP3   OH251276   4.665   4.594   5.577 -0.4209  0.0685 -0.0149
 9954TIP3    H151277   4.587   4.541   5.592  0.1420 -0.5808  0.6735
 9954TIP3    H251278   4.657   4.624   5.486 -0.7930 -1.1197 -0.3830
 9955TIP3   OH251279   2.881   5.923  17.151 -0.1035 -0.3088  0.3168
 9955TIP3    H151280   2.966   5.924  17.106 -0.6289 -0.5265 -0.7005
 9955TIP3    H251281   2.852   6.014  17.149 -0.4713 -0.4322 -0.4825
 9956TIP3   OH251282   3.573   1.765   2.880 -0.5966 -0.4512 -0.2027
 9956TIP3    H151283   3.624   1.770   2.961 -0.0858 -0.1187 -0.5368
 9956TIP3    H251284   3.503   1.829   2.892 -0.5969 -0.4954  0.0298
 9957TIP3   OH251285   0.074   4.854  15.983 -0.4561 -0.3543 -0.2433
 9957TIP3    H151286   0.007   4.859  15.915  0.1493 -0.4778 -0.8627
 9957TIP3    H251287   0.061   4.767  16.023  0.7068 -1.3131 -1.8417
 9958TIP3   OH251288   4.732   2.701  17.221 -0.3314  0.9060 -0.7913
 9958TIP3    H151289   4.720   2.715  17.315  0.2287  2.3426 -0.9126
 9958TIP3    H251290   4.643   2.695  17.187 -0.5906  1.9840 -0.3665
 9959TIP3   OH251291   2.654   3.769  12.764  0.3568  0.1627  0.8635
 9959TIP3    H151292   2.610   3.771  12.849 -2.4293  4.0900 -0.3970
 9959TIP3    H251293   2.742   3.802  12.782  0.4573 -0.8205  2.4180
 9960TIP3   OH251294   6.080   3.657   2.335  0.1650  0.2019  0.5375
 9960TIP3    H151295   6.140   3.622   2.401 -1.5622 -1.0625  1.5415
 9960TIP3    H251296   6.095   3.602   2.258  0.3231 -0.0893  0.7730
 9961TIP3   OH251297   2.744   1.346   3.408 -0.9621  0.0221 -0.4852
 9961TIP3    H151298   2.764   1.440   3.417 -0.0195 -0.3436  2.0937
 9961TIP3    H251299   2.829   1.303   3.416 -1.4010 -1.0849 -1.5168
 9962TIP3   OH251300   1.009   1.817  17.269 -0.5697 -0.9204 -0.6561
 9962TIP3    H151301   1.072   1.846  17.202 -0.6070  0.7694 -0.0054
 9962TIP3    H251302   1.056   1.826  17.352 -1.1485 -1.1647 -0.2935
 9963TIP3   OH251303   0.759   3.575   0.753 -0.1152  0.3378 -0.3635
 9963TIP3    H151304   0.826   3.554   0.689 -1.0648  0.7796 -1.5437
 9963TIP3    H251305   0.687   3.613   0.702 -0.3109  2.1473  1.1189
 9964TIP3   OH251306   3.911   1.178   2.404 -0.5702  0.2695 -0.1733
 9964TIP3    H151307   3.898   1.088   2.377 -1.6088  0.3351  0.0686
 9964TIP3    H251308   3.838   1.226   2.365 -0.1661  0.9636 -0.0970
 9965TIP3   OH251309   5.213   1.149  11.632 -0.3676 -0.5108  0.3065
 9965TIP3    H151310   5.247   1.208  11.565 -0.4170  0.1810  0.8705
 9965TIP3    H251311   5.176   1.076  11.584 -1.7348  0.6600 -0.5132
 9966TIP3   OH251312   3.469   1.225  16.804 -0.0758 -0.0128  0.7460
 9966TIP3    H151313   3.479   1.312  16.841 -1.5602  1.0020 -1.0219
 9966TIP3    H251314   3.374   1.209  16.805 -0.0763 -0.4804 -1.2270
 9967TIP3   OH251315   4.445   4.030   6.184  0.4945  0.1785 -0.0900
 9967TIP3    H151316   4.388   3.986   6.246  0.6234 -0.4022 -0.3780
 9967TIP3    H251317   4.425   4.123   6.195 -1.7175 -0.0792 -1.3472
 9968TIP3   OH251318   5.741   6.524   2.480 -0.0225  0.0828  0.2975
 9968TIP3    H151319   5.741   6.597   2.419 -1.9925 -0.0319  0.0932
 9968TIP3    H251320   5.830   6.520   2.513  0.4505  1.7376 -0.6793
 9969TIP3   OH251321   2.786   2.172  17.173  0.0257 -0.2278 -0.4106
 9969TIP3    H151322   2.780   2.108  17.101 -1.9963 -1.4723  0.7635
 9969TIP3    H251323   2.696   2.200  17.187  0.5884  1.1569  0.6856
 9970TIP3   OH251324   0.835   3.607  11.312  0.2511 -0.6492  0.2888
 9970TIP3    H151325   0.816   3.646  11.226  1.7015 -1.1227 -0.2873
 9970TIP3    H251326   0.764   3.637  11.368 -0.7643 -0.3462 -1.0855
 9971TIP3   OH251327   5.994   1.449  14.769  0.0390  0.0335 -0.1562
 9971TIP3    H151328   6.048   1.448  14.848  1.7514 -0.6426 -1.2928
 9971TIP3    H251329   5.955   1.537  14.768  0.7862  0.3923  0.9145
 9972TIP3   OH251330   6.435   0.823  11.055  0.2510  0.0452  0.2089
 9972TIP3    H151331   6.399   0.735  11.040  2.3297 -0.8745  0.2987
 9972TIP3    H251332   6.417   0.870  10.974  2.7219 -1.8170 -1.5652
 9973TIP3   OH251333   5.134   5.054   0.309  0.3686 -0.7662  0.1467
 9973TIP3    H151334   5.182   5.113   0.368 -0.1920 -1.2917  1.1633
 9973TIP3    H251335   5.198   5.030   0.242  1.0098 -0.0973  0.4996
 9974TIP3   OH251336   0.698   2.494  17.103 -0.5217 -0.0235  0.2585
 9974TIP3    H151337   0.756   2.568  17.117 -1.3577  0.8116 -0.4870
 9974TIP3    H251338   0.756   2.420  17.087  0.3301  0.4771  0.9532
 9975TIP3   OH251339   1.966   1.466  10.654  0.0515 -0.5179  0.0045
 9975TIP3    H151340   1.984   1.556  10.681 -1.4205 -0.2028  0.0023
 9975TIP3    H251341   1.945   1.420  10.736 -2.0149 -0.1418 -0.2585
 9976TIP3   OH251342   6.489   1.870  10.871  0.0530 -0.1215 -0.5023
 9976TIP3    H151343   6.427   1.802  10.843  0.5050 -1.4733  1.5595
 9976TIP3    H251344   6.440   1.921  10.936  0.5123 -0.0308 -0.2237
 9977TIP3   OH251345   2.358   2.438  14.717 -0.1365  0.3379 -0.0878
 9977TIP3    H151346   2.288   2.489  14.757 -0.1956 -1.1984  1.9911
 9977TIP3    H251347   2.412   2.502  14.670 -1.0327  2.0526  1.1124
 9978TIP3   OH251348   1.121   3.552  14.718  0.0814 -0.2974 -0.3654
 9978TIP3    H151349   1.086   3.492  14.652 -0.9065  0.0809 -0.2152
 9978TIP3    H251350   1.216   3.543  14.711 -0.0133 -0.6600 -1.4636
 9979TIP3   OH251351   3.666   3.675  15.157 -0.3931 -0.2690 -0.2827
 9979TIP3    H151352   3.704   3.592  15.128 -1.2216 -1.3866  1.6324
 9979TIP3    H251353   3.588   3.685  15.103 -1.2714 -1.7082  0.6447
 9980TIP3   OH251354   5.887   3.928   0.121 -0.2919 -0.1995 -0.1386
 9980TIP3    H151355   5.886   3.834   0.103 -1.4576 -0.2842  0.2867
 9980TIP3    H251356   5.832   3.967   0.053  1.4270  0.3988 -1.2701
 9981TIP3   OH251357   2.082   4.579   3.525  0.2700 -0.3081 -0.1850
 9981TIP3    H151358   2.144   4.619   3.463 -0.2078  1.2053  0.2789
 9981TIP3    H251359   2.126   4.585   3.609  0.0177 -0.4108 -0.0450
 9982TIP3   OH251360   2.624   6.449  15.247 -0.1149  0.5709  0.0057
 9982TIP3    H151361   2.620   6.540  15.217  0.6285  0.0909 -1.6531
 9982TIP3    H251362   2.537   6.432  15.284 -0.4638  1.7639 -0.2282
 9983TIP3   OH251363   5.836   4.019   0.893 -0.1650  0.4845  0.2216
 9983TIP3    H151364   5.770   4.084   0.868  1.2453  1.6523 -0.6493
 9983TIP3    H251365   5.913   4.071   0.916  0.7587 -0.8628  0.2815
 9984TIP3   OH251366   5.240   3.513   2.755  0.0452 -0.1007  0.7172
 9984TIP3    H151367   5.194   3.448   2.809 -1.8187 -0.0415 -0.7088
 9984TIP3    H251368   5.316   3.465   2.720 -0.6221 -1.1576  0.6725
 9985TIP3   OH251369   2.575   1.343  11.060 -0.1397 -0.0249  0.3513
 9985TIP3    H151370   2.554   1.282  10.988 -3.6577  0.1133  1.0771
 9985TIP3    H251371   2.644   1.299  11.109 -0.5606 -2.0931 -0.7952
 9986TIP3   OH251372   3.863   6.607  15.720  0.2227  0.5734  0.3379
 9986TIP3    H151373   3.930   6.554  15.676 -0.6959  0.0512 -0.4692
 9986TIP3    H251374   3.847   6.680  15.661 -1.0429 -0.1499 -0.2719
 9987TIP3   OH251375   5.603   3.978  11.742 -0.5132 -0.2295 -0.0949
 9987TIP3    H151376   5.608   4.020  11.656  0.2945  0.5946  0.3349
 9987TIP3    H251377   5.692   3.986  11.778 -0.7675 -0.8173  0.6999
 9988TIP3   OH251378   3.191   4.277   5.464 -0.0013  0.0308  0.4070
 9988TIP3    H151379   3.249   4.210   5.500  0.3539  0.6328  0.9637
 9988TIP3    H251380   3.153   4.321   5.540  0.4282  1.0294  0.0607
 9989TIP3   OH251381   4.257   6.748   3.804 -0.2536  0.1254  0.0201
 9989TIP3    H151382   4.250   6.836   3.842  0.7510 -0.1616  0.9057
 9989TIP3    H251383   4.314   6.700   3.864 -0.0416 -0.8670 -0.9400
 9990TIP3   OH251384   0.370   4.266  15.797 -0.2071  0.9540  0.0921
 9990TIP3    H151385   0.400   4.209  15.726  1.4500 -0.9902  2.1941
 9990TIP3    H251386   0.290   4.225  15.829  0.9025 -0.2246  1.5039
 9991TIP3   OH251387   1.405   6.144  15.389 -0.5875  0.2555 -0.1110
 9991TIP3    H151388   1.383   6.062  15.433  4.1681 -1.1738  0.1510
 9991TIP3    H251389   1.430   6.203  15.459 -0.0653  0.5078 -0.5027
 9992TIP3   OH251390   4.964   5.124  15.560  0.4636  0.2352  0.1229
 9992TIP3    H151391   5.033   5.191  15.555 -1.2021  2.0115 -0.0989
 9992TIP3    H251392   5.004   5.052  15.610  2.6984  0.8852 -0.6199
 9993TIP3   OH251393   1.618   6.060   4.796  0.0914 -0.2804  0.6318
 9993TIP3    H151394   1.523   6.061   4.812 -0.1748  0.1148 -0.7899
 9993TIP3    H251395   1.627   6.013   4.713  1.2102 -0.9066  1.1042
 9994TIP3   OH251396   1.090   0.098   3.985 -0.9443  0.7633 -0.2957
 9994TIP3    H151397   1.013   0.153   3.969 -1.5411 -0.3739 -1.5028
 9994TIP3    H251398   1.162   0.160   3.994 -1.7140  1.7796 -0.9382
 9995TIP3   OH251399   0.484   4.843   6.157 -0.5510  0.5324 -0.2397
 9995TIP3    H151400   0.540   4.768   6.138 -3.1568 -1.3744 -0.8967
 9995TIP3    H251401   0.458   4.875   6.070 -1.0459  0.9298  0.0524
 9996TIP3   OH251402   3.887   1.474   0.197 -0.4522  0.3640 -0.2055
 9996TIP3    H151403   3.874   1.479   0.103 -0.7451  1.2013 -0.1343
 9996TIP3    H251404   3.925   1.388   0.212 -1.2890 -0.1570 -0.9829
 9997TIP3   OH251405   1.357   2.217  12.003  0.4808  0.0987  0.2860
 9997TIP3    H151406   1.319   2.144  11.955  1.7826 -0.7349  0.4864
 9997TIP3    H251407   1.451   2.203  12.000  0.7525  1.5996  0.6138
 9998TIP3   OH251408   4.120   4.098  10.316  0.2280  0.1346 -0.2132
 9998TIP3    H151409   4.153   4.180  10.354  1.0178 -0.4990  0.4939
 9998TIP3    H251410   4.025   4.108  10.318  0.3206  1.1407 -0.3643
 9999TIP3   OH251411   4.235   5.034  11.292 -0.5730 -0.2241 -0.3959
 9999TIP3    H151412   4.236   5.019  11.387 -1.4079 -0.7518 -0.4633
 9999TIP3    H251413   4.258   5.127  11.283 -0.1281 -0.2557  0.2987
10000TIP3   OH251414   6.644   6.123  16.064  0.1734  0.9366 -0.0112
10000TIP3    H151415   6.619   6.058  15.998 -0.0561  0.6383  0.3603
10000TIP3    H251416   6.561   6.148  16.105  0.5430 -1.1304  2.2451
10001TIP3   OH251417   4.946   4.717   4.018  0.0006  0.3167 -0.2572
10001TIP3    H151418   4.923   4.809   4.006 -1.8880 -0.0445  0.3052
10001TIP3    H251419   4.877   4.669   3.973  0.7921 -0.8485 -0.2762
10002TIP3   OH251420   6.155   2.105  16.408 -0.0169  0.1771  0.1921
10002TIP3    H151421   6.160   2.105  16.504  1.5385 -0.2323  0.1388
10002TIP3    H251422   6.167   2.197  16.384  2.0297 -0.0018  0.3415
10003TIP3   OH251423   0.151   0.417  16.069  0.1001  1.0352  0.3811
10003TIP3    H151424   0.210   0.355  16.025  0.1767  0.3439  1.4269
10003TIP3    H251425   0.191   0.433  16.154 -0.4647  1.7185  0.5298
10004TIP3   OH251426   0.963   1.219  13.362  0.6833  0.0701  0.2338
10004TIP3    H151427   0.928   1.265  13.285 -0.8113  0.9599  1.3978
10004TIP3    H251428   0.978   1.287  13.427  1.8431 -0.6824  0.7924
10005TIP3   OH251429   0.681   1.582  11.139 -0.0394  0.5583  0.1529
10005TIP3    H151430   0.668   1.669  11.177  0.0993  0.1932  1.0556
10005TIP3    H251431   0.775   1.578  11.120  0.0829  0.3415  0.7867
10006TIP3   OH251432   0.184   5.069  14.420  0.0723  0.2574 -0.0599
10006TIP3    H151433   0.130   5.016  14.479 -1.7570 -0.0434 -1.8883
10006TIP3    H251434   0.273   5.040  14.438 -0.2194  0.9564  3.2706
10007TIP3   OH251435   1.669   1.796   5.380 -0.0532  0.2754  0.0592
10007TIP3    H151436   1.740   1.858   5.366  0.5020 -0.5300 -0.8354
10007TIP3    H251437   1.608   1.813   5.308 -1.2847  1.6248  1.3703
10008TIP3   OH251438   1.416   6.002  12.072 -0.0647  0.1247  0.3821
10008TIP3    H151439   1.329   5.962  12.067  0.4947 -1.2704  1.3907
10008TIP3    H251440   1.460   5.972  11.993  0.0511 -0.5338  0.6928
10009TIP3   OH251441   0.034   3.168  15.287  0.1173  0.3980  0.5998
10009TIP3    H151442   0.092   3.243  15.279 -0.0955  0.7479  2.1151
10009TIP3    H251443  -0.054   3.205  15.283 -0.0982 -0.1967 -2.3656
10010TIP3   OH251444   0.242   3.657  16.381  0.4774  0.3917 -0.0956
10010TIP3    H151445   0.308   3.689  16.320  1.2414  0.3032  0.6587
10010TIP3    H251446   0.222   3.732  16.436  1.3099 -0.0477  0.8386
10011TIP3   OH251447   2.615   1.486   0.892  0.4064 -0.5939  0.5454
10011TIP3    H151448   2.557   1.539   0.946  1.2359  1.1439 -0.1769
10011TIP3    H251449   2.693   1.474   0.946  0.4145 -0.6397  0.5232
10012TIP3   OH251450   6.584   4.746  10.733 -0.2166  0.7441  0.4291
10012TIP3    H151451   6.661   4.737  10.789 -0.0266  0.9616  0.2068
10012TIP3    H251452   6.582   4.665  10.682  0.0297  0.8588  0.2340
10013TIP3   OH251453   1.928   0.086  16.085  0.5209 -0.0214  0.1630
10013TIP3    H151454   1.988   0.155  16.057  0.3991  0.7846  1.7839
10013TIP3    H251455   1.908   0.038  16.004 -1.0925  3.1478 -1.5418
10014TIP3   OH251456   3.547   4.960   3.207  0.8897  0.5390  0.4402
10014TIP3    H151457   3.604   4.992   3.137 -1.2036 -3.1319 -3.4663
10014TIP3    H251458   3.498   5.037   3.235  3.7132  2.6817 -0.0787
10015TIP3   OH251459   0.858   4.624  16.236 -0.3986  0.7329  0.2515
10015TIP3    H151460   0.860   4.635  16.331 -1.2575  1.0855  0.2320
10015TIP3    H251461   0.933   4.675  16.205  0.5720 -0.2995  0.8134
10016TIP3   OH251462   4.676   6.033   2.468  0.1993  0.4500 -0.4743
10016TIP3    H151463   4.624   5.973   2.416  0.3903  0.9594 -1.2840
10016TIP3    H251464   4.703   5.983   2.545  1.3652 -0.8939 -1.7033
10017TIP3   OH251465   3.297   6.664  17.012  0.5826  0.0764 -0.4340
10017TIP3    H151466   3.272   6.638  16.923  1.5959  0.7406 -0.9305
10017TIP3    H251467   3.216   6.656  17.063 -0.3800  1.1174 -1.7360
10018TIP3   OH251468   0.315   3.395   4.694 -0.3596 -0.2251  0.4485
10018TIP3    H151469   0.275   3.476   4.662 -1.1402 -0.4984  0.7059
10018TIP3    H251470   0.276   3.326   4.640  0.8288 -0.3802 -0.2466
10019TIP3   OH251471   2.765   0.368  16.237 -0.1171 -0.3449 -0.9280
10019TIP3    H151472   2.710   0.439  16.205 -1.5120 -0.7389  0.4624
10019TIP3    H251473   2.703   0.303  16.272  1.1965 -1.0728  0.1599
10020TIP3   OH251474   6.471   3.895   5.094  0.3278 -0.0604  0.3628
10020TIP3    H151475   6.439   3.980   5.124  0.1659  0.2355 -0.5994
10020TIP3    H251476   6.557   3.914   5.057 -0.6493  0.1558 -2.0005
10021TIP3   OH251477   0.155   1.693  16.096  0.3055  0.8257 -0.2371
10021TIP3    H151478   0.122   1.646  16.020 -1.0033 -0.7461  1.2090
10021TIP3    H251479   0.216   1.632  16.137 -0.8760  0.5986  1.2830
10022TIP3   OH251480   3.522   5.362  16.077 -0.3665  0.5259  0.1382
10022TIP3    H151481   3.523   5.342  15.983  0.4203 -0.2243  0.2863
10022TIP3    H251482   3.560   5.449  16.084 -0.8690  0.7799 -0.2760
10023TIP3   OH251483   4.262   6.748  11.305  0.6906 -0.4754  0.3443
10023TIP3    H151484   4.326   6.749  11.233  0.9609 -3.2321  0.4325
10023TIP3    H251485   4.203   6.677  11.283 -1.5416  1.0671  1.0277
10024TIP3   OH251486   0.128   0.903  11.696 -0.1883  0.3575 -0.1605
10024TIP3    H151487   0.193   0.882  11.763 -1.0957 -1.5807  0.1970
10024TIP3    H251488   0.179   0.928  11.620  0.9710 -0.4362  0.3278
10025TIP3   OH251489   2.822   4.287  16.042 -0.1432  0.0743 -0.3045
10025TIP3    H151490   2.812   4.222  16.112 -1.7692  0.9453  0.3249
10025TIP3    H251491   2.869   4.240  15.973  0.4518 -1.1695  0.8938
10026TIP3   OH251492   0.755   3.676   2.929 -0.1153  0.5017  0.1446
10026TIP3    H151493   0.850   3.682   2.915 -0.3984  1.7496 -1.5165
10026TIP3    H251494   0.733   3.756   2.975 -0.4501  0.4896  0.0051
10027TIP3   OH251495   1.424   5.600   6.609  0.0089 -0.1364  0.1581
10027TIP3    H151496   1.442   5.611   6.516 -0.0320  0.8160  0.2511
10027TIP3    H251497   1.461   5.515   6.631 -1.7893 -1.3416 -1.1677
10028TIP3   OH251498   2.170   4.484   4.808 -0.4711 -0.0515  0.6841
10028TIP3    H151499   2.128   4.546   4.748  0.0565  0.8743  1.2458
10028TIP3    H251500   2.115   4.405   4.804 -1.6314  0.7416  0.5818
10029TIP3   OH251501   6.093   1.396  12.978  0.4131 -0.2331  0.5971
10029TIP3    H151502   6.110   1.480  12.936  1.4898 -0.6367  0.2105
10029TIP3    H251503   6.137   1.331  12.923 -1.2846 -1.1974  0.2776
10030TIP3   OH251504   4.450   1.157  14.008 -0.3890  0.3796 -0.0129
10030TIP3    H151505   4.433   1.227  13.945 -0.8592 -0.0408 -0.3581
10030TIP3    H251506   4.520   1.106  13.968 -0.4920  0.2761 -0.0595
10031TIP3   OH251507   6.503   1.430   2.851  0.0237  0.6661  0.1041
10031TIP3    H151508   6.510   1.361   2.785 -0.5405  0.6499  0.0590
10031TIP3    H251509   6.411   1.454   2.851 -0.4414 -0.8724  2.4550
10032TIP3   OH251510   4.945   2.218  14.726  0.1742  0.0457 -0.7493
10032TIP3    H151511   4.991   2.289  14.682  0.0566  0.6557  0.0788
10032TIP3    H251512   4.928   2.154  14.657  1.0431  0.4253 -1.3405
10033TIP3   OH251513   3.393   4.161   3.572  0.3331  0.0192 -0.2420
10033TIP3    H151514   3.326   4.229   3.561 -0.1032 -0.1803  1.0518
10033TIP3    H251515   3.380   4.128   3.661  1.1921 -1.0653 -0.4906
10034TIP3   OH251516   0.236   2.727  11.450  0.4737  0.3083  0.0541
10034TIP3    H151517   0.188   2.759  11.375  1.3778  1.7544  0.0510
10034TIP3    H251518   0.191   2.765  11.526  0.2956 -0.1483  0.1808
10035TIP3   OH251519   5.435   2.725  12.292  0.1500  0.2065 -0.5684
10035TIP3    H151520   5.433   2.641  12.339  1.0134 -0.7617 -2.1580
10035TIP3    H251521   5.348   2.761  12.304  0.5459  0.4245  2.4036
10036TIP3   OH251522   4.820   5.516   6.064 -0.5167  0.2085  0.4381
10036TIP3    H151523   4.844   5.542   5.975 -2.1602  1.5393  0.3332
10036TIP3    H251524   4.816   5.421   6.061  0.6618  0.1559 -0.5632
10037TIP3   OH251525   5.337   2.500  13.385  0.1161 -0.1442 -0.0705
10037TIP3    H151526   5.283   2.573  13.416  0.6035  0.8165 -1.3963
10037TIP3    H251527   5.377   2.533  13.305  2.0065 -1.1489  0.4159
10038TIP3   OH251528   5.441   4.010  12.565 -0.5909 -0.6203  0.0346
10038TIP3    H151529   5.459   4.032  12.474  1.0614 -2.0418 -0.0382
10038TIP3    H251530   5.419   3.917  12.564  2.1545 -1.3906  1.3209
10039TIP3   OH251531   5.779   3.755  15.600  0.0157 -0.1274 -0.6996
10039TIP3    H151532   5.814   3.700  15.670  0.2160 -1.4007 -1.7607
10039TIP3    H251533   5.825   3.726  15.521 -0.6581  0.8384 -1.4768
10040TIP3   OH251534   4.016   4.738  14.334  0.2381  0.6467  0.4282
10040TIP3    H151535   4.110   4.749  14.349  1.1968  0.1464 -4.0188
10040TIP3    H251536   3.987   4.683  14.407  3.5014  0.3326  1.6656
10041TIP3   OH251537   2.077   2.835   1.896 -0.0330  0.1727 -0.0905
10041TIP3    H151538   1.994   2.863   1.856  0.1353 -0.3015 -0.7981
10041TIP3    H251539   2.089   2.894   1.970 -1.3101 -0.1311  0.3912
10042TIP3   OH251540   2.694   2.585  15.624  0.2999  0.0307  0.2033
10042TIP3    H151541   2.748   2.639  15.682  0.3303 -0.5680  0.7421
10042TIP3    H251542   2.735   2.499  15.627 -0.6196 -0.4050  0.5215
10043TIP3   OH251543   2.312   2.553  16.879 -0.1405  0.6334 -0.1458
10043TIP3    H151544   2.253   2.497  16.930  2.1331  1.4528  3.7886
10043TIP3    H251545   2.362   2.493  16.826 -0.0482 -0.7806  1.4615
10044TIP3   OH251546   1.387   2.311  14.776 -0.0420 -0.0683  0.3004
10044TIP3    H151547   1.367   2.267  14.693 -0.4666  0.5493  0.0744
10044TIP3    H251548   1.315   2.371  14.790  0.0411 -0.1398  1.1106
10045TIP3   OH251549   6.232   3.595  15.348 -0.2345 -0.1756 -0.0438
10045TIP3    H151550   6.282   3.653  15.291 -2.2441 -0.2410 -1.9963
10045TIP3    H251551   6.298   3.535  15.385  1.3223  0.8086 -1.1052
10046TIP3   OH251552   3.693   5.169  14.346  0.1382  0.2422 -0.4414
10046TIP3    H151553   3.783   5.201  14.339  0.0029  0.5172 -1.0393
10046TIP3    H251554   3.698   5.077  14.322  0.0637  0.5913 -1.9125
10047TIP3   OH251555   1.668   4.018  15.361 -0.2600 -0.1792  0.3542
10047TIP3    H151556   1.622   3.947  15.316 -1.0373 -1.1982  2.6062
10047TIP3    H251557   1.751   3.980  15.388  0.7715  0.8184 -1.2545
10048TIP3   OH251558   3.939   2.232  14.260 -0.4074 -0.0622  0.2604
10048TIP3    H151559   3.883   2.310  14.260 -2.3718 -1.3513  2.0172
10048TIP3    H251560   4.017   2.258  14.212 -1.6015  2.5269 -0.4492
10049TIP3   OH251561   2.412   6.226  12.730  0.1949  0.1722 -0.4512
10049TIP3    H151562   2.431   6.137  12.700  0.3158 -0.1168  0.4366
10049TIP3    H251563   2.332   6.251  12.684 -0.0772 -0.5647 -0.3912
10050TIP3   OH251564   3.204   2.426   4.566  0.5050  0.1658  0.1402
10050TIP3    H151565   3.225   2.357   4.503 -0.9547  0.0908 -0.3081
10050TIP3    H251566   3.231   2.391   4.650 -1.4456 -1.5748  0.1148
10051TIP3   OH251567   3.596   2.978  11.943  0.4388  0.0868  0.3046
10051TIP3    H151568   3.583   2.935  12.028 -1.0008 -0.8741 -0.3602
10051TIP3    H251569   3.685   3.013  11.947  0.2914  0.3372  2.3217
10052TIP3   OH251570   4.481   0.067  14.296  0.6946 -0.3350 -0.0830
10052TIP3    H151571   4.501   0.145  14.347  0.1383  0.0709 -0.4799
10052TIP3    H251572   4.433   0.010  14.356  0.5901 -0.1257  0.0294
10053TIP3   OH251573   5.223   1.343   4.783 -0.0906 -0.6975 -0.4527
10053TIP3    H151574   5.213   1.410   4.851  0.4786 -0.0184 -1.0251
10053TIP3    H251575   5.281   1.278   4.823 -0.3783 -0.6899 -0.0124
10054TIP3   OH251576   3.095   6.527  10.621  0.4342  0.6999  0.5132
10054TIP3    H151577   3.130   6.578  10.694 -0.2200 -1.3798  2.4201
10054TIP3    H251578   3.000   6.541  10.626  0.4468  1.1958 -0.4889
10055TIP3   OH251579   5.074   3.511  11.060  0.0294  0.1537 -0.1132
10055TIP3    H151580   4.989   3.473  11.038  0.2148 -0.7117  0.5727
10055TIP3    H251581   5.112   3.538  10.976 -0.7602  0.2092 -0.4581
10056TIP3   OH251582   1.578   2.625   1.651 -0.2971  0.4891 -0.1453
10056TIP3    H151583   1.557   2.564   1.722  0.8843  0.4115  0.1584
10056TIP3    H251584   1.653   2.585   1.607  1.5261  2.4243  1.0038
10057TIP3   OH251585   6.729   5.263  12.208 -0.0330  0.2584  0.0531
10057TIP3    H151586   6.748   5.282  12.116 -1.0954 -0.6126 -0.3703
10057TIP3    H251587   6.719   5.350  12.248 -0.4280  0.6496 -0.8553
10058TIP3   OH251588   2.050   4.945  13.174 -0.1938  0.3308  0.4339
10058TIP3    H151589   2.046   5.007  13.101 -1.0664  0.6219  0.7115
10058TIP3    H251590   2.054   5.000  13.252  1.0631  0.0196  0.6046
10059TIP3   OH251591   1.593   5.216   4.663  0.5886 -0.1324  0.3465
10059TIP3    H151592   1.676   5.221   4.615  0.1750  0.2172 -0.3429
10059TIP3    H251593   1.583   5.303   4.702 -1.2398  1.1580 -2.6367
10060TIP3   OH251594   1.658   2.226  12.047 -0.3134  0.0074  0.3003
10060TIP3    H151595   1.647   2.264  12.134  0.1566  0.2443  0.2648
10060TIP3    H251596   1.709   2.147  12.062  0.3887  0.4252  0.1719
10061TIP3   OH251597   5.962   0.020  14.740  0.4316 -0.2677  0.1526
10061TIP3    H151598   6.011   0.070  14.805  0.7307  1.7667 -1.5300
10061TIP3    H251599   5.887   0.075  14.718  0.0606 -1.1359 -0.8633
10062TIP3   OH251600   4.117   1.716  11.703 -0.5173 -0.1752  0.9342
10062TIP3    H151601   4.167   1.678  11.775 -0.2907  1.1174  1.4875
10062TIP3    H251602   4.039   1.753  11.744  0.4704  2.1876  0.8618
10063TIP3   OH251603   1.371   6.047   4.914 -0.5085  0.2195 -0.6409
10063TIP3    H151604   1.341   5.970   4.962 -0.1674  0.5248  0.0607
10063TIP3    H251605   1.335   6.035   4.826 -1.2769 -0.2550 -0.2720
10064TIP3   OH251606   3.680   3.355  16.234  0.0868 -0.1695  0.6654
10064TIP3    H151607   3.710   3.429  16.287 -0.0369 -0.2535  0.8556
10064TIP3    H251608   3.589   3.342  16.261  0.0905 -0.3525  0.5911
10065TIP3   OH251609   4.549   3.384  16.181 -0.1774  0.3443  0.3316
10065TIP3    H151610   4.517   3.474  16.185 -0.4015  0.2375  1.1345
10065TIP3    H251611   4.621   3.387  16.118  0.1954  1.2040  0.7865
10066TIP3   OH251612   6.464   6.151   6.547 -0.0483 -0.0606  0.0556
10066TIP3    H151613   6.552   6.141   6.510  0.9732  3.3904  1.0738
10066TIP3    H251614   6.477   6.144   6.642 -0.7060  1.0510  0.2529
10067TIP3   OH251615   4.015   6.275   1.162 -0.0034  0.0574 -0.0215
10067TIP3    H151616   4.087   6.248   1.106 -1.1668 -0.7699 -1.1709
10067TIP3    H251617   4.057   6.303   1.244  1.9482  3.2646 -1.9043
10068TIP3   OH251618   4.894   4.914   6.209 -0.3960  0.0933  0.0584
10068TIP3    H151619   4.921   4.995   6.165  1.5091 -0.9038 -0.7206
10068TIP3    H251620   4.886   4.939   6.301 -0.0212  1.2213 -0.1929
10069TIP3   OH251621   1.319   4.778   1.895 -0.2625  0.5499 -0.0673
10069TIP3    H151622   1.308   4.717   1.822 -2.1262  1.2024 -0.3929
10069TIP3    H251623   1.238   4.768   1.946  0.5642  0.8560  1.3501
10070TIP3   OH251624   2.666   4.493  15.941 -0.3929  0.1628  0.2861
10070TIP3    H151625   2.573   4.475  15.955 -0.4378  0.2979  0.1688
10070TIP3    H251626   2.712   4.426  15.992 -0.5514 -1.4463 -1.5419
10071TIP3   OH251627   0.895   4.529   2.303  0.2053 -0.0631 -0.5861
10071TIP3    H151628   0.933   4.498   2.385 -0.3996  2.0361  0.5564
10071TIP3    H251629   0.867   4.449   2.258 -0.0615 -1.2405  1.5318
10072TIP3   OH251630   3.372   1.178   1.838  0.2854 -0.0981 -0.7655
10072TIP3    H151631   3.419   1.096   1.821  1.9406  0.9485 -1.4981
10072TIP3    H251632   3.301   1.154   1.897 -0.3100 -2.3717 -2.2735
10073TIP3   OH251633   6.136   3.253  15.480  0.3841  0.5341 -0.2937
10073TIP3    H151634   6.186   3.185  15.526  2.4254  1.6243 -0.7729
10073TIP3    H251635   6.200   3.323  15.465 -1.2078  1.8132 -1.3799
10074TIP3   OH251636   1.749   4.012  11.404 -0.4649  0.3469 -0.0390
10074TIP3    H151637   1.682   3.961  11.449 -1.2267  0.0690 -1.4518
10074TIP3    H251638   1.781   3.954  11.335 -1.3818  1.7367 -1.7024
10075TIP3   OH251639   4.211   1.306   4.098 -0.2002  0.0329 -0.3898
10075TIP3    H151640   4.247   1.278   4.013 -1.4012 -3.0985 -0.0024
10075TIP3    H251641   4.116   1.308   4.084 -0.4129 -0.5210  0.8515
10076TIP3   OH251642   2.918   4.952   0.241 -0.4870  0.2688 -0.4148
10076TIP3    H151643   2.847   4.983   0.297  1.5628 -1.3348  3.4219
10076TIP3    H251644   2.926   4.859   0.261  0.7743 -0.3192 -3.0793
10077TIP3   OH251645   6.104   1.622   1.485  1.2962  0.6781  0.1566
10077TIP3    H151646   6.062   1.546   1.524 -1.3490  0.3362 -2.8970
10077TIP3    H251647   6.156   1.586   1.413 -1.2565  1.6528 -2.3704
10078TIP3   OH251648   1.098   5.906   0.639  0.0716  0.0766 -0.0449
10078TIP3    H151649   1.011   5.866   0.638 -1.1003  2.4485  0.3852
10078TIP3    H251650   1.091   5.981   0.581  1.4098  1.1655  1.1325
10079TIP3   OH251651   5.609   0.124  13.590  0.0101 -0.3220 -0.3820
10079TIP3    H151652   5.517   0.107  13.571  0.0885  0.5465 -1.6822
10079TIP3    H251653   5.634   0.194  13.529  0.3807  2.6389  2.7990
10080TIP3   OH251654   4.556   2.548  16.681  0.2703 -0.0812  0.5547
10080TIP3    H151655   4.485   2.486  16.667 -0.6983  1.1549 -0.3118
10080TIP3    H251656   4.623   2.498  16.727 -0.8853 -1.4671  0.8202
10081TIP3   OH251657   6.324   4.849  12.204 -0.6519  0.2106 -0.0459
10081TIP3    H151658   6.304   4.756  12.215 -0.7599  0.3314  0.9246
10081TIP3    H251659   6.271   4.893  12.271  1.4314  0.7156  1.3653
10082TIP3   OH251660   5.238   2.015  11.543  0.3148  0.3425  0.2462
10082TIP3    H151661   5.250   1.947  11.609  0.2582  1.2340  1.1951
10082TIP3    H251662   5.313   2.004  11.484 -0.9376 -2.0908 -1.0782
10083TIP3   OH251663   1.913   1.248  12.590 -0.1348  0.4065 -0.0241
10083TIP3    H151664   1.952   1.300  12.660  2.4998  0.3461 -1.3444
10083TIP3    H251665   1.904   1.309  12.517 -1.6482  0.1515 -0.0834
10084TIP3   OH251666   5.710   3.390  16.957  0.3594 -0.0938  0.8298
10084TIP3    H151667   5.690   3.312  16.906 -0.5404  0.7204 -0.1081
10084TIP3    H251668   5.779   3.362  17.017  3.1141 -0.6210 -2.2582
10085TIP3   OH251669   2.786   0.142   2.359 -0.3647  0.0401 -0.0680
10085TIP3    H151670   2.788   0.195   2.439  0.9618  2.2908 -1.4632
10085TIP3    H251671   2.794   0.052   2.390 -3.1798  0.5034  2.4774
10086TIP3   OH251672   4.395   4.338   3.103  0.0599  0.2575 -0.0488
10086TIP3    H151673   4.429   4.427   3.114  0.4718  0.1171 -0.1441
10086TIP3    H251674   4.321   4.333   3.163  1.2604  0.0170  1.4700
10087TIP3   OH251675   6.048   1.647   3.891 -0.1197  0.6275  0.4093
10087TIP3    H151676   6.059   1.739   3.912 -1.1130  0.7611  0.4038
10087TIP3    H251677   6.073   1.601   3.971 -0.4909  0.9550  0.7200
10088TIP3   OH251678   5.002   1.017  12.310  0.0249 -0.2891 -0.6274
10088TIP3    H151679   5.075   0.974  12.266  0.9473 -1.1419  1.5814
10088TIP3    H251680   4.979   0.959  12.382 -1.5483  0.9169 -0.0858
10089TIP3   OH251681   1.327   0.366   0.730 -0.0654 -0.6713 -0.2987
10089TIP3    H151682   1.393   0.298   0.713  0.5848 -0.6515  1.8238
10089TIP3    H251683   1.245   0.317   0.741  0.3016 -1.1145  0.6789
10090TIP3   OH251684   4.151   3.202  14.782 -0.5353  0.0944 -0.1097
10090TIP3    H151685   4.188   3.155  14.707  1.4277  1.4052 -0.0563
10090TIP3    H251686   4.122   3.286  14.745  1.9678  1.4528  0.7425
10091TIP3   OH251687   0.063   1.868  15.196  0.1295  0.3505  0.2932
10091TIP3    H151688  -0.025   1.870  15.157  1.3369  3.7694 -2.7488
10091TIP3    H251689   0.052   1.912  15.280 -1.5856 -2.4929  1.7193
10092TIP3   OH251690   6.523   2.546   4.634  0.5860 -0.1789  0.0196
10092TIP3    H151691   6.548   2.454   4.637  1.0000 -0.0356  1.9868
10092TIP3    H251692   6.428   2.544   4.618  0.6206 -0.9396 -0.1290
10093TIP3   OH251693   4.615   4.837   2.605 -0.1845  0.1506  0.2627
10093TIP3    H151694   4.655   4.912   2.562 -0.4947  1.0148  1.4326
10093TIP3    H251695   4.670   4.763   2.578  1.3292  1.0799  0.6317
10094TIP3   OH251696   0.386   4.995  15.494 -0.2163  0.4377  0.4197
10094TIP3    H151697   0.386   4.909  15.537  2.2189  0.0834 -0.1307
10094TIP3    H251698   0.475   5.027  15.505 -0.9442  2.7094  0.1638
10095TIP3   OH251699   4.883   2.872   4.487 -0.3615  0.0384 -0.2323
10095TIP3    H151700   4.930   2.814   4.428 -1.6606 -1.6261  0.3096
10095TIP3    H251701   4.949   2.898   4.552  0.5597  0.2887 -1.2402
10096TIP3   OH251702   6.724   1.718  15.730 -0.6306  0.3834 -0.1103
10096TIP3    H151703   6.726   1.734  15.636 -1.1718 -0.6454 -0.3067
10096TIP3    H251704   6.817   1.719  15.756 -0.2157 -2.2373 -1.1950
10097TIP3   OH251705   2.530   6.202  14.234 -0.3020 -0.0698 -0.1624
10097TIP3    H151706   2.516   6.289  14.196  0.9814  0.0179 -0.4752
10097TIP3    H251707   2.442   6.166  14.244 -1.0029  1.8993  1.5085
10098TIP3   OH251708   5.896   0.889   2.754 -0.5101  0.3100 -0.1292
10098TIP3    H151709   5.873   0.979   2.779 -0.0157  0.4931 -0.3051
10098TIP3    H251710   5.988   0.880   2.779 -0.6660 -0.2868  0.2498
10099TIP3   OH251711   5.526   1.422   3.285 -0.2541  0.4887  0.5154
10099TIP3    H151712   5.514   1.339   3.239 -0.6174  0.4390  0.6932
10099TIP3    H251713   5.482   1.409   3.369  0.3278  0.6047  0.8431
10100TIP3   OH251714   2.629   0.877  11.295 -0.5796  0.3995 -0.7940
10100TIP3    H151715   2.625   0.806  11.231  0.0462  0.0751 -0.4893
10100TIP3    H251716   2.717   0.869  11.333 -0.8959  0.6630  0.0064
10101TIP3   OH251717   3.830   3.835   4.532  0.2520 -0.0026  0.1489
10101TIP3    H151718   3.889   3.776   4.579  1.3923  0.6719 -0.3964
10101TIP3    H251719   3.858   3.831   4.441  0.9839  2.0372  0.2247
10102TIP3   OH251720   3.887   4.649   0.780  0.1956  0.2350 -0.3183
10102TIP3    H151721   3.880   4.613   0.692 -0.2728  0.5305 -0.4089
10102TIP3    H251722   3.973   4.621   0.812 -0.7213 -2.1969  0.1787
10103TIP3   OH251723   3.686   3.559   4.863  0.4083  0.1503 -0.6702
10103TIP3    H151724   3.721   3.646   4.846 -1.2526  1.0981  0.4610
10103TIP3    H251725   3.591   3.571   4.863 -0.0001 -0.3428  5.1542
10104TIP3   OH251726   5.678   4.962   1.659  0.0228 -0.2386 -0.5434
10104TIP3    H151727   5.604   4.947   1.718  1.1415  0.4677  1.1265
10104TIP3    H251728   5.754   4.965   1.716  1.0330  1.7081 -1.8709
10105TIP3   OH251729   4.807   2.392  12.997 -0.9981  0.2099  0.3459
10105TIP3    H151730   4.837   2.421  13.084 -0.5330 -2.0570  0.9929
10105TIP3    H251731   4.833   2.464  12.939  1.9141  0.3043  1.5522
10106TIP3   OH251732   5.915   5.637  10.891  0.3690 -0.4853 -0.3285
10106TIP3    H151733   5.951   5.664  10.976  0.5515  0.1515 -0.6036
10106TIP3    H251734   5.946   5.703  10.830 -0.9345 -0.1333 -0.6457
10107TIP3   OH251735   2.581   2.314   5.136  0.4364 -0.3910 -0.1780
10107TIP3    H151736   2.612   2.225   5.152 -0.4499 -0.8007 -0.6584
10107TIP3    H251737   2.567   2.351   5.223 -0.8242 -1.3267  0.0424
10108TIP3   OH251738   4.430   2.066  16.234  0.2624 -0.2066  0.0599
10108TIP3    H151739   4.368   2.080  16.163 -0.5656 -1.6687  0.4589
10108TIP3    H251740   4.379   2.079  16.314  0.4466 -1.4510  0.3960
10109TIP3   OH251741   6.546   1.030  13.468 -0.0876 -0.4022 -0.5554
10109TIP3    H151742   6.567   0.980  13.389 -0.5782 -0.5822 -0.5705
10109TIP3    H251743   6.452   1.017  13.481 -0.2905  0.7855 -0.7496
10110TIP3   OH251744   2.427   1.165  15.305 -0.2663 -0.1589 -0.1735
10110TIP3    H151745   2.460   1.254  15.299 -2.7279  0.8814  0.3391
10110TIP3    H251746   2.504   1.112  15.326  1.8260  1.3347 -3.2995
10111TIP3   OH251747   5.716   2.330  11.810  0.6353  0.5214  0.5543
10111TIP3    H151748   5.646   2.362  11.867 -0.0402 -1.3293  0.8257
10111TIP3    H251749   5.795   2.373  11.842 -0.2069  1.9220  0.8507
10112TIP3   OH251750   1.324   1.401  13.790  1.0309  0.1614  0.6597
10112TIP3    H151751   1.234   1.370  13.780  1.0241  0.2268  0.5200
10112TIP3    H251752   1.343   1.446  13.708  1.0474  0.5168  0.8556
10113TIP3   OH251753   5.125   5.219  13.609 -0.0782 -0.1090  0.5074
10113TIP3    H151754   5.164   5.197  13.524  0.5851  0.3212  0.6941
10113TIP3    H251755   5.062   5.149  13.626  0.2020 -0.5030 -0.0727
10114TIP3   OH251756   2.314   1.637   5.314  0.1690  0.5468  0.3423
10114TIP3    H151757   2.264   1.718   5.326 -0.4346  0.2858 -0.3333
10114TIP3    H251758   2.250   1.568   5.330  0.5176  0.2066  0.2621
10115TIP3   OH251759   2.889   6.419  16.345 -0.1133 -0.6532  0.6493
10115TIP3    H151760   2.934   6.503  16.346  0.4949 -0.9445 -0.6283
10115TIP3    H251761   2.947   6.360  16.394  0.0673 -0.6281  0.4642
10116TIP3   OH251762   0.378   0.319  15.313  0.8420 -0.3598  0.0117
10116TIP3    H151763   0.421   0.403  15.299 -0.7434  0.3298 -1.0665
10116TIP3    H251764   0.409   0.264  15.241  1.4014 -0.5056  0.3599
10117TIP3   OH251765   0.228   4.935  16.891  0.7608 -0.0974  0.9087
10117TIP3    H151766   0.303   4.935  16.951 -0.2048 -0.9832  2.1684
10117TIP3    H251767   0.215   4.843  16.868  0.4552  0.1201  0.1901
10118TIP3   OH251768   4.863   4.809  12.319  0.5280  0.5784 -0.1405
10118TIP3    H151769   4.817   4.810  12.235  0.9896  0.9778 -0.3946
10118TIP3    H251770   4.833   4.888  12.364 -0.0266  0.1552  0.2471
10119TIP3   OH251771   4.558   5.232  13.455 -0.8575  0.1483  0.0778
10119TIP3    H151772   4.550   5.196  13.367 -0.9126  0.8452 -0.2071
10119TIP3    H251773   4.651   5.255  13.463 -0.1697 -2.6024  1.2838
10120TIP3   OH251774   4.565   4.268  12.696 -0.5718  0.2630 -0.4671
10120TIP3    H151775   4.589   4.361  12.694  2.6483 -0.4693 -1.0285
10120TIP3    H251776   4.495   4.263  12.761  1.6942  2.6121  2.4351
10121TIP3   OH251777   1.671   0.186   4.397 -0.1192  0.2800 -0.4875
10121TIP3    H151778   1.714   0.204   4.480 -1.0600 -0.1511  0.1110
10121TIP3    H251779   1.608   0.117   4.416 -0.3479  0.1639 -1.5602
10122TIP3   OH251780   5.913   5.557  12.632 -0.5561 -0.0749 -0.2721
10122TIP3    H151781   5.880   5.476  12.671 -1.4323  1.1653  1.7257
10122TIP3    H251782   5.852   5.625  12.663  1.5919  1.7301  0.2740
10123TIP3   OH251783   1.427   0.046   4.169  0.2149 -0.7896 -0.0653
10123TIP3    H151784   1.389   0.073   4.085  0.4733 -0.3725 -0.0506
10123TIP3    H251785   1.487   0.117   4.192  0.2559 -0.9738  0.4012
10124TIP3   OH251786   2.904   0.166   3.983 -0.4930  0.2325 -1.1161
10124TIP3    H151787   2.842   0.238   3.995  0.8120  1.2284  0.0200
10124TIP3    H251788   2.912   0.157   3.888  0.9823  3.1871 -1.4122
10125TIP3   OH251789   5.232   2.526   1.013  0.1905  0.1438  0.2990
10125TIP3    H151790   5.253   2.506   1.104  0.6776  1.2147  0.4345
10125TIP3    H251791   5.145   2.486   0.999  1.0397 -1.9229  0.5580
10126TIP3   OH251792   3.210   5.213  16.692 -0.0720  0.0267  0.0681
10126TIP3    H151793   3.287   5.219  16.636 -0.7663  1.8722 -0.7932
10126TIP3    H251794   3.208   5.297  16.739 -1.4043 -0.0921  0.2634
10127TIP3   OH251795   6.429   3.440  13.468  0.3358  0.0715  0.4424
10127TIP3    H151796   6.395   3.493  13.396  1.6215  0.1637 -0.1145
10127TIP3    H251797   6.444   3.354  13.430  1.0531  0.1279  0.5837
10128TIP3   OH251798   4.411   4.322  11.273 -0.0939  0.3220 -0.3936
10128TIP3    H151799   4.349   4.301  11.342  0.8268 -0.9172  0.0957
10128TIP3    H251800   4.487   4.359  11.318 -0.3365  1.5549 -0.9585
10129TIP3   OH251801   5.949   1.331  11.249 -0.0807 -0.1184  0.2792
10129TIP3    H151802   5.951   1.355  11.342  0.3458  0.5437  0.1041
10129TIP3    H251803   5.867   1.369  11.217 -0.2059 -0.3083  0.3665
10130TIP3   OH251804   3.634   6.052  15.794  0.5757 -0.1393 -0.3287
10130TIP3    H151805   3.561   6.048  15.732  0.2362  0.4429  0.0248
10130TIP3    H251806   3.650   6.146  15.807  2.2827 -0.2299 -1.4363
10131TIP3   OH251807   2.624   5.346  15.934 -0.2325 -0.3411  0.7477
10131TIP3    H151808   2.556   5.284  15.905 -0.4849  0.5264 -0.6191
10131TIP3    H251809   2.576   5.420  15.970 -0.0559  0.3567 -0.3920
10132TIP3   OH251810   0.753   2.776   1.438  0.2490  0.5497  0.4038
10132TIP3    H151811   0.796   2.693   1.459 -0.2953  0.2202  0.2194
10132TIP3    H251812   0.809   2.842   1.479  1.0461  0.1449  0.0056
10133TIP3   OH251813   4.800   1.170  12.848 -0.9023  0.0177 -0.2740
10133TIP3    H151814   4.710   1.199  12.832 -0.6594  0.9114 -0.1058
10133TIP3    H251815   4.849   1.203  12.772 -0.6955 -0.3849 -0.3179
10134TIP3   OH251816   4.985   0.050  10.703 -0.2884  0.0608 -0.4037
10134TIP3    H151817   4.977  -0.004  10.624  0.1596 -1.2220  0.3968
10134TIP3    H251818   4.896   0.059  10.736 -0.2614 -1.0279 -0.0126
10135TIP3   OH251819   5.903   4.782   3.681  0.7794 -0.2675 -0.4801
10135TIP3    H151820   5.853   4.701   3.696  1.6999 -0.8952 -0.7286
10135TIP3    H251821   5.839   4.852   3.692  0.2406 -0.9529  1.0685
10136TIP3   OH251822   6.003   1.697  15.500 -0.0450 -0.1063  0.2811
10136TIP3    H151823   6.023   1.777  15.451 -1.3328 -0.2348 -0.5279
10136TIP3    H251824   6.018   1.626  15.437 -0.6628 -0.3596  0.4100
10137TIP3   OH251825   4.249   4.019  11.599 -0.2413  0.3200 -0.4152
10137TIP3    H151826   4.342   3.996  11.600 -0.4220 -0.5519 -1.5376
10137TIP3    H251827   4.204   3.938  11.576 -1.2604  0.7957 -0.1763
10138TIP3   OH251828   1.914   1.834   1.131  0.2097 -0.1080 -0.6912
10138TIP3    H151829   1.849   1.873   1.072 -0.0230 -0.2755 -0.5477
10138TIP3    H251830   1.866   1.817   1.211  1.0342  2.2231  0.3850
10139TIP3   OH251831   5.355   4.171  15.286 -0.4342 -0.0941 -0.0179
10139TIP3    H151832   5.295   4.097  15.300  0.0444 -0.1756  1.8971
10139TIP3    H251833   5.298   4.247  15.278 -0.8615 -0.3303  0.6529
10140TIP3   OH251834   5.721   5.151   1.329  0.2651 -0.0229 -0.0046
10140TIP3    H151835   5.631   5.172   1.355 -0.1875 -1.0084 -0.7459
10140TIP3    H251836   5.713   5.117   1.240  1.1469 -1.8625  0.5799
10141TIP3   OH251837   4.568   5.609  10.976 -0.3832  0.2149  0.1014
10141TIP3    H151838   4.629   5.662  10.924  0.5391 -1.6347 -0.7664
10141TIP3    H251839   4.504   5.577  10.912 -0.0288 -0.9583  0.3099
10142TIP3   OH251840   3.660   2.216  13.211  0.3388 -0.1193  0.0666
10142TIP3    H151841   3.584   2.214  13.269 -0.4906  1.7503 -0.8475
10142TIP3    H251842   3.722   2.273  13.256  1.8224 -2.6254  1.4137
10143TIP3   OH251843   4.324   1.112   0.740 -0.3798 -0.3507  0.0098
10143TIP3    H151844   4.411   1.073   0.731 -0.9849 -1.5502 -0.9953
10143TIP3    H251845   4.271   1.043   0.780 -1.5123 -0.7051 -1.9312
10144TIP3   OH251846   1.527   0.964  12.220  0.3028 -0.0940  0.8061
10144TIP3    H151847   1.622   0.952  12.215  0.3864  0.7778  0.1797
10144TIP3    H251848   1.514   1.017  12.298  0.3378 -0.0774  0.8004
10145TIP3   OH251849   5.464   1.927   2.888 -0.3060  0.2050  0.0500
10145TIP3    H151850   5.403   1.855   2.897  0.4732 -0.4629  0.0755
10145TIP3    H251851   5.501   1.917   2.800 -0.7210  1.0064 -0.2340
10146TIP3   OH251852   6.226   4.039   2.300  0.1697 -0.3207  0.5550
10146TIP3    H151853   6.218   4.119   2.351  0.3124 -1.3989  2.3311
10146TIP3    H251854   6.320   4.022   2.294  0.1558 -0.2247 -0.0639
10147TIP3   OH251855   4.771   6.626  16.017  0.9405 -1.1094  0.4809
10147TIP3    H151856   4.699   6.564  16.029  0.9870 -1.1258  0.6874
10147TIP3    H251857   4.823   6.617  16.097  0.8559 -0.6848  0.5876
10148TIP3   OH251858   5.994   2.344  11.444 -0.0016 -0.2500  0.2300
10148TIP3    H151859   6.060   2.368  11.379  0.7438 -1.3938  0.5197
10148TIP3    H251860   6.013   2.401  11.519  0.6585 -0.5363  0.2931
10149TIP3   OH251861   2.141   1.455  17.404  0.0956 -0.7150  0.1556
10149TIP3    H151862   2.054   1.418  17.393  0.1914 -1.0813  0.6193
10149TIP3    H251863   2.149   1.473  17.498  0.5452 -0.7545  0.1310
10150TIP3   OH251864   1.390   3.025  13.422 -0.1530  0.0767 -0.3137
10150TIP3    H151865   1.371   3.095  13.360  0.5436  0.0951 -0.5178
10150TIP3    H251866   1.382   3.066  13.508 -2.0889 -0.1881 -0.3329
10151TIP3   OH251867   1.635   4.565  11.135 -0.0895  0.1980  0.0599
10151TIP3    H151868   1.696   4.509  11.183 -0.4240  0.8545  1.2977
10151TIP3    H251869   1.681   4.648  11.126 -0.7188  0.6605  0.8923
10152TIP3   OH251870   1.739   4.812   4.783  0.4025 -0.2419  0.1882
10152TIP3    H151871   1.659   4.815   4.731 -1.4451  0.0122  2.8794
10152TIP3    H251872   1.746   4.720   4.810  0.4104 -0.0436  0.8613
10153TIP3   OH251873   0.663   0.237  12.533 -0.3287  0.4630 -0.4300
10153TIP3    H151874   0.665   0.177  12.458  0.0264  1.8584 -1.5695
10153TIP3    H251875   0.671   0.324  12.495  0.6778  1.1782  1.2866
10154TIP3   OH251876   1.183   0.787   3.121  0.4331 -0.4130 -0.1473
10154TIP3    H151877   1.275   0.784   3.093  0.0005  0.5319 -1.8196
10154TIP3    H251878   1.148   0.865   3.079 -0.9617 -0.3254  1.1029
10155TIP3   OH251879   0.339   1.409  15.285  0.0004  0.3345  0.4594
10155TIP3    H151880   0.279   1.340  15.313  0.5453 -0.8388 -1.1524
10155TIP3    H251881   0.282   1.484  15.265 -0.9688 -0.7269 -0.9670
10156TIP3   OH251882   0.479   6.106  16.628  0.1035  0.3922  0.8638
10156TIP3    H151883   0.530   6.146  16.557 -1.2165  0.3674 -0.1294
10156TIP3    H251884   0.543   6.090  16.697  1.6403 -0.4969 -0.6799
10157TIP3   OH251885   0.899   5.483   6.359 -0.0363 -0.1516  0.2298
10157TIP3    H151886   0.932   5.426   6.289 -1.0365 -1.4897  0.8056
10157TIP3    H251887   0.975   5.536   6.384  1.1904 -1.8343  0.2531
10158TIP3   OH251888   6.501   1.750   1.403  0.0249 -0.8117  0.1753
10158TIP3    H151889   6.419   1.711   1.434 -1.3547  0.3127 -1.7698
10158TIP3    H251890   6.562   1.677   1.396 -0.1733 -1.4064  3.3946
10159TIP3   OH251891   4.267   2.504  17.193  0.2883  0.4366  0.8403
10159TIP3    H151892   4.296   2.414  17.203  1.2076  0.1376 -2.9144
10159TIP3    H251893   4.187   2.498  17.141 -0.4940  1.7740  1.8152
10160TIP3   OH251894   2.028   1.025   2.107  0.1322 -0.5150 -0.3334
10160TIP3    H151895   2.121   1.043   2.122 -0.2607  0.0285  1.7135
10160TIP3    H251896   2.022   0.929   2.113  0.3097 -0.4482  1.3951
10161TIP3   OH251897   6.219   5.392   4.120 -0.6432 -0.4267  0.3617
10161TIP3    H151898   6.288   5.441   4.165  1.2128 -1.4127 -1.2824
10161TIP3    H251899   6.215   5.431   4.033 -0.8884 -1.5810 -0.1540
10162TIP3   OH251900   1.459   0.517  12.744  0.2680 -0.3610  0.5255
10162TIP3    H151901   1.424   0.429  12.730  0.0394 -0.2006  0.0737
10162TIP3    H251902   1.554   0.504  12.752  0.3132 -0.5737 -0.2506
10163TIP3   OH251903   6.564   4.323  13.347  0.0009 -0.1068  0.0846
10163TIP3    H151904   6.579   4.255  13.282  1.6486 -0.2367  0.5540
10163TIP3    H251905   6.567   4.277  13.431  0.2805  0.4134  0.3631
10164TIP3   OH251906   3.682   1.426   2.924  0.0448  0.4388  0.2199
10164TIP3    H151907   3.766   1.386   2.945  0.6533  1.8258  0.5419
10164TIP3    H251908   3.692   1.458   2.834  0.2638  1.5496  0.6213
10165TIP3   OH251909   1.764   3.804  12.423 -0.4428 -0.2837 -0.7747
10165TIP3    H151910   1.694   3.829  12.483  0.9347 -0.9753  1.2030
10165TIP3    H251911   1.792   3.718  12.454 -1.0602 -1.6750 -3.7205
10166TIP3   OH251912   5.646   3.704  14.587 -0.1139 -0.3092  0.3199
10166TIP3    H151913   5.673   3.651  14.662  0.6654  0.7227  0.7737
10166TIP3    H251914   5.709   3.775  14.583  0.0409 -0.5076 -1.5057
10167TIP3   OH251915   3.242   6.261   1.848  0.0405 -0.0974 -0.1199
10167TIP3    H151916   3.299   6.194   1.811  0.1336 -0.5938  0.9029
10167TIP3    H251917   3.169   6.213   1.887 -0.2887  0.4404 -0.0539
10168TIP3   OH251918   0.425   0.530   0.508 -0.1192 -0.0982 -0.1252
10168TIP3    H151919   0.394   0.592   0.575  0.7540 -0.0260  0.2235
10168TIP3    H251920   0.513   0.560   0.487 -0.1366 -0.5257 -0.8292
10169TIP3   OH251921   2.617   4.955  14.100 -0.3315  0.5391  0.0164
10169TIP3    H151922   2.673   4.968  14.176  0.2464 -3.3626  0.4603
10169TIP3    H251923   2.530   4.942  14.136 -0.4446  0.7383 -0.1783
10170TIP3   OH251924   2.297   2.282   2.277  0.1399  0.0552  0.4550
10170TIP3    H151925   2.301   2.321   2.365  0.8454 -0.0714  0.4812
10170TIP3    H251926   2.316   2.354   2.218  1.6720 -0.2734  0.5143
10171TIP3   OH251927   6.295   5.124   4.696  0.4390  0.6718 -0.0147
10171TIP3    H151928   6.338   5.047   4.658 -1.7951 -0.5996 -0.1243
10171TIP3    H251929   6.307   5.113   4.791  0.7869  0.6088 -0.0643
10172TIP3   OH251930   2.840   4.914  14.868 -0.6261  0.7597  0.1818
10172TIP3    H151931   2.770   4.857  14.835 -0.6594  0.8747  0.0530
10172TIP3    H251932   2.825   4.998  14.825 -0.5888  0.8732  0.3872
10173TIP3   OH251933   6.401   5.195   3.409  0.4321  0.3296  0.3775
10173TIP3    H151934   6.422   5.191   3.502 -0.1665 -0.3387  0.4909
10173TIP3    H251935   6.429   5.282   3.382  3.6783 -0.5446  0.4343
10174TIP3   OH251936   3.541   6.367   2.085 -0.7361  0.1730 -0.1256
10174TIP3    H151937   3.617   6.411   2.047  0.0446 -0.1888  0.9711
10174TIP3    H251938   3.526   6.412   2.168 -0.7540 -0.7486  0.3830
10175TIP3   OH251939   0.560   4.603   4.802 -0.2348  0.1511  0.5826
10175TIP3    H151940   0.481   4.550   4.791 -0.6709  0.7725  0.6622
10175TIP3    H251941   0.529   4.693   4.797  0.7275  0.4238 -1.2575
10176TIP3   OH251942   2.260   2.775  12.422  0.1672  0.6475 -0.2051
10176TIP3    H151943   2.273   2.811  12.334  1.8664  2.3348  0.6569
10176TIP3    H251944   2.318   2.698  12.424 -1.7322 -0.9186 -1.2910
10177TIP3   OH251945   4.502   4.722  11.363  0.1001 -0.0124 -0.0148
10177TIP3    H151946   4.496   4.737  11.268 -1.8788 -1.5185 -0.1943
10177TIP3    H251947   4.553   4.642  11.371 -2.1953 -1.5658 -0.0605
10178TIP3   OH251948   3.082   0.774  12.343 -0.7630 -0.3438 -0.0469
10178TIP3    H151949   3.080   0.867  12.365 -0.5805 -0.8969  2.7237
10178TIP3    H251950   3.126   0.732  12.417  0.9585 -2.4640 -2.1057
10179TIP3   OH251951   0.903   4.371  16.419  0.4367 -0.0739  0.1852
10179TIP3    H151952   0.844   4.354  16.347  0.6346  1.0519 -0.2661
10179TIP3    H251953   0.913   4.287  16.463  1.1693 -1.0524 -1.7374
10180TIP3   OH251954   2.038   2.134  13.541  0.3784  0.1288 -0.0756
10180TIP3    H151955   2.002   2.101  13.624 -0.3788 -1.4358 -0.9903
10180TIP3    H251956   2.072   2.057  13.497  2.9744  1.2549 -0.2386
10181TIP3   OH251957   3.995   1.368  11.461  0.3983 -0.0923  0.1515
10181TIP3    H151958   4.059   1.298  11.474  0.3235 -0.2844 -0.4732
10181TIP3    H251959   4.047   1.442  11.428  0.2796 -0.3040 -0.5220
10182TIP3   OH251960   2.736   0.878   0.961  0.2850  0.0894 -0.3977
10182TIP3    H151961   2.761   0.968   0.983 -1.2767  0.2530  0.8792
10182TIP3    H251962   2.666   0.889   0.896 -0.3849 -0.1708  0.2728
10183TIP3   OH251963   5.314   4.470  16.099 -0.1515 -0.4078  0.0888
10183TIP3    H151964   5.389   4.530  16.099  0.0655 -0.6276 -1.5643
10183TIP3    H251965   5.353   4.383  16.103 -0.3927 -0.4908  0.7139
10184TIP3   OH251966   6.589   0.903   4.041  0.5356 -0.3990 -0.1688
10184TIP3    H151967   6.558   0.899   3.951 -0.0470  0.5381 -0.0197
10184TIP3    H251968   6.633   0.819   4.055 -2.2758 -2.0146 -0.2697
10185TIP3   OH251969   6.286   5.080  14.826 -0.3014 -0.2734  0.2607
10185TIP3    H151970   6.211   5.118  14.873 -0.5206  0.8209 -0.9315
10185TIP3    H251971   6.362   5.109  14.877 -0.3994  2.5321 -1.0047
10186TIP3   OH251972   1.214   5.569  14.124  0.0386 -0.0137 -0.0024
10186TIP3    H151973   1.296   5.618  14.120  1.1542 -1.9022 -1.8722
10186TIP3    H251974   1.153   5.621  14.071  0.1715  1.0452  0.8366
10187TIP3   OH251975   6.493   0.758  14.070 -0.6582  0.1706 -0.1602
10187TIP3    H151976   6.416   0.717  14.111  0.5876 -3.3589 -0.9542
10187TIP3    H251977   6.567   0.718  14.115  0.7494  2.2225 -0.5531
10188TIP3   OH251978   1.163   5.935  11.992 -0.0496  0.0514  0.2319
10188TIP3    H151979   1.113   5.858  12.019  0.5920  0.1766  1.9023
10188TIP3    H251980   1.096   5.999  11.968 -0.6001 -0.7845 -0.5432
10189TIP3   OH251981   6.331   5.571  13.994  0.2999  0.4659 -0.1855
10189TIP3    H151982   6.317   5.530  13.909  0.4478 -0.1825  0.0965
10189TIP3    H251983   6.382   5.507  14.044  0.5478  0.9985  0.2609
10190TIP3   OH251984   1.019   4.472   0.935  0.0006 -0.4997  0.3052
10190TIP3    H151985   0.969   4.546   0.902  1.5494  0.7349  0.6413
10190TIP3    H251986   0.956   4.399   0.936 -1.5975  0.8275  0.1276
10191TIP3   OH251987   5.784   0.573  12.493  0.1986 -0.2041 -0.7000
10191TIP3    H151988   5.783   0.490  12.541  0.5470 -0.5984 -1.3484
10191TIP3    H251989   5.726   0.631  12.543 -0.6511 -1.0716 -0.6473
10192TIP3   OH251990   4.463   1.898   4.456 -0.5982 -0.6114  0.1342
10192TIP3    H151991   4.393   1.944   4.410 -1.1579 -0.7120  0.8795
10192TIP3    H251992   4.541   1.952   4.442 -0.2259 -1.6522 -2.7039
10193TIP3   OH251993   2.331   1.424  10.186  0.4098  0.9835  0.2512
10193TIP3    H151994   2.324   1.369  10.264  1.8327  1.0591  0.4490
10193TIP3    H251995   2.257   1.484  10.192  0.6608  1.1691  1.6863
10194TIP3   OH251996   2.857   5.841   4.836 -0.3397  0.0196  0.0203
10194TIP3    H151997   2.845   5.804   4.924 -1.6468 -0.7292 -0.4404
10194TIP3    H251998   2.932   5.900   4.845  1.5264 -2.3047  0.9501
10195TIP3   OH251999   4.866   3.916  13.916 -0.2643  0.3886  0.0637
10195TIP3    H152000   4.946   3.880  13.954 -1.1584 -0.3143  1.3516
10195TIP3    H252001   4.877   4.011  13.923 -0.0857  0.2812  1.4306
10196TIP3   OH252002   0.215   0.537  12.993  0.5459  0.3560  0.2797
10196TIP3    H152003   0.204   0.576  13.079  0.0106  0.8143  0.0113
10196TIP3    H252004   0.259   0.605  12.941  0.1421  0.3919 -0.0244
10197TIP3   OH252005   4.126   0.223   1.939 -0.7638 -0.0416  0.1217
10197TIP3    H152006   4.125   0.266   2.025 -0.1014  0.5920 -0.1847
10197TIP3    H252007   4.047   0.255   1.895 -0.0089  1.2966 -0.3050
10198TIP3   OH252008   3.269   0.724  14.148  0.3897  0.1179 -0.1933
10198TIP3    H152009   3.315   0.643  14.125  0.8617  0.2369  0.2963
10198TIP3    H252010   3.326   0.794  14.117 -0.4668  0.2823 -1.4814
10199TIP3   OH252011   1.750   4.891  14.510  0.0409  0.4721  0.1216
10199TIP3    H152012   1.842   4.879  14.484  0.3110 -1.4167  1.6753
10199TIP3    H252013   1.735   4.985  14.500  1.8472  0.7026 -1.0635
10200TIP3   OH252014   5.732   6.504   2.187  0.8236  0.4442 -0.8168
10200TIP3    H152015   5.639   6.513   2.168  0.4260 -0.8428  0.3678
10200TIP3    H252016   5.753   6.414   2.164  0.8582 -0.4716  2.3618
10201TIP3   OH252017   6.100   4.502   2.708 -0.5682 -0.4268 -0.5175
10201TIP3    H152018   6.039   4.466   2.773 -0.7965  1.6397  0.4854
10201TIP3    H252019   6.167   4.434   2.698 -0.8451 -1.0380  1.4331
10202TIP3   OH252020   6.651   4.862  16.922  0.0117  0.1681 -0.2709
10202TIP3    H152021   6.685   4.952  16.919 -2.5050  1.1764 -0.8906
10202TIP3    H252022   6.705   4.815  16.858 -0.1372  1.8591 -1.7362
10203TIP3   OH252023   2.780   3.522   2.450 -0.4798 -0.1894 -0.2584
10203TIP3    H152024   2.796   3.450   2.512  0.2275  0.8512  0.8154
10203TIP3    H252025   2.836   3.593   2.482 -1.2323  0.8681 -1.2457
10204TIP3   OH252026   0.280   1.074  16.876 -0.0048  0.0126 -0.3898
10204TIP3    H152027   0.340   1.148  16.863 -0.6713  0.4657 -0.9530
10204TIP3    H252028   0.211   1.087  16.811 -0.1621 -1.0856 -0.4676
10205TIP3   OH252029   3.787   0.732   0.049 -0.1416 -0.8340 -0.0101
10205TIP3    H152030   3.755   0.817   0.019  1.2184 -0.3373 -0.1210
10205TIP3    H252031   3.763   0.729   0.142  0.7522  0.1697  0.2789
10206TIP3   OH252032   5.784   4.877   0.759  0.3533  0.0960  0.2518
10206TIP3    H152033   5.845   4.910   0.825  0.1520 -2.0362  1.6063
10206TIP3    H252034   5.772   4.785   0.781 -1.3926 -0.1781 -1.5169
10207TIP3   OH252035   4.256   3.690  14.308  0.1337  0.1231 -0.3844
10207TIP3    H152036   4.288   3.646  14.230 -0.5343  0.2528 -0.7447
10207TIP3    H252037   4.332   3.696  14.366  0.2103 -1.5900 -0.2784
10208TIP3   OH252038   6.267   0.362   2.171  0.1601  0.6379 -0.4751
10208TIP3    H152039   6.248   0.456   2.169  0.4233  0.7522  1.1024
10208TIP3    H252040   6.353   0.356   2.213 -1.2189 -0.4217  2.4939
10209TIP3   OH252041   0.984   0.601   3.669  0.2558 -0.4575  0.4500
10209TIP3    H152042   1.060   0.648   3.634  1.3861 -1.3892  1.5540
10209TIP3    H252043   0.913   0.625   3.610  1.5090  0.0385 -0.9558
10210TIP3   OH252044   4.008   3.506   0.712  0.1966  0.0251 -0.7797
10210TIP3    H152045   4.028   3.509   0.806 -0.5951 -0.8464 -0.5680
10210TIP3    H252046   4.058   3.578   0.675  2.1168 -0.8286  0.0070
10211TIP3   OH252047   2.830   1.688  14.062  0.3072  0.3346 -0.2117
10211TIP3    H152048   2.800   1.766  14.014  0.9659  0.3993 -0.5264
10211TIP3    H252049   2.924   1.703  14.076 -0.1327  1.1260  2.6022
10212TIP3   OH252050   3.252   6.287  15.200 -0.2934 -0.5054 -0.4872
10212TIP3    H152051   3.333   6.325  15.234 -0.7444 -0.0865  0.1294
10212TIP3    H252052   3.281   6.230  15.129  0.5127 -0.0617 -0.5313
10213TIP3   OH252053   4.201   2.666   0.172  0.5416  0.2806 -0.2924
10213TIP3    H152054   4.247   2.671   0.088  0.5563  1.4758 -0.2271
10213TIP3    H252055   4.199   2.572   0.193  1.2781  0.0473 -1.2095
10214TIP3   OH252056   5.114   3.537   1.108  0.5536  0.1801  0.1131
10214TIP3    H152057   5.018   3.529   1.106  0.5254  0.4581  0.3294
10214TIP3    H252058   5.130   3.628   1.133  0.8725 -0.0886  0.9137
10215TIP3   OH252059   0.116   1.483   5.255 -0.2979  0.8270 -0.2287
10215TIP3    H152060   0.045   1.459   5.196  1.1533 -0.9279 -1.3672
10215TIP3    H252061   0.172   1.405   5.259  1.1162  1.8355  1.3165
10216TIP3   OH252062   4.888   2.506  11.808 -0.2389  0.4999 -0.0337
10216TIP3    H152063   4.976   2.542  11.814 -1.6429  4.3611  0.0548
10216TIP3    H252064   4.891   2.428  11.864  3.6784 -1.1578 -2.1330
10217TIP3   OH252065   2.246   0.419  12.146 -0.8131  0.1538 -0.0886
10217TIP3    H152066   2.207   0.338  12.113 -0.4529  0.1520 -0.5137
10217TIP3    H252067   2.319   0.437  12.086 -0.4340  0.3941  0.4423
10218TIP3   OH252068   1.838   6.261   4.454  0.5109  0.3558  0.3155
10218TIP3    H152069   1.784   6.337   4.478 -1.0361 -0.7958  0.6416
10218TIP3    H252070   1.923   6.298   4.430 -0.0232  2.1362  1.0282
10219TIP3   OH252071   0.443   4.749   2.118 -0.2156 -0.1105 -0.3808
10219TIP3    H152072   0.470   4.790   2.036  1.1826  0.8801  0.5355
10219TIP3    H252073   0.383   4.812   2.158  3.0063  1.9124  1.6946
10220TIP3   OH252074   3.629   4.550  11.498 -0.6657 -0.2379  0.3027
10220TIP3    H152075   3.682   4.528  11.421 -1.4388 -2.5908  0.3485
10220TIP3    H252076   3.574   4.624  11.469  0.8378  0.5934 -0.5371
10221TIP3   OH252077   4.926   0.653  10.849  0.1554  0.2352  0.7921
10221TIP3    H152078   4.940   0.592  10.776  1.7516  1.8878 -0.4180
10221TIP3    H252079   4.834   0.679  10.841  0.0997 -0.1917 -0.1865
10222TIP3   OH252080   5.398   0.017   5.755  0.1112  0.0185  0.1683
10222TIP3    H152081   5.429  -0.064   5.715 -2.7158 -0.8579 -0.4450
10222TIP3    H252082   5.304   0.020   5.735 -0.2631  2.4911  1.8188
10223TIP3   OH252083   5.747   6.154   3.144  0.2832  0.1935 -0.0972
10223TIP3    H152084   5.819   6.216   3.153  1.5497 -1.1162 -0.8441
10223TIP3    H252085   5.671   6.200   3.180  1.9975  0.5521  3.5336
10224TIP3   OH252086   4.706   6.096   2.872  0.1605 -0.4209  0.0911
10224TIP3    H152087   4.792   6.117   2.836  0.2516  0.0582  0.5809
10224TIP3    H252088   4.675   6.178   2.909 -0.8757 -0.3857 -0.8182
10225TIP3   OH252089   1.915   2.369   0.139 -0.3681 -0.6509  0.3317
10225TIP3    H152090   1.877   2.440   0.087 -0.6296 -1.4274 -0.5668
10225TIP3    H252091   1.918   2.404   0.228  1.6806  1.3492 -0.4327
10226TIP3   OH252092   4.828   4.445  11.174  0.0292 -0.3486  0.6204
10226TIP3    H152093   4.830   4.517  11.112 -2.2020  0.3842  1.2816
10226TIP3    H252094   4.781   4.375  11.128 -1.2473  0.0451  1.2646
10227TIP3   OH252095   1.103   2.349   3.731 -0.0939  0.1714  0.3651
10227TIP3    H152096   1.045   2.411   3.776 -0.9220 -0.3224 -0.0019
10227TIP3    H252097   1.191   2.373   3.760 -0.5200  0.6060  1.3356
10228TIP3   OH252098   0.910   4.693  13.474  0.5224  0.6479  0.1478
10228TIP3    H152099   0.854   4.639  13.418  0.3979  0.2147  0.6804
10228TIP3    H252100   0.864   4.777  13.480  0.3011  0.5412 -0.0156
10229TIP3   OH252101   6.667   1.968  12.926 -0.1042 -0.4801  0.4781
10229TIP3    H152102   6.697   2.036  12.986 -1.8701  1.1680 -0.3951
10229TIP3    H252103   6.711   1.988  12.844  1.2920 -1.9517  0.8113
10230TIP3   OH252104   2.046   5.077   1.359  1.0829 -0.3770  0.0789
10230TIP3    H152105   2.035   5.147   1.295  1.9605 -0.1978  0.1087
10230TIP3    H252106   2.140   5.062   1.362  0.8144 -2.6652 -1.0910
10231TIP3   OH252107   3.868   4.459  11.322  0.0346  0.3959  0.2704
10231TIP3    H152108   3.907   4.508  11.249  1.9594 -1.4504 -0.0399
10231TIP3    H252109   3.837   4.378  11.283 -0.6380  0.1811  1.2078
10232TIP3   OH252110   5.874   1.211   6.363 -0.0278  0.0313  1.0410
10232TIP3    H152111   5.890   1.122   6.396  1.3151  0.7471  2.4545
10232TIP3    H252112   5.960   1.252   6.363 -0.5224  1.1514 -0.2410
10233TIP3   OH252113   3.909   2.388   2.984  0.4292  0.4207  0.1543
10233TIP3    H152114   3.891   2.348   3.069 -1.6046  1.8182  0.4370
10233TIP3    H252115   3.854   2.339   2.922 -2.0332  2.5955  0.4947
10234TIP3   OH252116   2.712   5.826  17.362 -0.2159  0.3771 -0.4831
10234TIP3    H152117   2.787   5.793  17.412  0.5205  0.9285 -1.2028
10234TIP3    H252118   2.750   5.886  17.297 -0.9905 -1.2414 -2.5456
10235TIP3   OH252119   6.401   5.666   6.871  0.1254  0.3297 -0.0640
10235TIP3    H152120   6.412   5.717   6.791  1.4337 -1.2977 -0.9847
10235TIP3    H252121   6.347   5.592   6.846 -1.3026  0.9025  1.1354
10236TIP3   OH252122   5.004   3.561   2.437 -0.7594 -0.3533 -0.1237
10236TIP3    H152123   4.954   3.607   2.505 -1.4049 -1.0502 -0.1142
10236TIP3    H252124   5.087   3.609   2.432  0.0912 -1.3693  2.4755
10237TIP3   OH252125   2.564   5.290  16.319 -0.1254  0.0650 -0.1290
10237TIP3    H152126   2.537   5.223  16.255  1.0572  0.2310 -0.8238
10237TIP3    H252127   2.631   5.340  16.274  0.4874  0.4092  1.1386
10238TIP3   OH252128   3.656   2.913  12.230  0.5487 -0.2018  0.4344
10238TIP3    H152129   3.583   2.896  12.291  0.2366 -1.6594 -0.2780
10238TIP3    H252130   3.699   2.828  12.221  0.3243 -0.1450 -1.6832
10239TIP3   OH252131   0.101   5.185  13.073 -0.5355  0.4208 -0.6311
10239TIP3    H152132   0.041   5.259  13.079  0.5147  1.1831  1.8375
10239TIP3    H252133   0.045   5.108  13.082 -1.4571  0.9518 -1.6020
10240TIP3   OH252134   5.115   4.619   0.179  0.3001 -0.1286 -0.2783
10240TIP3    H152135   5.206   4.648   0.180  0.2324  0.0687  0.3949
10240TIP3    H252136   5.075   4.667   0.106 -0.0053  2.1243  1.2698
10241TIP3   OH252137   2.748   1.604  17.110 -0.6440 -0.4899  0.0852
10241TIP3    H152138   2.737   1.643  17.197 -3.2965 -1.5975  0.3420
10241TIP3    H252139   2.744   1.679  17.050 -1.5267  0.0406  0.7843
10242TIP3   OH252140   1.760   6.064  13.645  0.7832  0.0896 -0.3275
10242TIP3    H152141   1.744   6.036  13.735  0.7457 -0.0912 -0.3897
10242TIP3    H252142   1.856   6.071  13.640  0.7468  0.8561 -0.0519
10243TIP3   OH252143   5.074   5.421   1.947  0.1096  0.3439 -0.6126
10243TIP3    H152144   5.086   5.326   1.942 -0.5735  0.2175  0.0258
10243TIP3    H252145   5.084   5.442   2.040  1.0145  1.0146 -0.8449
10244TIP3   OH252146   3.781   0.217   5.352 -0.1891 -0.3140  0.1573
10244TIP3    H152147   3.819   0.305   5.349 -0.4522 -0.0585  2.3002
10244TIP3    H252148   3.686   0.232   5.345 -0.4095 -0.1483  2.5022
10245TIP3   OH252149   5.139   4.829  16.600  0.7296 -0.0732  0.2440
10245TIP3    H152150   5.057   4.823  16.650  0.5913  0.1349  0.0475
10245TIP3    H252151   5.205   4.791  16.657  0.3419 -1.0758  0.0564
10246TIP3   OH252152   3.845   1.610   5.646  0.4415 -0.1304 -0.2291
10246TIP3    H152153   3.868   1.575   5.732 -2.5840 -2.3512 -0.1893
10246TIP3    H252154   3.888   1.552   5.584  0.7898  0.1112 -0.2170
10247TIP3   OH252155   2.749   0.764  12.457  0.0643 -0.2521  0.4644
10247TIP3    H152156   2.826   0.821  12.447 -0.5375  0.4535 -0.2674
10247TIP3    H252157   2.757   0.728  12.545  2.2688 -1.7316 -0.2510
10248TIP3   OH252158   2.750   2.135  12.459 -0.4336  0.4609 -0.3139
10248TIP3    H152159   2.743   2.174  12.372 -1.5453  2.9464  0.7937
10248TIP3    H252160   2.834   2.168  12.493  0.6483 -1.5615 -0.8502
10249TIP3   OH252161   4.456   0.854   3.085 -0.6461 -0.3653  0.4785
10249TIP3    H152162   4.414   0.768   3.079 -3.0735  0.7383  0.3630
10249TIP3    H252163   4.524   0.844   3.151 -0.5013 -2.4858  0.0715
10250TIP3   OH252164   1.860   3.750   1.298 -0.4640 -0.0336  0.2638
10250TIP3    H152165   1.765   3.736   1.300 -0.3720 -0.8410 -0.4228
10250TIP3    H252166   1.871   3.830   1.247 -0.8132  0.5610  1.0938
10251TIP3   OH252167   0.183   2.692   2.286 -0.9086 -0.3974  0.1407
10251TIP3    H152168   0.217   2.675   2.198 -0.3219 -0.9641  0.4673
10251TIP3    H252169   0.174   2.788   2.289 -2.0459 -0.4414 -0.9174
10252TIP3   OH252170   4.527   5.521   6.345 -0.5620  0.0756 -0.3491
10252TIP3    H152171   4.524   5.471   6.427 -1.0061 -0.4128 -0.6534
10252TIP3    H252172   4.440   5.561   6.339  0.0654  1.6143  0.3213
10253TIP3   OH252173   5.076   1.519   3.627  0.2221  0.2188  0.1787
10253TIP3    H152174   5.100   1.432   3.596 -0.4928  0.4842 -1.1646
10253TIP3    H252175   5.080   1.512   3.723 -0.1038 -1.3626  0.0966
10254TIP3   OH252176   1.097   4.228   3.314  0.2495 -0.4960 -0.4363
10254TIP3    H152177   1.020   4.237   3.369  2.4505 -1.5656  3.1493
10254TIP3    H252178   1.092   4.138   3.279 -0.6435 -0.1597 -1.2181
10255TIP3   OH252179   6.469   2.768  14.714 -0.0540  0.7376 -0.3189
10255TIP3    H152180   6.458   2.813  14.630 -2.6760 -0.7963 -0.9242
10255TIP3    H252181   6.476   2.838  14.778 -2.0909  2.0763 -1.4171
10256TIP3   OH252182   5.929   5.858   4.233  0.5725 -0.8129 -0.5913
10256TIP3    H152183   6.025   5.864   4.236  0.6103 -1.5772  1.9402
10256TIP3    H252184   5.911   5.801   4.159  1.9157  0.9362 -2.3962
10257TIP3   OH252185   3.832   3.279  16.865 -0.0406 -0.3969  0.0113
10257TIP3    H152186   3.887   3.346  16.905 -0.2576  0.6841 -1.4010
10257TIP3    H252187   3.743   3.314  16.870 -0.1285 -0.4404 -0.9442
10258TIP3   OH252188   5.536   2.321  14.696 -0.4330  0.6863 -0.2812
10258TIP3    H152189   5.588   2.280  14.626  0.1305  0.4329  0.2695
10258TIP3    H252190   5.447   2.291  14.680 -0.3293  0.7078 -0.9465
10259TIP3   OH252191   4.648   1.546  16.333 -0.2344 -0.0482  0.5381
10259TIP3    H152192   4.605   1.628  16.356  2.2026  1.3121  0.5608
10259TIP3    H252193   4.597   1.479  16.379 -0.8633  1.6822  2.5236
10260TIP3   OH252194   2.257   0.139  10.762  0.4370  0.3592 -0.2602
10260TIP3    H152195   2.238   0.149  10.855  1.4683 -0.9964  0.1318
10260TIP3    H252196   2.351   0.119  10.759  0.1474 -1.0139 -1.4668
10261TIP3   OH252197   4.026   3.718  11.032 -0.4162 -0.2658  0.4427
10261TIP3    H152198   4.026   3.701  11.126 -1.8206 -1.4246  0.2617
10261TIP3    H252199   4.055   3.636  10.992  0.4590  0.3061 -0.1555
10262TIP3   OH252200   6.369   4.487  13.820 -0.4993  0.1900  0.2530
10262TIP3    H152201   6.336   4.574  13.844 -0.8344  0.6715 -1.7392
10262TIP3    H252202   6.463   4.498  13.811 -0.4194  0.0961  0.9481
10263TIP3   OH252203   1.779   4.954   5.736 -0.2825  0.1945 -0.6328
10263TIP3    H152204   1.866   4.918   5.756  0.7853  2.2171 -1.3420
10263TIP3    H252205   1.769   4.940   5.642 -1.7665 -2.0242 -0.2253
10264TIP3   OH252206   5.355   0.172   0.361 -0.5746 -0.4834 -0.3200
10264TIP3    H152207   5.288   0.163   0.430  0.1334  0.1169  0.4618
10264TIP3    H252208   5.404   0.090   0.365 -0.8412 -0.6519 -0.4472
10265TIP3   OH252209   0.165   3.934   4.281  0.4035  0.1652 -0.1357
10265TIP3    H152210   0.244   3.960   4.234 -0.1573  1.4531 -0.4256
10265TIP3    H252211   0.192   3.863   4.338  1.5425 -0.0863 -0.9616
10266TIP3   OH252212   2.713   4.543   4.189  0.4288  0.8484  0.5643
10266TIP3    H152213   2.683   4.596   4.262 -1.3711  0.2215  0.3238
10266TIP3    H252214   2.664   4.461   4.197  1.5848  0.0388 -0.2811
10267TIP3   OH252215   3.627   1.860  15.346  0.0910 -0.1532  0.1890
10267TIP3    H152216   3.578   1.942  15.336  1.2810  0.6098  0.4112
10267TIP3    H252217   3.650   1.858  15.439  2.4003  0.6672 -0.3105
10268TIP3   OH252218   2.199   0.608   3.608  0.1335 -0.1998 -0.3308
10268TIP3    H152219   2.169   0.613   3.517 -3.7724 -0.0197  0.7972
10268TIP3    H252220   2.247   0.525   3.612  0.3579 -0.2551 -2.4946
10269TIP3   OH252221   2.696   1.049  10.623 -0.2481  0.0178  0.7497
10269TIP3    H152222   2.623   1.066  10.563 -0.0830  0.2147  0.6018
10269TIP3    H252223   2.703   0.954  10.626  0.1182  0.0161 -0.0082
10270TIP3   OH252224   1.144   2.991  15.169  0.0147 -0.4700  0.4805
10270TIP3    H152225   1.135   3.070  15.221 -1.8716 -0.2534 -0.1058
10270TIP3    H252226   1.235   2.964  15.183  0.1827  0.7593  2.1355
10271TIP3   OH252227   0.939   6.607   1.658 -0.1603 -0.2977  0.2472
10271TIP3    H152228   0.960   6.638   1.746 -0.5838 -0.3643  0.3732
10271TIP3    H252229   0.865   6.548   1.670 -1.6304  1.3246 -0.3673
10272TIP3   OH252230   4.652   3.658  15.998 -0.0328 -0.0767  0.3401
10272TIP3    H152231   4.560   3.654  16.024 -0.5210  0.9501 -1.0984
10272TIP3    H252232   4.696   3.703  16.070 -0.9562  0.8735  0.3356
10273TIP3   OH252233   3.985   6.532   0.114  0.5104  0.3433 -0.0291
10273TIP3    H152234   4.049   6.602   0.127  0.6043  0.1399  0.6821
10273TIP3    H252235   3.954   6.511   0.202  0.0399 -0.0970 -0.2916
10274TIP3   OH252236   0.465   6.471   1.750  0.0064  0.3871  0.0055
10274TIP3    H152237   0.443   6.543   1.690 -2.2421 -0.7552 -0.6684
10274TIP3    H252238   0.448   6.506   1.837 -0.9080  0.7474 -0.3064
10275TIP3   OH252239   0.657   3.404   1.570 -0.2589  0.0008  0.0647
10275TIP3    H152240   0.627   3.342   1.505  0.7916  0.1022 -0.5358
10275TIP3    H252241   0.614   3.487   1.546  0.2739  0.0852 -0.6263
10276TIP3   OH252242   2.835   2.650   3.700  0.4679  0.0837  0.3214
10276TIP3    H152243   2.829   2.735   3.744 -1.3823 -0.8458  1.9974
10276TIP3    H252244   2.907   2.605   3.744  0.7972  0.3935  0.1062
10277TIP3   OH252245   0.391   0.965  12.759 -0.1952 -0.2436  0.7288
10277TIP3    H152246   0.481   0.949  12.787  0.6367 -0.5746 -1.8421
10277TIP3    H252247   0.389   0.938  12.667 -3.3136 -1.6353  1.0621
10278TIP3   OH252248   1.723   6.637  11.358 -0.1671  0.0436  0.3616
10278TIP3    H152249   1.680   6.557  11.329 -1.0781  0.9738 -1.0046
10278TIP3    H252250   1.794   6.650  11.294 -1.0455  1.1523 -0.4330
10279TIP3   OH252251   5.746   4.056  17.335 -0.0775  0.3746 -0.5259
10279TIP3    H152252   5.699   4.028  17.256 -3.6069  0.5560  1.3439
10279TIP3    H252253   5.720   4.147  17.348  0.8197  0.4849  0.6363
10280TIP3   OH252254   4.126   1.232   5.348 -0.1527  0.3233 -0.1886
10280TIP3    H152255   4.195   1.282   5.305 -0.0525  0.9076  0.6221
10280TIP3    H252256   4.115   1.154   5.294  1.9174 -0.3458  0.2540
10281TIP3   OH252257   0.101   0.299   1.072 -0.0568  0.5098  0.3416
10281TIP3    H152258   0.056   0.218   1.050  1.1879 -0.1051 -0.0796
10281TIP3    H252259   0.109   0.346   0.989  1.4520 -0.1400  0.0765
10282TIP3   OH252260   2.793   4.338  17.032 -0.0311  0.0254 -0.1584
10282TIP3    H152261   2.727   4.324  16.965  1.2880  0.5909 -1.6257
10282TIP3    H252262   2.866   4.380  16.987  0.3581  1.7556  1.9147
10283TIP3   OH252263   3.327   5.197   5.618 -0.5528 -0.4388 -0.4899
10283TIP3    H152264   3.310   5.258   5.690 -0.7685 -1.7415  0.5897
10283TIP3    H252265   3.301   5.246   5.539 -1.7205  0.4795  0.4271
10284TIP3   OH252266   4.761   5.137  11.270 -0.5231 -0.0162  0.3784
10284TIP3    H152267   4.740   5.179  11.353  0.6462  0.4949  0.4217
10284TIP3    H252268   4.727   5.048  11.280 -1.8952  0.5242  0.7541
10285TIP3   OH252269   3.238   4.499  11.593 -0.0868 -0.0572 -0.1361
10285TIP3    H152270   3.253   4.591  11.613  0.0253 -0.9141  5.1531
10285TIP3    H252271   3.144   4.487  11.607  0.0050 -0.8312 -0.1524
10286TIP3   OH252272   4.000   6.168   5.043  0.0068 -0.7065 -0.6939
10286TIP3    H152273   3.923   6.211   5.006 -0.9934 -0.8342  1.1336
10286TIP3    H252274   4.044   6.235   5.094  0.0140 -1.1122 -0.1525
10287TIP3   OH252275   5.691   5.635  11.809 -0.1745 -0.2675  0.1628
10287TIP3    H152276   5.692   5.663  11.901  0.9941 -1.3522  0.5017
10287TIP3    H252277   5.756   5.691  11.767 -1.3498  0.8502 -0.2234
10288TIP3   OH252278   6.352   6.107  16.155  0.4231  0.0122  0.4089
10288TIP3    H152279   6.324   6.025  16.114  0.3926 -0.0671  0.5863
10288TIP3    H252280   6.317   6.103  16.244  0.0602  0.4100  0.2883
10289TIP3   OH252281   0.386   3.373  13.780 -0.4085 -0.5860 -0.4975
10289TIP3    H152282   0.385   3.424  13.699 -1.3231 -0.1839 -0.2383
10289TIP3    H252283   0.451   3.304  13.763 -1.4005 -1.2160 -2.0010
10290TIP3   OH252284   6.366   6.165   2.468 -1.2666 -0.3982 -0.6160
10290TIP3    H152285   6.322   6.105   2.407 -0.1376 -1.1939 -0.6703
10290TIP3    H252286   6.456   6.168   2.437 -0.7701 -0.4964  0.7780
10291TIP3   OH252287   4.761   4.920  15.419 -0.0194 -0.2643 -0.2145
10291TIP3    H152288   4.836   4.878  15.462 -1.4169 -3.1805 -0.4248
10291TIP3    H252289   4.692   4.920  15.485 -0.3377  1.0175 -0.5159
10292TIP3   OH252290   6.657   2.295   3.132  0.0767  0.6263  0.2020
10292TIP3    H152291   6.716   2.255   3.069  1.3031  1.8752  0.4962
10292TIP3    H252292   6.590   2.338   3.079 -0.3637 -0.4547 -0.1485
10293TIP3   OH252293   4.049   5.083   6.603  0.3745 -0.2136  0.2612
10293TIP3    H152294   4.000   5.154   6.560  0.7808  0.2374  0.5309
10293TIP3    H252295   4.034   5.097   6.697  1.2258  0.0856  0.3574
10294TIP3   OH252296   6.742   6.322   6.108 -0.2522  0.1076 -0.0481
10294TIP3    H152297   6.708   6.336   6.020 -1.8097  1.3675  0.7016
10294TIP3    H252298   6.674   6.274   6.154 -0.7071  1.8127  1.2020
10295TIP3   OH252299   2.311   2.525   1.571  0.5280 -0.0889  0.1580
10295TIP3    H152300   2.249   2.502   1.503 -0.6865  2.0906  0.4464
10295TIP3    H252301   2.257   2.551   1.646  1.8123 -0.3163  1.2148
10296TIP3   OH252302   6.676   2.861   4.992 -0.4490 -0.6225 -0.1206
10296TIP3    H152303   6.733   2.882   5.066 -0.8524 -0.5540  0.1719
10296TIP3    H252304   6.725   2.795   4.943  0.2081 -0.0376 -0.2787
10297TIP3   OH252305   4.612   6.565   2.020  0.9412 -0.0523 -0.0285
10297TIP3    H152306   4.599   6.532   1.931  1.4738  1.2027 -0.5918
10297TIP3    H252307   4.627   6.486   2.072  2.7695 -0.7247 -1.4305
10298TIP3   OH252308   4.111   4.678  16.057 -0.0249 -0.2282 -0.4256
10298TIP3    H152309   4.055   4.708  16.129  0.0641  0.1709 -0.5172
10298TIP3    H252310   4.109   4.583  16.063  1.7969 -0.2033  1.5268
10299TIP3   OH252311   2.256   2.277  15.926  0.1412  0.3218 -0.4003
10299TIP3    H152312   2.335   2.310  15.881  0.3619 -1.4237 -1.3661
10299TIP3    H252313   2.192   2.266  15.856  0.0600 -1.2177 -0.1010
10300TIP3   OH252314   5.982   3.745  12.899  0.5594  0.1501 -0.0897
10300TIP3    H152315   5.955   3.807  12.967  1.1783  3.1372 -2.3354
10300TIP3    H252316   5.907   3.688  12.887  0.0460  0.2091  2.2876
10301TIP3   OH252317   0.449   6.517   4.269  0.4104  0.3096 -0.6132
10301TIP3    H152318   0.433   6.430   4.234 -1.4179 -0.0018  0.8197
10301TIP3    H252319   0.540   6.535   4.248  0.5653 -1.5473 -1.7616
10302TIP3   OH252320   3.852   3.414  11.838  0.7481  0.4456  0.1314
10302TIP3    H152321   3.908   3.486  11.867  2.2392 -0.3999 -0.5674
10302TIP3    H252322   3.790   3.455  11.778  0.4303  1.4354  1.0810
10303TIP3   OH252323   1.950   1.039  14.801 -0.2541 -0.1307 -0.7735
10303TIP3    H152324   1.911   0.952  14.794  0.6971 -0.4718 -2.0926
10303TIP3    H252325   1.877   1.099  14.784 -1.2232 -0.5643  1.4333
10304TIP3   OH252326   4.451   1.138   4.225  0.0569 -0.3177 -0.2250
10304TIP3    H152327   4.463   1.154   4.319  0.4564  0.9348 -0.4658
10304TIP3    H252328   4.365   1.096   4.219  0.6501 -1.7568  0.8138
10305TIP3   OH252329   3.882   0.950  12.636 -0.2756 -0.0644  0.2648
10305TIP3    H152330   3.956   0.996  12.675 -1.0320 -0.9463  2.9563
10305TIP3    H252331   3.805   0.992  12.673 -1.0269 -1.5527  0.4847
10306TIP3   OH252332   6.400   6.367  11.638 -0.1171  0.0262 -0.3128
10306TIP3    H152333   6.323   6.362  11.695  0.3496 -0.4711  0.2893
10306TIP3    H252334   6.371   6.420  11.563 -1.5156 -1.4381 -0.8736
10307TIP3   OH252335   4.947   2.930  16.638 -0.2746  0.1697  1.0105
10307TIP3    H152336   4.940   3.018  16.601  1.5431 -0.8321 -2.0462
10307TIP3    H252337   4.858   2.895  16.633 -0.3620  0.5533 -1.3903
10308TIP3   OH252338   1.641   0.504  13.039  0.3537  0.2605  0.4599
10308TIP3    H152339   1.549   0.532  13.033  0.7821  2.0699  1.5278
10308TIP3    H252340   1.658   0.500  13.133  1.6487  0.9772  0.2761
10309TIP3   OH252341   0.254   5.876   0.086 -0.3105 -0.1812  0.7196
10309TIP3    H152342   0.347   5.878   0.110 -0.0164 -0.9251 -0.3026
10309TIP3    H252343   0.209   5.906   0.165  0.8772  1.7797  0.7249
10310TIP3   OH252344   2.514   6.112   2.368 -0.3951 -0.1011  0.1939
10310TIP3    H152345   2.585   6.140   2.309 -1.5754 -0.7820 -1.6638
10310TIP3    H252346   2.552   6.114   2.455  1.0525  2.3313 -0.4138
10311TIP3   OH252347   1.225   5.466   6.775  0.4490 -0.1103  0.3780
10311TIP3    H152348   1.302   5.470   6.717  0.5105 -0.5481  0.4250
10311TIP3    H252349   1.179   5.549   6.760  0.1352 -0.4765 -0.7502
10312TIP3   OH252350   6.408   3.207   3.179  0.2052 -0.8220 -0.5232
10312TIP3    H152351   6.397   3.120   3.218  0.4136 -1.2095 -1.3315
10312TIP3    H252352   6.437   3.190   3.090 -1.3852  0.0336 -1.2424
10313TIP3   OH252353   5.862   1.360   3.326 -0.4841 -0.6207 -0.0551
10313TIP3    H152354   5.769   1.345   3.343 -0.5953  0.3625  0.2462
10313TIP3    H252355   5.907   1.316   3.398 -0.8186  0.6377  0.9633
10314TIP3   OH252356   2.405   4.930  11.187  0.0655 -0.2840 -0.0290
10314TIP3    H152357   2.464   5.002  11.162  0.0346 -0.2536 -0.0148
10314TIP3    H252358   2.380   4.950  11.277  1.3429 -1.1757  0.5420
10315TIP3   OH252359   3.633   5.975  11.896 -0.2399  0.5225  0.5688
10315TIP3    H152360   3.710   6.030  11.909 -0.9282  1.7935 -0.5151
10315TIP3    H252361   3.560   6.037  11.890 -0.8589 -0.3470 -2.2285
10316TIP3   OH252362   4.097   0.290  17.266  0.4627  0.1593  0.7538
10316TIP3    H152363   4.077   0.197  17.257  0.4401 -0.0866  2.8890
10316TIP3    H252364   4.015   0.334  17.244  0.3263 -0.3429  0.2319
10317TIP3   OH252365   5.001   5.336  14.544  0.5274 -0.0676 -0.8142
10317TIP3    H152366   5.040   5.403  14.601  1.2882  0.8391 -2.3257
10317TIP3    H252367   5.066   5.266  14.542  1.0269  0.3930 -1.4176
10318TIP3   OH252368   6.032   5.242  14.472  0.4365  0.0738 -0.3848
10318TIP3    H152369   5.970   5.310  14.497  0.5029 -0.3477  1.0125
10318TIP3    H252370   6.004   5.215  14.384  0.6128  2.0990 -1.1264
10319TIP3   OH252371   3.481   5.501  15.642 -0.5386  0.2126  0.0837
10319TIP3    H152372   3.444   5.543  15.719 -1.3454  0.5499 -0.4703
10319TIP3    H252373   3.409   5.500  15.578  1.1872  3.8237 -2.2576
10320TIP3   OH252374   6.746   5.916  14.302  0.3370 -0.2814 -0.2039
10320TIP3    H152375   6.752   6.012  14.304  0.1916 -0.2794  1.8323
10320TIP3    H252376   6.778   5.892  14.215  0.3581  1.6102 -0.7614
10321TIP3   OH252377   3.570   1.068  11.094 -0.1395 -0.0382 -0.2586
10321TIP3    H152378   3.618   1.149  11.107 -0.1433  0.0348 -0.6777
10321TIP3    H252379   3.621   1.020  11.029  0.1170 -0.5822  0.3337
10322TIP3   OH252380   4.763   1.680  13.012  0.1193  0.1837 -0.6034
10322TIP3    H152381   4.750   1.586  13.000  2.1759 -0.0071 -1.8754
10322TIP3    H252382   4.800   1.687  13.100  1.7949 -0.4783 -1.2002
10323TIP3   OH252383   4.711   2.926   2.554  0.0348 -0.1895 -0.5024
10323TIP3    H152384   4.679   3.006   2.513  0.3109  0.2562  0.1447
10323TIP3    H252385   4.648   2.908   2.624  0.6374  0.1474  0.1402
10324TIP3   OH252386   3.815   3.757  14.151  0.1004  0.0492  0.2050
10324TIP3    H152387   3.859   3.739  14.234  3.2777 -0.8785 -1.4834
10324TIP3    H252388   3.768   3.676  14.131 -0.8852  0.3642  1.1633
10325TIP3   OH252389   6.173   2.194  13.731 -0.2324  0.4924  0.8076
10325TIP3    H152390   6.265   2.212  13.752  1.4032 -1.8993 -3.1252
10325TIP3    H252391   6.145   2.269  13.678  0.0059  0.5058  0.6986
10326TIP3   OH252392   2.406   1.824  13.059  0.3990  0.6647 -0.7302
10326TIP3    H152393   2.339   1.801  13.124  1.1469 -0.1924 -0.2484
10326TIP3    H252394   2.358   1.876  12.994 -1.1716 -1.3613 -1.3183
10327TIP3   OH252395   2.541   6.240  15.020  0.1798 -0.4556  0.0866
10327TIP3    H152396   2.592   6.305  15.069  1.2444 -2.2001  1.4665
10327TIP3    H252397   2.544   6.270  14.929  0.6348  1.3848  0.6640
10328TIP3   OH252398   6.313   4.821   0.515  0.2980  0.5244  0.4485
10328TIP3    H152399   6.355   4.901   0.487  0.9249 -0.8904 -3.1487
10328TIP3    H252400   6.381   4.754   0.509 -1.1347 -0.9326 -0.5967
10329TIP3   OH252401   6.722   3.802   3.789  0.1148  0.0954  0.2847
10329TIP3    H152402   6.737   3.709   3.804 -0.3841 -0.5297 -2.5067
10329TIP3    H252403   6.796   3.830   3.736 -1.9735  0.0104 -2.9657
10330TIP3   OH252404   3.210   0.906  16.876  0.3745  0.0172 -0.4073
10330TIP3    H152405   3.227   0.914  16.782  0.1700  0.5382 -0.4082
10330TIP3    H252406   3.114   0.910  16.883  0.4204  3.3892  0.0549
10331TIP3   OH252407   2.691   2.468  12.905  0.2680 -0.1566 -0.1633
10331TIP3    H152408   2.736   2.386  12.926 -0.0963 -0.0488  1.1030
10331TIP3    H252409   2.751   2.536  12.935 -0.8271 -0.0126  1.8739
10332TIP3   OH252410   0.900   5.755  15.772  0.2620 -0.1548 -0.4258
10332TIP3    H152411   0.849   5.764  15.692  0.6030 -1.7831 -0.8725
10332TIP3    H252412   0.873   5.828  15.827 -0.0116  0.9765 -1.9958
10333TIP3   OH252413   6.235   3.128   5.185  0.5436  0.8653  0.4209
10333TIP3    H152414   6.288   3.064   5.139 -1.2872 -1.6433  1.5745
10333TIP3    H252415   6.170   3.157   5.121  0.2769  0.1774  0.3729
10334TIP3   OH252416   0.305   1.694   0.860 -0.0483  0.2850  0.3671
10334TIP3    H152417   0.324   1.689   0.766 -2.2102 -0.2272 -0.0811
10334TIP3    H252418   0.211   1.706   0.866 -0.0301 -0.1341  2.4989
10335TIP3   OH252419   0.244   4.678   4.681 -0.8499 -0.0049  0.4460
10335TIP3    H152420   0.235   4.584   4.697 -2.8782  0.0280 -0.2484
10335TIP3    H252421   0.218   4.719   4.763  1.2487 -0.0080  1.1818
10336TIP3   OH252422   1.025   4.732   1.125  0.2646 -0.1136 -1.1230
10336TIP3    H152423   1.018   4.778   1.209  1.8553  0.9702 -1.5333
10336TIP3    H252424   1.005   4.799   1.060  1.1158 -0.3824 -1.6778
10337TIP3   OH252425   2.336   0.340   4.245  0.0514  0.5494  0.2255
10337TIP3    H152426   2.272   0.399   4.286 -0.0685 -0.0121  0.8702
10337TIP3    H252427   2.418   0.389   4.246 -0.4014  1.3599 -0.8028
10338TIP3   OH252428   5.806   1.509  13.264  0.2781 -0.2240  0.2569
10338TIP3    H152429   5.821   1.599  13.236  0.9448 -0.1861  0.7150
10338TIP3    H252430   5.882   1.487  13.318  0.3692 -1.2325 -0.2564
10339TIP3   OH252431   1.841   2.759  12.540 -0.3228 -0.5042  0.0426
10339TIP3    H152432   1.815   2.672  12.571  0.3259 -1.1368 -1.0996
10339TIP3    H252433   1.807   2.763  12.451 -0.3998  0.4544  0.1078
10340TIP3   OH252434   0.664   1.983   1.961  0.3561 -0.1423  0.2552
10340TIP3    H152435   0.753   1.976   1.993  0.3260  1.0176  0.6192
10340TIP3    H252436   0.631   1.892   1.961  1.5901 -0.6099 -0.1055
10341TIP3   OH252437   0.896   4.094   2.505  0.1982  0.0257  0.6844
10341TIP3    H152438   0.811   4.137   2.495  0.4022  0.3739  0.3905
10341TIP3    H252439   0.910   4.049   2.422  0.2063 -0.2125  0.8125
10342TIP3   OH252440   4.378   1.928  15.894 -0.7558 -0.1553 -0.2245
10342TIP3    H152441   4.416   1.879  15.821 -3.9265 -2.5716 -0.4986
10342TIP3    H252442   4.398   2.019  15.876  1.4144 -0.9500 -2.2987
10343TIP3   OH252443   2.794   1.612   2.486 -0.2680  0.3686 -0.0946
10343TIP3    H152444   2.863   1.610   2.553  2.1854  0.9665 -2.4287
10343TIP3    H252445   2.784   1.705   2.466 -1.7582  0.2812  0.1235
10344TIP3   OH252446   4.518   5.179  12.943  0.5739 -0.5105 -0.2313
10344TIP3    H152447   4.459   5.254  12.955  0.2739 -1.0240  1.7528
10344TIP3    H252448   4.573   5.204  12.869  1.3441  2.2587  1.1319
10345TIP3   OH252449   0.700   1.332  15.069 -0.0658 -0.0613  0.0634
10345TIP3    H152450   0.694   1.289  14.984 -0.5908 -0.4513  0.2961
10345TIP3    H252451   0.778   1.388  15.062  1.2947 -1.8367  0.0926
10346TIP3   OH252452   5.287   3.695   3.745 -0.1978  0.1695  0.3147
10346TIP3    H152453   5.232   3.655   3.812  2.0549 -0.3254  1.9797
10346TIP3    H252454   5.272   3.789   3.754 -1.8593 -0.0075 -0.3032
10347TIP3   OH252455   5.543   4.663  14.525 -0.3830  0.0139 -0.0539
10347TIP3    H152456   5.493   4.742  14.545  0.3512  0.3306  0.5667
10347TIP3    H252457   5.628   4.678  14.565  0.4155 -0.2716 -1.5739
10348TIP3   OH252458   0.728   4.426  11.087  0.0627  0.2224  0.2781
10348TIP3    H152459   0.639   4.430  11.053 -0.5912 -0.5766  1.7997
10348TIP3    H252460   0.781   4.400  11.012 -0.9181  1.0461 -0.7326
10349TIP3   OH252461   2.129   3.681   4.507 -0.1149  0.4455  0.2154
10349TIP3    H152462   2.053   3.709   4.558 -0.4709 -0.5715  0.2496
10349TIP3    H252463   2.136   3.587   4.523  0.5076  0.3347 -0.6449
10350TIP3   OH252464   5.140   2.274   2.674  0.3167 -0.3661  0.2223
10350TIP3    H152465   5.169   2.209   2.738  1.6660  0.3497  0.3560
10350TIP3    H252466   5.210   2.278   2.610 -1.2333 -1.4633 -1.6626
10351TIP3   OH252467   2.062   5.843  13.928  0.1147 -0.3236  0.1140
10351TIP3    H152468   2.043   5.791  14.005 -0.6827 -2.0086 -1.1490
10351TIP3    H252469   2.012   5.801  13.857  0.0867  1.6884 -1.1473
10352TIP3   OH252470   5.498   1.977  14.886  0.9478  0.7421 -0.4112
10352TIP3    H152471   5.527   1.912  14.950  0.8517 -0.4574 -1.5388
10352TIP3    H252472   5.510   2.061  14.929  1.7206  0.0099  0.8411
10353TIP3   OH252473   2.596   4.538   1.231 -0.2412  0.0260 -0.6055
10353TIP3    H152474   2.515   4.548   1.180 -0.4729  1.6941  0.0259
10353TIP3    H252475   2.654   4.606   1.198  0.7779 -0.8758 -0.7473
10354TIP3   OH252476   4.762   3.313   5.017 -0.4669 -0.4882  0.0100
10354TIP3    H152477   4.826   3.367   5.063  1.2671 -2.1764 -0.2698
10354TIP3    H252478   4.688   3.307   5.077  0.2386  0.3218  1.0006
10355TIP3   OH252479   5.597   1.274  14.986 -0.0671 -0.2198 -0.1768
10355TIP3    H152480   5.584   1.368  14.998  1.1777  0.0281 -0.5936
10355TIP3    H252481   5.669   1.268  14.924  2.1199 -1.3901  2.2750
10356TIP3   OH252482   4.814   2.483  13.288 -0.3446 -0.6045  0.7500
10356TIP3    H152483   4.885   2.509  13.346  1.0759  1.1723 -1.5970
10356TIP3    H252484   4.762   2.421  13.339  2.2193 -1.0962  2.9669
10357TIP3   OH252485   5.342   0.127  14.319 -0.3062  0.1141  0.2242
10357TIP3    H152486   5.390   0.136  14.236 -0.5409 -0.4143  0.0257
10357TIP3    H252487   5.288   0.206  14.324  1.0053  1.0118  0.7411
10358TIP3   OH252488   1.442   1.207  13.936 -0.1367 -0.2532  0.0401
10358TIP3    H152489   1.416   1.295  13.911  0.9696 -0.3721 -1.6644
10358TIP3    H252490   1.455   1.161  13.853 -1.8256 -2.3966  0.8621
10359TIP3   OH252491   5.195   4.688  15.069 -0.2389  0.0083  0.3200
10359TIP3    H152492   5.239   4.644  14.997  0.7943  0.3833  0.6918
10359TIP3    H252493   5.107   4.651  15.070  0.0121 -0.6573 -0.5525
10360TIP3   OH252494   5.220   2.707   3.753 -0.0935 -0.0020  0.1183
10360TIP3    H152495   5.271   2.629   3.777  0.3570  0.3918  0.4530
10360TIP3    H252496   5.240   2.722   3.661  1.2312  0.7612  0.5048
10361TIP3   OH252497   3.311   3.973   0.981  0.3311  0.2913  0.7547
10361TIP3    H152498   3.317   4.066   0.958 -2.5533 -0.1063 -2.4757
10361TIP3    H252499   3.402   3.945   0.992  1.3239  3.3030  1.1615
10362TIP3   OH252500   3.162   4.870   1.588 -0.1663 -0.2195 -0.5313
10362TIP3    H152501   3.208   4.787   1.579  0.3938  0.0729 -0.3982
10362TIP3    H252502   3.150   4.881   1.682 -1.0914 -0.6012 -0.5900
10363TIP3   OH252503   2.636   2.468   0.103  0.6355 -0.0872  0.2418
10363TIP3    H152504   2.694   2.522   0.049 -1.5704  2.8948  0.6019
10363TIP3    H252505   2.689   2.445   0.180  1.6928  1.6531  0.0893
10364TIP3   OH252506   0.596   3.193   2.609 -0.7915  0.0356  0.2148
10364TIP3    H152507   0.520   3.234   2.651 -0.6259 -0.1189  0.6696
10364TIP3    H252508   0.601   3.105   2.647 -0.0893  0.2182  0.5788
10365TIP3   OH252509   2.101   4.754  11.879 -0.2646  0.0472  0.1043
10365TIP3    H152510   2.094   4.848  11.863  0.2143  0.4432  1.8903
10365TIP3    H252511   2.144   4.749  11.965 -0.0328 -1.8073 -0.0969
10366TIP3   OH252512   3.944   1.109   6.000  0.5597  0.9051 -0.3078
10366TIP3    H152513   3.937   1.025   5.954 -1.5405  0.3042  0.9142
10366TIP3    H252514   3.932   1.175   5.932 -0.6905  0.1055 -0.9051
10367TIP3   OH252515   2.994   1.744  13.726 -0.0716 -0.3132  0.1388
10367TIP3    H152516   2.913   1.700  13.754  0.6711 -1.2487  0.8969
10367TIP3    H252517   2.976   1.773  13.637 -0.9201 -1.3810 -0.0653
10368TIP3   OH252518   0.579   0.240  10.902 -0.5103  0.6033 -0.2457
10368TIP3    H152519   0.599   0.253  10.809  0.2404 -0.8082 -0.3210
10368TIP3    H252520   0.503   0.182  10.902 -0.5911  0.7110  0.0187
10369TIP3   OH252521   3.464   5.900   5.499 -0.1548  0.0739  0.0481
10369TIP3    H152522   3.531   5.919   5.565  0.6330  0.5017 -0.8487
10369TIP3    H252523   3.493   5.948   5.422 -1.6480  0.4657 -0.2894
10370TIP3   OH252524   6.709   2.350   2.410  0.6962 -0.5925 -0.0193
10370TIP3    H152525   6.799   2.331   2.383  0.8132  0.9205 -0.8791
10370TIP3    H252526   6.655   2.324   2.334  0.6827  0.6526 -0.4678
10371TIP3   OH252527   0.010   6.530  12.084 -0.9080 -0.3668  0.0010
10371TIP3    H152528   0.093   6.565  12.116 -1.6484  0.3992  1.1670
10371TIP3    H252529   0.028   6.505  11.993  1.1355 -2.2209  0.8508
10372TIP3   OH252530   0.988   5.186   4.422 -0.3567  0.2533  0.2766
10372TIP3    H152531   0.921   5.121   4.443 -0.4081 -0.2142 -1.2373
10372TIP3    H252532   1.071   5.143   4.443 -0.4806  0.6105  1.5729
10373TIP3   OH252533   3.934   1.158  14.186 -0.1230  0.4088  0.2354
10373TIP3    H152534   3.996   1.087  14.200 -0.5527  0.0162  0.1721
10373TIP3    H252535   3.848   1.118  14.197 -0.3622  1.2223  1.6361
10374TIP3   OH252536   1.087   3.250  12.678  0.1231 -0.4574  0.3357
10374TIP3    H152537   1.075   3.187  12.749 -0.7457  0.4215  1.0046
10374TIP3    H252538   1.175   3.233  12.645  0.1214 -1.6288  0.8727
10375TIP3   OH252539   0.628   0.305  13.837 -0.1781  0.2549 -0.4352
10375TIP3    H152540   0.604   0.324  13.747  1.1674  0.2336 -0.8235
10375TIP3    H252541   0.580   0.370  13.889  1.2478  2.1860 -1.4084
10376TIP3   OH252542   5.255   4.317   2.329 -0.0910 -0.1547 -0.1330
10376TIP3    H152543   5.341   4.340   2.362  0.2479 -1.1593 -0.2879
10376TIP3    H252544   5.259   4.338   2.235  0.4231 -1.3903 -0.3974
10377TIP3   OH252545   2.901   4.137  13.342 -0.1226  0.0678 -0.0058
10377TIP3    H152546   2.944   4.069  13.290 -0.6771  0.2754 -0.7582
10377TIP3    H252547   2.820   4.156  13.294 -0.3060  0.7710  0.5624
10378TIP3   OH252548   5.212   4.019   5.981  0.4789  0.2159  0.4892
10378TIP3    H152549   5.236   4.002   6.072  2.1593 -0.6937 -0.0785
10378TIP3    H252550   5.203   3.931   5.942  0.0436  0.5944 -0.2949
10379TIP3   OH252551   1.695   0.820   1.363  0.5649  0.1729  0.1268
10379TIP3    H152552   1.760   0.819   1.433  0.3083  2.1790  0.4397
10379TIP3    H252553   1.727   0.755   1.300  2.0040 -0.0253  1.0176
10380TIP3   OH252554   5.474   4.491  16.594  0.3083  0.0895 -0.0827
10380TIP3    H152555   5.479   4.420  16.530 -0.3825 -0.8964  0.9173
10380TIP3    H252556   5.500   4.450  16.677 -0.0562  1.0157  0.5090
10381TIP3   OH252557   2.641   4.375   5.984 -0.0634 -0.2077  0.0375
10381TIP3    H152558   2.621   4.366   5.890  1.5763 -1.2360 -0.2465
10381TIP3    H252559   2.564   4.338   6.028 -0.4609 -0.5666 -0.9194
10382TIP3   OH252560   3.566   3.363   5.412  0.2218 -0.5200 -0.1243
10382TIP3    H152561   3.519   3.287   5.377 -0.7327 -0.3854  0.7974
10382TIP3    H252562   3.599   3.334   5.497  1.8735 -0.6155 -0.7624
10383TIP3   OH252563   6.554   3.892   0.788  0.2800  0.1512 -0.0510
10383TIP3    H152564   6.522   3.814   0.834 -0.1389 -0.4008 -1.2347
10383TIP3    H252565   6.503   3.894   0.707  1.0609  1.0404 -0.5330
10384TIP3   OH252566   5.824   0.354  12.622  0.6663 -0.1881 -0.1622
10384TIP3    H152567   5.888   0.356  12.692  0.7280  1.6117 -0.2186
10384TIP3    H252568   5.874   0.328  12.544  1.6506  2.3197 -0.4485
10385TIP3   OH252569   1.177   2.580  15.952 -0.2246 -0.8339  0.0677
10385TIP3    H152570   1.191   2.675  15.954  2.1656 -1.0746 -1.4804
10385TIP3    H252571   1.083   2.569  15.966 -0.5474  1.7397  0.3493
10386TIP3   OH252572   4.494   4.736  11.086 -0.1174  0.0235 -0.3649
10386TIP3    H152573   4.448   4.767  11.008 -0.2001  1.6642  0.3132
10386TIP3    H252574   4.585   4.729  11.058  0.0509  1.7169 -0.3204
10387TIP3   OH252575   0.189   6.196   3.312  0.7883  0.1595 -0.3114
10387TIP3    H152576   0.110   6.173   3.361  0.3665 -0.6895 -1.3180
10387TIP3    H252577   0.221   6.276   3.352 -1.0169  0.9516 -0.3417
10388TIP3   OH252578   0.469   1.428  14.773 -0.1773  0.8453  0.1093
10388TIP3    H152579   0.382   1.430  14.734 -0.6217 -1.4398  0.8214
10388TIP3    H252580   0.480   1.515  14.812 -2.5018  0.9192  0.7383
10389TIP3   OH252581   5.357   3.371  14.213  0.2081 -0.5314  0.2156
10389TIP3    H152582   5.421   3.302  14.231 -0.1810 -0.1986  3.5914
10389TIP3    H252583   5.288   3.328  14.163  1.4044 -1.7634 -0.4426
10390TIP3   OH252584   5.107   4.763   3.370  0.0519 -0.1238 -0.7733
10390TIP3    H152585   5.112   4.723   3.283  1.6670  0.1856 -0.8490
10390TIP3    H252586   5.084   4.690   3.428  2.2057 -1.0854 -1.0143
10391TIP3   OH252587   6.334   3.354  14.533  0.3517  0.4304 -0.0916
10391TIP3    H152588   6.368   3.289  14.471 -0.7733 -0.6439  0.3782
10391TIP3    H252589   6.412   3.389  14.575  0.9962 -0.6468 -0.3356
10392TIP3   OH252590   4.568   4.715   3.908 -0.2496 -0.5521 -0.3703
10392TIP3    H152591   4.480   4.751   3.897  0.7710  1.8800 -1.1313
10392TIP3    H252592   4.598   4.696   3.819  0.3004 -0.6213 -0.1764
10393TIP3   OH252593   5.833   2.913  16.831 -0.6175 -0.0855  0.2421
10393TIP3    H152594   5.806   2.833  16.875  0.4526 -0.3666  0.4251
10393TIP3    H252595   5.765   2.977  16.852  0.0227 -0.0956  2.6221
10394TIP3   OH252596   2.930   1.334  14.799  0.3322  1.0971 -0.1469
10394TIP3    H152597   2.963   1.306  14.714  1.5534 -0.0120  0.6616
10394TIP3    H252598   2.886   1.417  14.782  0.6366  0.9322 -1.8345
10395TIP3   OH252599   1.838   4.542  11.620 -0.0207  0.0959 -0.6209
10395TIP3    H152600   1.928   4.565  11.644  0.2814 -0.8907 -0.7896
10395TIP3    H252601   1.847   4.473  11.555 -0.9123 -1.6211  1.0080
10396TIP3   OH252602   3.238   3.291   5.293  0.4484  0.5785 -0.4986
10396TIP3    H152603   3.159   3.311   5.242  0.5382 -0.1331 -0.9286
10396TIP3    H252604   3.300   3.257   5.228  0.5486 -0.3840  0.0862
10397TIP3   OH252605   3.956   1.820  14.397  0.7110 -0.1456 -0.2179
10397TIP3    H152606   3.955   1.862  14.312  0.0476  0.4686  0.0869
10397TIP3    H252607   3.977   1.728  14.378 -2.5479 -0.7553 -1.3964
10398TIP3   OH252608   0.649   2.263   0.378 -0.2252 -0.0021  0.2297
10398TIP3    H152609   0.640   2.326   0.306 -0.1297 -0.0559  0.1700
10398TIP3    H252610   0.696   2.189   0.339  1.3645  0.6807  0.7793
10399TIP3   OH252611   5.365   3.036  13.030 -0.6647 -0.0540  0.5790
10399TIP3    H152612   5.430   3.106  13.034  0.2839 -0.8617 -0.4816
10399TIP3    H252613   5.394   2.979  12.959 -1.2942 -1.6658  1.5618
10400TIP3   OH252614   6.649   3.839  14.643  0.2313  0.3323 -0.6341
10400TIP3    H152615   6.625   3.873  14.557  1.1099 -0.4487 -1.2076
10400TIP3    H252616   6.601   3.756  14.650 -0.8849  1.0118  0.2137
10401TIP3   OH252617   4.489   3.649  14.490 -0.0720 -0.0321  0.2810
10401TIP3    H152618   4.567   3.680  14.536  1.4255 -1.6264 -1.0899
10401TIP3    H252619   4.469   3.565  14.532 -1.3152  0.5264  0.8646
10402TIP3   OH252620   2.368   2.964  13.903 -1.4186 -0.0465 -0.0243
10402TIP3    H152621   2.382   3.022  13.828  3.5434 -2.1033 -1.0548
10402TIP3    H252622   2.418   3.004  13.974  0.3986 -1.8777 -0.1875
10403TIP3   OH252623   2.474   6.546   4.550  0.5085  0.1291 -0.1378
10403TIP3    H152624   2.537   6.613   4.578  1.4088  1.4737 -4.5499
10403TIP3    H252625   2.529   6.471   4.527  0.3763  0.5016 -1.8396
10404TIP3   OH252626   3.113   2.003   0.442  0.5049 -0.4612 -0.0650
10404TIP3    H152627   3.036   2.052   0.412  0.7407 -0.8008 -1.2595
10404TIP3    H252628   3.162   1.984   0.362  2.5053  0.8562  0.7815
10405TIP3   OH252629   3.641   3.195   2.196 -0.2233  0.0551 -0.7031
10405TIP3    H152630   3.632   3.290   2.193  0.4976  0.2270  1.0571
10405TIP3    H252631   3.657   3.175   2.288  1.4831 -1.5973 -1.2796
10406TIP3   OH252632   1.274   0.866  11.151  0.0782 -0.1074 -0.4263
10406TIP3    H152633   1.298   0.940  11.095 -1.0866  1.3276  0.8649
10406TIP3    H252634   1.215   0.813  11.098 -1.8960  1.8166 -0.3008
10407TIP3   OH252635   1.347   0.646  15.677  0.4818 -0.2424 -0.2019
10407TIP3    H152636   1.304   0.577  15.726 -0.0712 -0.4431 -0.9413
10407TIP3    H252637   1.430   0.661  15.723 -0.3898  0.1917  1.2944
10408TIP3   OH252638   1.442   1.209   5.384  0.0876 -0.1204  0.0179
10408TIP3    H152639   1.405   1.260   5.312  0.4137  0.1799  0.0606
10408TIP3    H252640   1.415   1.119   5.366 -0.6089  0.0862  0.0189
10409TIP3   OH252641   0.460   0.356  13.611  0.0551  0.0351  0.2823
10409TIP3    H152642   0.398   0.415  13.568  0.1960 -0.0597 -0.0542
10409TIP3    H252643   0.412   0.274  13.623 -0.9560  0.8981  2.9097
10410TIP3   OH252644   5.505   4.929   2.960 -0.2433 -0.1842 -0.1463
10410TIP3    H152645   5.505   4.904   2.868 -0.6777  1.1053 -0.5064
10410TIP3    H252646   5.575   4.993   2.967  0.2175 -0.7478  0.5693
10411TIP3   OH252647   2.400   3.247  12.863 -0.2096 -0.6463 -0.2758
10411TIP3    H152648   2.381   3.159  12.829 -1.6510  0.5613 -2.8264
10411TIP3    H252649   2.484   3.270  12.825 -1.0302  0.0261 -1.7890
10412TIP3   OH252650   4.996   5.178  12.440 -0.9689  0.0069  0.1716
10412TIP3    H152651   5.010   5.138  12.526 -0.0662  0.5292  0.2804
10412TIP3    H252652   5.045   5.260  12.444  1.2247 -1.1046 -1.6880
10413TIP3   OH252653   5.940   3.580   3.195 -0.1899  0.1553 -0.2195
10413TIP3    H152654   5.898   3.583   3.281 -0.1463  0.2404 -0.2004
10413TIP3    H252655   5.875   3.615   3.135 -0.5544 -0.7438 -0.3618
10414TIP3   OH252656   1.532   4.190   4.235  0.1439  0.5080 -0.3205
10414TIP3    H152657   1.573   4.271   4.267  1.2420 -0.8138  1.8812
10414TIP3    H252658   1.580   4.168   4.156  2.0985  0.3352  0.8449
10415TIP3   OH252659   1.402   6.685  13.994 -0.5432 -0.0753  0.0363
10415TIP3    H152660   1.374   6.753  14.056  1.1725  2.2134 -1.5509
10415TIP3    H252661   1.425   6.733  13.915  1.7129 -2.4223 -0.8465
10416TIP3   OH252662   2.874   5.080   4.041  0.1328  0.0502 -0.1037
10416TIP3    H152663   2.930   5.003   4.046  1.1116  0.5852 -1.9284
10416TIP3    H252664   2.869   5.100   3.947 -3.0743  0.0823 -0.0239
10417TIP3   OH252665   4.911   6.418  17.185  0.0120  0.0168 -0.0278
10417TIP3    H152666   4.865   6.425  17.268 -0.0612  0.3264 -0.0945
10417TIP3    H252667   4.937   6.326  17.179  1.7589  0.3735  1.2635
10418TIP3   OH252668   6.138   1.001   1.319  0.1853 -0.5701 -0.6194
10418TIP3    H152669   6.200   0.985   1.249 -0.9227  0.5447 -1.8986
10418TIP3    H252670   6.069   0.935   1.305 -0.2738 -0.0406 -0.8859
10419TIP3   OH252671   4.975   3.832  15.535  0.0325  0.4720 -0.4600
10419TIP3    H152672   5.062   3.864  15.556  0.5985 -1.2557 -0.0352
10419TIP3    H252673   4.915   3.893  15.579  0.9893  1.8563 -1.0278
10420TIP3   OH252674   3.411   5.021  17.187  0.5722 -0.2292 -0.6045
10420TIP3    H152675   3.459   5.085  17.240 -1.4052  1.4449 -0.6717
10420TIP3    H252676   3.441   4.936  17.218  1.9388  0.7132  0.8299
10421TIP3   OH252677   2.961   6.600   0.562 -0.9051  0.3569 -0.0451
10421TIP3    H152678   3.035   6.617   0.503  2.5096  1.0644  3.9245
10421TIP3    H252679   2.932   6.512   0.540  3.0162 -1.0807 -0.2312
10422TIP3   OH252680   5.215   5.799   2.639 -0.3011 -0.0995  0.0955
10422TIP3    H152681   5.200   5.735   2.708 -2.2360  2.4542  2.2533
10422TIP3    H252682   5.252   5.875   2.685 -5.1694  3.1916 -0.6985
10423TIP3   OH252683   0.300   4.420   3.160  0.0038 -0.0061  0.0890
10423TIP3    H152684   0.350   4.339   3.156 -0.6908 -0.4645  0.6036
10423TIP3    H252685   0.298   4.451   3.069  2.2906  0.7068  0.2048
10424TIP3   OH252686   5.445   5.656  15.130 -0.5418  0.0484  0.2940
10424TIP3    H152687   5.489   5.726  15.082 -0.9049  0.4043  0.4705
10424TIP3    H252688   5.516   5.600  15.162 -0.3307 -2.1075 -3.4079
10425TIP3   OH252689   5.982   2.612  14.112  0.1918 -0.1719 -0.0746
10425TIP3    H152690   6.006   2.685  14.169  0.9621 -0.6130  0.1803
10425TIP3    H252691   5.909   2.645  14.059 -1.8406 -0.3072  2.4273
10426TIP3   OH252692   4.388   2.827  14.473 -0.0813 -0.1906 -0.9880
10426TIP3    H152693   4.410   2.873  14.392 -0.7527  0.0450 -1.0495
10426TIP3    H252694   4.460   2.766  14.487 -0.7606 -1.4516 -2.6723
10427TIP3   OH252695   4.735   0.648  13.055 -0.0857 -0.1551 -0.4167
10427TIP3    H152696   4.742   0.667  13.149 -0.7111  1.4865 -0.6738
10427TIP3    H252697   4.824   0.625  13.029  0.2200 -0.0028  0.4603
10428TIP3   OH252698   5.932   0.431  11.307 -0.9908 -0.2348  0.1130
10428TIP3    H152699   5.898   0.467  11.388 -1.6447 -2.6214  0.9949
10428TIP3    H252700   5.903   0.339  11.307 -1.6323 -0.1798 -3.1413
10429TIP3   OH252701   4.816   0.492   2.178 -0.0262 -0.5461 -0.2127
10429TIP3    H152702   4.810   0.403   2.215 -1.9006 -0.8999 -1.2660
10429TIP3    H252703   4.910   0.506   2.166  0.2529 -3.1894 -1.8371
10430TIP3   OH252704   6.544   3.310  15.283 -0.2677 -0.4541  0.3720
10430TIP3    H152705   6.605   3.381  15.264 -0.2579 -0.4476  0.4273
10430TIP3    H252706   6.482   3.347  15.345 -0.1711 -0.5389  0.5201
10431TIP3   OH252707   3.526   4.327  17.110  0.2796 -0.0487  0.4485
10431TIP3    H152708   3.435   4.358  17.114  0.4414  0.3642  1.0053
10431TIP3    H252709   3.573   4.384  17.170  0.5331 -1.6029  1.7961
10432TIP3   OH252710   0.628   1.631  11.896  0.0633  0.5295  0.1087
10432TIP3    H152711   0.678   1.686  11.835  0.0669 -0.7604 -1.0810
10432TIP3    H252712   0.694   1.597  11.956  0.4205 -0.0421 -0.5925
10433TIP3   OH252713   6.022   3.769   0.979 -0.1595 -0.2293 -0.1707
10433TIP3    H152714   6.111   3.771   1.014 -0.1640  2.6574 -0.0167
10433TIP3    H252715   6.032   3.796   0.888 -0.8872  0.6199 -0.0138
10434TIP3   OH252716   6.313   2.038  15.479  0.2501  0.1403  1.0031
10434TIP3    H152717   6.254   2.054  15.553 -0.3282 -3.8218  1.6190
10434TIP3    H252718   6.395   2.011  15.520  0.8783  0.7141  0.1486
10435TIP3   OH252719   3.877   1.838  15.171  0.3570 -0.1729  0.6231
10435TIP3    H152720   3.920   1.761  15.207 -0.2937 -1.7700 -1.7897
10435TIP3    H252721   3.795   1.845  15.220  0.3493 -1.1433  0.7600
10436TIP3   OH252722   0.103   3.698  15.976 -0.1731 -0.0558 -0.1069
10436TIP3    H152723   0.059   3.613  15.976  0.5584 -0.4958  2.0715
10436TIP3    H252724   0.186   3.682  16.020  0.9052  1.3922 -1.4925
10437TIP3   OH252725   3.640   3.582  12.884 -0.0250  0.2180 -0.2190
10437TIP3    H152726   3.572   3.649  12.896 -1.9490 -1.8725  1.3404
10437TIP3    H252727   3.676   3.570  12.972  0.2069 -0.8690 -0.4555
10438TIP3   OH252728   3.749   3.763   2.677  0.2174  0.1064 -0.1974
10438TIP3    H152729   3.832   3.771   2.723  0.0696 -0.6130  0.2129
10438TIP3    H252730   3.757   3.683   2.626 -0.4026 -0.2602  0.2517
10439TIP3   OH252731   3.255   5.241  15.398  0.0632  0.2204 -0.3553
10439TIP3    H152732   3.231   5.257  15.307  1.5016 -0.0008 -0.8078
10439TIP3    H252733   3.348   5.264  15.402 -0.4765  2.5541  1.6417
10440TIP3   OH252734   4.701   5.801   1.496  0.4834  0.4326 -0.0415
10440TIP3    H152735   4.617   5.765   1.469  0.5614  0.0931  0.1592
10440TIP3    H252736   4.765   5.760   1.438  0.8034 -1.2711  1.4264
10441TIP3   OH252737   3.558   4.229   0.473  0.9392  0.1886 -0.2032
10441TIP3    H152738   3.630   4.234   0.410  0.7640 -1.6973 -0.6191
10441TIP3    H252739   3.483   4.267   0.427  1.7206  2.5960  0.3981
10442TIP3   OH252740   4.083   4.363   4.624  0.3629  0.0565  0.4510
10442TIP3    H152741   4.125   4.290   4.579  1.1111  0.0860  1.0784
10442TIP3    H252742   4.115   4.441   4.579 -0.7154  0.0063 -0.4514
10443TIP3   OH252743   6.483   4.275  16.192  0.6624 -0.6094 -0.0410
10443TIP3    H152744   6.416   4.237  16.249  1.6906 -2.7746 -0.1640
10443TIP3    H252745   6.495   4.364  16.225 -1.1403 -0.6879  0.9556
10444TIP3   OH252746   3.322   5.597  14.743 -0.8667 -0.0876  0.2681
10444TIP3    H152747   3.260   5.528  14.720  0.7586 -1.0185 -1.6338
10444TIP3    H252748   3.339   5.643  14.660 -0.4260  1.3422  1.1176
10445TIP3   OH252749   0.443   2.057  12.684  0.5909  0.1412 -0.0409
10445TIP3    H152750   0.352   2.026  12.688  0.5897  0.1206 -0.2339
10445TIP3    H252751   0.493   1.989  12.729  0.5723 -0.0804 -0.3530
10446TIP3   OH252752   2.329   4.579  12.540 -0.0009 -0.2983 -0.0604
10446TIP3    H152753   2.355   4.670  12.529  2.0297 -1.0168 -1.6434
10446TIP3    H252754   2.311   4.571  12.634  1.5751  1.2944  0.4353
10447TIP3   OH252755   6.113   6.374   2.295 -0.4518 -0.1864 -0.0318
10447TIP3    H152756   6.078   6.287   2.311 -0.4300 -0.0090  1.0182
10447TIP3    H252757   6.049   6.434   2.332 -0.8966  0.3003 -1.5119
10448TIP3   OH252758   2.954   5.038   3.124 -0.1586 -0.4899 -0.3024
10448TIP3    H152759   2.931   5.129   3.104  1.5221  0.2364  0.8456
10448TIP3    H252760   2.928   5.026   3.215 -1.7686 -1.7025 -0.8624
10449TIP3   OH252761   3.523   2.792   3.212  0.4609 -0.3450  0.5715
10449TIP3    H152762   3.559   2.801   3.124  0.5418 -0.1913  0.6187
10449TIP3    H252763   3.591   2.831   3.269  0.6615 -0.9497  0.7505
10450TIP3   OH252764   0.098   6.583   1.878 -0.1987 -0.4876 -0.1255
10450TIP3    H152765   0.007   6.600   1.903 -0.6886 -2.9438 -0.0085
10450TIP3    H252766   0.094   6.568   1.783  0.6222  2.3235 -0.6864
10451TIP3   OH252767   3.134   1.005  11.271 -0.0833 -0.1293  0.3466
10451TIP3    H152768   3.133   1.084  11.217 -1.2399 -0.1883  0.2677
10451TIP3    H252769   3.202   0.950  11.231  1.6966  1.3370  1.2035
10452TIP3   OH252770   5.688   5.708  12.083  0.4020  0.2098  0.3620
10452TIP3    H152771   5.686   5.692  12.178  1.7716  2.3857  0.8454
10452TIP3    H252772   5.609   5.758  12.065  0.9897  1.3036  0.7247
10453TIP3   OH252773   4.791   6.462   6.283 -1.1477  0.0535 -0.3142
10453TIP3    H152774   4.804   6.373   6.316  0.9919  0.6747  0.7573
10453TIP3    H252775   4.774   6.514   6.362  0.4428  1.0029 -0.5567
10454TIP3   OH252776   6.463   4.933   4.598  0.2390  0.4612 -0.0472
10454TIP3    H152777   6.558   4.944   4.600  0.3313 -0.2179 -0.5762
10454TIP3    H252778   6.449   4.845   4.565 -0.5782  0.4940  0.1784
10455TIP3   OH252779   4.804   1.318   2.191  0.2114  0.4135  0.1219
10455TIP3    H152780   4.891   1.286   2.166 -0.2104 -0.7623  0.1113
10455TIP3    H252781   4.816   1.351   2.280  0.5689 -0.2312  0.3235
10456TIP3   OH252782   3.648   4.661   0.520  0.6871  0.3106 -0.2470
10456TIP3    H152783   3.718   4.621   0.572 -1.7199 -0.3446  2.7404
10456TIP3    H252784   3.656   4.755   0.536  0.5153  0.1837  0.6270
10457TIP3   OH252785   1.323   1.194  11.834  0.0289 -0.1220  0.1373
10457TIP3    H152786   1.321   1.122  11.897 -1.3421  0.2056  0.4985
10457TIP3    H252787   1.319   1.151  11.748 -2.5829 -0.5053  0.3517
10458TIP3   OH252788   6.679   0.068  13.002  0.8744  0.3625  0.1740
10458TIP3    H152789   6.704   0.146  13.052 -1.9382  0.3567  1.8496
10458TIP3    H252790   6.651   0.005  13.068  0.7674 -1.1766 -1.2685
10459TIP3   OH252791   1.383   4.363  16.668 -0.5622 -0.5176 -0.2906
10459TIP3    H152792   1.380   4.436  16.606 -2.0088 -1.7159 -1.7200
10459TIP3    H252793   1.302   4.370  16.718  0.0496 -0.2475  0.7001
10460TIP3   OH252794   0.197   5.648   0.878  0.2078 -0.0651  0.0762
10460TIP3    H152795   0.110   5.685   0.863 -0.3300 -1.2371  0.1886
10460TIP3    H252796   0.180   5.566   0.925  1.4452  0.2997  1.2154
10461TIP3   OH252797   5.826   6.730  13.033  0.8686 -0.3613  0.6504
10461TIP3    H152798   5.841   6.639  13.007 -1.6270 -0.4736 -0.6080
10461TIP3    H252799   5.757   6.725  13.099  0.9955  0.6041  0.8698
10462TIP3   OH252800   2.958   0.716  13.458  0.1002  0.3441 -0.5035
10462TIP3    H152801   2.991   0.770  13.530 -1.0627 -1.8970  1.8534
10462TIP3    H252802   2.866   0.739  13.451 -1.4018 -3.4646  2.9545
10463TIP3   OH252803   4.765   5.847   4.743 -0.0500  0.5742  0.1631
10463TIP3    H152804   4.691   5.908   4.741 -0.7813 -0.2990 -0.3305
10463TIP3    H252805   4.769   5.812   4.654  0.1120 -0.3749  0.5288
10464TIP3   OH252806   0.622   5.287  11.609  0.0090  0.3023 -0.2303
10464TIP3    H152807   0.618   5.347  11.534 -1.0512 -0.4111 -0.7571
10464TIP3    H252808   0.556   5.220  11.591 -0.7131  0.4369  1.6158
10465TIP3   OH252809   3.094   1.154   4.240 -0.1109 -0.2791  0.5151
10465TIP3    H152810   3.033   1.122   4.174 -0.0293  0.7322 -0.0649
10465TIP3    H252811   3.149   1.078   4.261 -0.1486 -0.6128 -0.5620
10466TIP3   OH252812   6.651   4.840   6.464 -0.5640  0.2071 -0.6864
10466TIP3    H152813   6.708   4.785   6.518 -1.7922 -0.5835 -0.1459
10466TIP3    H252814   6.604   4.778   6.407 -2.1088  0.6220  0.0616
10467TIP3   OH252815   4.674   0.830  11.386  0.1919  0.2599  0.0648
10467TIP3    H152816   4.752   0.886  11.383 -0.0341  0.5279 -2.4778
10467TIP3    H252817   4.653   0.813  11.294 -2.0204 -0.8597  0.7212
10468TIP3   OH252818   0.048   4.321   5.877  0.3827  0.3594  0.0133
10468TIP3    H152819   0.073   4.237   5.839  0.0782  0.3319 -0.1307
10468TIP3    H252820  -0.045   4.312   5.896  0.6804  0.1048  1.4786
10469TIP3   OH252821   1.362   5.929  15.619 -0.2067 -0.1603 -0.8229
10469TIP3    H152822   1.423   5.877  15.671 -0.6205  0.3768  0.2411
10469TIP3    H252823   1.342   6.005  15.674 -0.7891  0.3530 -1.7082
10470TIP3   OH252824   5.558   0.825   2.804  0.2092 -0.0064  0.7126
10470TIP3    H152825   5.468   0.794   2.819  1.2559 -2.3849  2.8122
10470TIP3    H252826   5.582   0.787   2.719 -0.9796  1.3244 -0.2648
10471TIP3   OH252827   0.376   5.325   5.487  0.4019 -0.4491 -0.0018
10471TIP3    H152828   0.413   5.254   5.540 -0.3715 -0.4826  0.5172
10471TIP3    H252829   0.301   5.285   5.442  0.5312 -0.1976 -0.4466
10472TIP3   OH252830   0.899   1.861   2.107  0.2096  0.1735 -0.0973
10472TIP3    H152831   0.887   1.779   2.060  0.8704  0.5007 -0.8701
10472TIP3    H252832   0.988   1.889   2.084 -0.0375  1.1454  0.0640
10473TIP3   OH252833   5.973   5.135  15.175 -0.1748  0.5582 -0.6204
10473TIP3    H152834   6.068   5.123  15.178  0.0373  2.0867  2.0883
10473TIP3    H252835   5.939   5.064  15.229 -0.1507  2.2642  1.8214
10474TIP3   OH252836   4.860   3.456   1.119  0.6642  0.2879 -0.4064
10474TIP3    H152837   4.872   3.361   1.117 -0.1191 -0.0080  2.7441
10474TIP3    H252838   4.776   3.472   1.076  0.3408 -0.5720 -0.0977
10475TIP3   OH252839   5.637   2.434   2.085 -0.4933 -0.0689  0.5581
10475TIP3    H152840   5.544   2.437   2.108 -0.3604 -0.2704  1.1370
10475TIP3    H252841   5.669   2.522   2.104 -0.5614 -0.0009  0.3636
10476TIP3   OH252842   1.588   5.029   4.875 -0.2325  0.2921 -0.3862
10476TIP3    H152843   1.606   5.123   4.877  1.1637  0.0386  0.1932
10476TIP3    H252844   1.595   5.004   4.783 -1.6481  0.9251 -0.6834
10477TIP3   OH252845   3.359   1.527  17.186  0.0710 -0.1188  0.3588
10477TIP3    H152846   3.281   1.581  17.201 -1.3204 -1.9942  0.2960
10477TIP3    H252847   3.354   1.460  17.254  2.4786  0.5445  1.2821
10478TIP3   OH252848   3.713   1.917  12.706 -0.6373  0.6197  0.1199
10478TIP3    H152849   3.665   1.876  12.778 -0.5518 -0.2995 -0.3321
10478TIP3    H252850   3.649   1.972  12.662 -0.7555  0.9871  0.7352
10479TIP3   OH252851   0.789   5.997   3.114  1.0313 -0.3211 -0.2166
10479TIP3    H152852   0.710   6.051   3.112  0.6483 -0.9013 -0.9252
10479TIP3    H252853   0.806   5.984   3.208  0.2784 -0.2129 -0.0589
10480TIP3   OH252854   4.410   5.491  15.002  0.4747  0.1252 -0.4090
10480TIP3    H152855   4.505   5.490  15.014  0.2313 -0.2147  1.9938
10480TIP3    H252856   4.390   5.581  14.975  1.3252  0.6864  0.7831
10481TIP3   OH252857   6.088   3.295   2.480  0.6640 -0.0314  0.3271
10481TIP3    H152858   6.031   3.259   2.413  0.8636 -0.4872  0.4026
10481TIP3    H252859   6.066   3.247   2.560  1.7264 -0.7959  0.1783
10482TIP3   OH252860   2.542   3.958   4.702  0.3763  0.1745 -0.9582
10482TIP3    H152861   2.543   4.031   4.640  0.2549 -0.5259 -1.8224
10482TIP3    H252862   2.469   3.903   4.673  1.3277 -1.0043 -1.2137
10483TIP3   OH252863   1.677   2.367  12.946  0.4929  0.7451  0.0030
10483TIP3    H152864   1.590   2.406  12.940  1.6449  3.5720 -0.2464
10483TIP3    H252865   1.666   2.291  13.003 -2.3887  0.0364 -1.3371
10484TIP3   OH252866   4.460   0.696  13.398 -0.1865 -0.1299  0.4862
10484TIP3    H152867   4.547   0.687  13.437  0.3149 -1.5486 -0.8375
10484TIP3    H252868   4.464   0.641  13.320 -2.8953 -1.8411  1.4221
10485TIP3   OH252869   4.357   2.703  11.354 -0.2307 -0.0350 -0.0021
10485TIP3    H152870   4.423   2.694  11.422  1.0701  0.0767 -1.2206
10485TIP3    H252871   4.367   2.625  11.299 -3.0300 -1.4984  1.3388
10486TIP3   OH252872   0.962   4.080  17.180 -0.1436  0.0912  0.1143
10486TIP3    H152873   0.922   4.006  17.134 -3.3809  2.4921 -1.3255
10486TIP3    H252874   0.936   4.069  17.271 -0.2169 -0.7333  0.0063
10487TIP3   OH252875   1.658   2.373  12.282 -0.5436  0.1308  0.3528
10487TIP3    H152876   1.697   2.378  12.369 -0.9387 -0.8276  0.5884
10487TIP3    H252877   1.723   2.415  12.225 -0.7953  1.8320  1.2561
10488TIP3   OH252878   0.274   4.394   4.110  0.0479 -0.0435 -0.3577
10488TIP3    H152879   0.183   4.375   4.132  0.1751 -0.5310 -0.2441
10488TIP3    H252880   0.295   4.472   4.161 -0.0989 -0.3228  0.1290
10489TIP3   OH252881   6.048   5.080  16.788 -0.3774  0.6292  0.1603
10489TIP3    H152882   6.041   5.091  16.883 -2.7313 -0.5502  0.2031
10489TIP3    H252883   6.104   5.003  16.778  0.2623  1.0327  0.5607
10490TIP3   OH252884   3.196   5.307  13.907  0.3399  0.1776 -0.2718
10490TIP3    H152885   3.275   5.334  13.955  0.7674  0.4840 -1.1220
10490TIP3    H252886   3.229   5.257  13.832 -0.3050 -0.1433 -0.3465
10491TIP3   OH252887   0.350   3.589   0.952  0.2014 -0.1543  0.3148
10491TIP3    H152888   0.440   3.590   0.919  0.7050 -0.8733  1.6233
10491TIP3    H252889   0.324   3.681   0.951  0.0425 -0.1366 -2.3669
10492TIP3   OH252890   0.618   4.024  15.958  0.5840 -0.0316  0.1321
10492TIP3    H152891   0.610   3.973  15.877  0.5989  0.6729 -0.3258
10492TIP3    H252892   0.655   4.108  15.930  0.4788  0.2671  0.8551
10493TIP3   OH252893   5.580   5.248   5.312 -0.3521  0.0636 -0.3238
10493TIP3    H152894   5.534   5.250   5.228 -0.8749  1.1647 -0.0424
10493TIP3    H252895   5.546   5.324   5.359  0.3695 -0.1957  0.6554
10494TIP3   OH252896   2.202   4.568  14.799  0.0617 -0.6707 -0.1650
10494TIP3    H152897   2.213   4.492  14.743 -1.7307 -0.2053 -1.2399
10494TIP3    H252898   2.148   4.537  14.871 -0.8864 -0.4073 -0.7350
10495TIP3   OH252899   3.560   1.756  12.196  0.2477 -0.3434  0.4162
10495TIP3    H152900   3.565   1.705  12.116  1.1289  1.1361 -0.5273
10495TIP3    H252901   3.482   1.811  12.184  0.5986  0.1547  0.3837
10496TIP3   OH252902   0.074   3.004   6.115  0.4637 -0.3043 -0.2192
10496TIP3    H152903  -0.016   2.971   6.122  0.2517  0.2066 -0.4249
10496TIP3    H252904   0.093   3.041   6.201  0.6268 -0.7704 -0.0519
10497TIP3   OH252905   4.360   2.154   5.935  0.1180 -0.1890  0.5736
10497TIP3    H152906   4.400   2.067   5.940  1.3161  0.3398  0.3836
10497TIP3    H252907   4.429   2.214   5.962 -0.1345  0.8528 -1.0119
10498TIP3   OH252908   4.538   3.224   4.254  0.4161 -0.0700  0.3797
10498TIP3    H152909   4.523   3.286   4.326  0.3165  1.1368 -0.6512
10498TIP3    H252910   4.572   3.278   4.183  0.9314 -1.3155 -0.3493
10499TIP3   OH252911   5.703   0.727   0.222  0.5763 -0.2494  0.8371
10499TIP3    H152912   5.765   0.798   0.208 -2.5893  2.7380  0.5045
10499TIP3    H252913   5.692   0.686   0.136  0.3447  0.8062  0.3481
10500TIP3   OH252914   2.281   2.851   5.119 -0.5298  0.2852  0.3160
10500TIP3    H152915   2.270   2.842   5.024  1.1592 -1.4399  0.2372
10500TIP3    H252916   2.277   2.762   5.153 -0.7185  0.8447  1.8382
10501TIP3   OH252917   1.286   1.512   2.238 -0.0175  0.2580 -0.2613
10501TIP3    H152918   1.263   1.450   2.169 -1.3452  0.3221  0.0861
10501TIP3    H252919   1.380   1.522   2.231  0.0744 -0.9368 -1.0532
10502TIP3   OH252920   6.349   0.690   2.424 -0.4219  0.3626 -0.3995
10502TIP3    H152921   6.348   0.638   2.504  1.0225  0.6704 -0.1479
10502TIP3    H252922   6.435   0.673   2.386 -0.6654  1.0822 -1.3054
10503TIP3   OH252923   6.583   4.276   5.520  0.0388 -0.3399  0.0371
10503TIP3    H152924   6.523   4.260   5.593 -1.2869  1.2100 -0.6456
10503TIP3    H252925   6.526   4.278   5.443  1.1832 -0.3074 -0.8268
10504TIP3   OH252926   1.481   4.616  12.337 -0.0388 -0.3310 -0.2977
10504TIP3    H152927   1.564   4.570  12.321  0.0043 -0.0296 -0.9625
10504TIP3    H252928   1.507   4.699  12.376 -0.1053 -0.7706  0.7086
10505TIP3   OH252929   0.790   6.542  11.112  0.1831 -0.1657 -0.2852
10505TIP3    H152930   0.699   6.568  11.095 -0.1108 -0.3774  0.9175
10505TIP3    H252931   0.823   6.608  11.172  0.9534  0.0993 -0.9719
10506TIP3   OH252932   2.242   3.715   1.333 -0.2552  0.1279 -0.1729
10506TIP3    H152933   2.175   3.652   1.361  0.0273  0.1754  0.6274
10506TIP3    H252934   2.308   3.661   1.290 -1.1673  0.1678 -1.7076
10507TIP3   OH252935   5.256   0.967  12.702 -0.0348 -0.0741  0.2578
10507TIP3    H152936   5.213   1.022  12.637 -0.5163 -1.0846 -0.2959
10507TIP3    H252937   5.285   1.029  12.770 -0.7063  0.8337 -0.2567
10508TIP3   OH252938   1.179   0.061  15.989 -0.9162  0.3016  0.0271
10508TIP3    H152939   1.273   0.046  15.993 -0.3277  3.4626  0.7507
10508TIP3    H252940   1.149   0.006  15.916  1.7732  0.5409 -1.3711
10509TIP3   OH252941   3.121   5.169   0.158 -0.1707 -0.4123 -0.1653
10509TIP3    H152942   3.211   5.164   0.124 -0.7359  1.2896 -2.0965
10509TIP3    H252943   3.087   5.080   0.150  1.3894 -1.1711  0.9153
10510TIP3   OH252944   4.860   5.114  16.078 -0.5122 -0.0312 -0.8821
10510TIP3    H152945   4.883   5.113  15.986  1.9621 -1.8101 -0.3662
10510TIP3    H252946   4.848   5.206  16.100  1.9928  0.7344 -2.3279
10511TIP3   OH252947   1.552   2.843  11.335  0.2701 -0.3565 -0.3201
10511TIP3    H152948   1.469   2.796  11.344 -0.6651  1.4934  1.4155
10511TIP3    H252949   1.549   2.881  11.247 -0.9500  0.0721 -0.1091
10512TIP3   OH252950   0.936   5.503  16.729  0.0492 -0.1609  0.0425
10512TIP3    H152951   0.984   5.522  16.649  0.6778 -1.4647  0.0747
10512TIP3    H252952   0.960   5.413  16.751 -0.9907 -0.2224  1.0795
10513TIP3   OH252953   2.785   4.754  15.152 -0.2373  0.0249 -0.0039
10513TIP3    H152954   2.869   4.770  15.196  0.0975  0.7430 -0.8613
10513TIP3    H252955   2.776   4.828  15.091 -2.8192  1.5130  2.0002
10514TIP3   OH252956   4.956   3.705  13.756  0.6188  0.1598 -0.1551
10514TIP3    H152957   4.932   3.774  13.818  1.5389 -1.8392  2.6083
10514TIP3    H252958   4.881   3.699  13.696  0.9039  4.1115 -1.1609
10515TIP3   OH252959   3.395   4.324  15.122 -0.4056 -0.2690 -0.6465
10515TIP3    H152960   3.376   4.407  15.079 -1.3295 -0.3926 -0.4884
10515TIP3    H252961   3.337   4.261  15.079 -0.3714 -0.6551 -0.1355
10516TIP3   OH252962   5.409   4.119   4.059  0.2251  0.1802 -0.2386
10516TIP3    H152963   5.411   4.120   4.155  0.4779 -0.6813 -0.2216
10516TIP3    H252964   5.417   4.211   4.033 -1.9227  0.6600  0.5834
10517TIP3   OH252965   6.295   1.430   1.947 -0.3513  0.1977 -0.6811
10517TIP3    H152966   6.211   1.434   1.993  0.8106 -0.6790  1.6429
10517TIP3    H252967   6.322   1.521   1.938 -0.6881  0.3931  0.2234
10518TIP3   OH252968   5.267   5.271  11.853  0.8570  0.2723 -0.2487
10518TIP3    H152969   5.205   5.204  11.823 -1.4852  0.7689  3.0009
10518TIP3    H252970   5.249   5.347  11.797  1.5170 -0.8190 -2.0411
10519TIP3   OH252971   4.361   5.484   5.164  0.0043  0.1664  0.3793
10519TIP3    H152972   4.293   5.473   5.098  0.7880 -0.8360 -0.3082
10519TIP3    H252973   4.383   5.394   5.190 -1.0619  0.5454  2.8662
10520TIP3   OH252974   4.661   5.714   3.802 -0.1484  0.4754  0.2076
10520TIP3    H152975   4.737   5.768   3.825 -0.4459  1.4790 -1.0261
10520TIP3    H252976   4.650   5.727   3.708 -0.8466 -0.9791  0.0599
10521TIP3   OH252977   3.245   3.009   1.855 -0.2077 -0.1687  0.4798
10521TIP3    H152978   3.202   3.024   1.939 -0.2953  0.4152  0.3351
10521TIP3    H252979   3.330   3.052   1.865 -0.3200  0.1223  0.1789
10522TIP3   OH252980   4.384   5.276   5.747  0.0234 -0.3398  0.3935
10522TIP3    H152981   4.416   5.196   5.788  0.8346  0.4062  1.2732
10522TIP3    H252982   4.453   5.300   5.685 -1.3801 -1.7012 -1.8820
10523TIP3   OH252983   0.014   5.578   3.216 -1.0487 -0.3966 -0.3007
10523TIP3    H152984  -0.035   5.507   3.257 -0.3121  0.1765  1.6848
10523TIP3    H252985   0.093   5.536   3.181 -0.3562 -0.5112  1.3374
10524TIP3   OH252986   3.668   0.212  12.578 -0.4043  0.0246 -0.0389
10524TIP3    H152987   3.752   0.215  12.624 -0.6932 -1.3959  0.6449
10524TIP3    H252988   3.691   0.195  12.487  0.0370 -2.1307  0.4167
10525TIP3   OH252989   0.585   0.710  13.700 -0.8630  0.3312 -0.4626
10525TIP3    H152990   0.539   0.633  13.735 -0.5365  0.4580  0.2583
10525TIP3    H252991   0.580   0.775  13.770  0.2921  0.3968 -0.4255
10526TIP3   OH252992   6.361   5.192  11.635  0.0697 -0.4020 -0.1645
10526TIP3    H152993   6.409   5.118  11.598  1.1536 -1.3153  2.8047
10526TIP3    H252994   6.418   5.224  11.705 -2.0253  0.9273  1.0211
10527TIP3   OH252995   1.448   4.636  11.722 -0.1692  0.1052  0.1040
10527TIP3    H152996   1.479   4.643  11.632  1.7949  2.8193  0.8741
10527TIP3    H252997   1.404   4.719  11.740 -0.1641 -0.2125  1.7729
10528TIP3   OH252998   4.047   5.064   5.817  0.2594  0.5985  0.6972
10528TIP3    H152999   4.127   5.086   5.865  1.6313 -1.0407 -0.6838
10528TIP3    H253000   4.075   5.058   5.726 -0.8791 -2.1657  0.4195
10529TIP3   OH253001   3.340   2.863   2.704 -0.0220 -0.1951 -0.4539
10529TIP3    H153002   3.274   2.888   2.768  0.9992 -1.4126  1.1637
10529TIP3    H253003   3.343   2.936   2.642  0.9385  2.4813  2.4783
10530TIP3   OH253004   4.958   4.287   3.368  0.4079  0.0969 -0.5036
10530TIP3    H153005   5.041   4.322   3.400  0.7650  0.3222 -1.6040
10530TIP3    H253006   4.925   4.234   3.439  3.4955 -3.4410 -1.3754
10531TIP3   OH253007   1.427   1.679   6.657  0.0572 -0.4917 -0.1270
10531TIP3    H153008   1.514   1.660   6.691 -0.4647 -1.8031  0.5322
10531TIP3    H253009   1.401   1.599   6.612 -1.8249 -1.0959  1.8753
10532TIP3   OH253010   1.439   1.936  15.785  0.1778  0.0426  0.5980
10532TIP3    H153011   1.404   2.023  15.765 -0.2186 -0.4502 -0.9862
10532TIP3    H253012   1.410   1.919  15.875 -0.9648  0.9619  0.4330
10533TIP3   OH253013   2.966   1.820  12.576 -0.9981  0.0787 -0.1692
10533TIP3    H153014   3.055   1.794  12.598 -1.3536 -0.0559  1.1844
10533TIP3    H253015   2.969   1.838  12.482  0.3927 -0.1448 -0.1876
10534TIP3   OH253016   3.079   5.730   2.945 -0.1854 -0.1913 -0.6990
10534TIP3    H153017   3.096   5.758   2.855  2.0125 -0.7462 -0.5226
10534TIP3    H253018   3.030   5.649   2.936 -0.0834 -0.1820 -1.4091
10535TIP3   OH253019   4.073   1.492  13.793  0.5725 -0.2262 -0.3975
10535TIP3    H153020   4.079   1.404  13.830 -1.5901 -0.2643 -0.0589
10535TIP3    H253021   4.019   1.540  13.854 -0.4839  0.5925 -1.9161
10536TIP3   OH253022   1.379   1.581   5.257 -0.0172  0.1089 -0.5449
10536TIP3    H153023   1.290   1.615   5.267 -0.1818 -0.9136  2.4780
10536TIP3    H253024   1.429   1.655   5.222 -1.6158  1.3549 -0.3234
10537TIP3   OH253025   1.653   0.979   1.142  0.0823 -0.0189 -0.1566
10537TIP3    H153026   1.667   0.930   1.224 -0.9948  0.0541  0.0891
10537TIP3    H253027   1.595   1.051   1.167 -1.5202 -0.8634 -1.2624
10538TIP3   OH253028   3.511   0.991   3.710  1.1051  0.6189 -0.2983
10538TIP3    H153029   3.597   0.950   3.698  1.4537  2.0968 -3.9240
10538TIP3    H253030   3.482   1.012   3.622 -3.3990 -0.4651  0.6733
10539TIP3   OH253031   0.760   4.473  14.566 -0.2447  0.5451 -0.4699
10539TIP3    H153032   0.669   4.450  14.552 -0.9017  1.8575  1.2371
10539TIP3    H253033   0.758   4.563  14.598  1.4186 -0.0901  1.7610
10540TIP3   OH253034   3.315   4.360   0.362  0.0036  0.5553  0.2032
10540TIP3    H153035   3.234   4.315   0.388  1.6207 -2.1123  1.0134
10540TIP3    H253036   3.307   4.447   0.401 -2.6928  0.6093 -0.2420
10541TIP3   OH253037   2.977   5.567  15.367  0.1870  0.5846  0.1006
10541TIP3    H153038   3.003   5.644  15.317 -0.3515  1.0047  0.4507
10541TIP3    H253039   2.889   5.546  15.335  0.9681 -0.9134 -1.1919
10542TIP3   OH253040   4.199   6.189  17.380 -0.6730 -0.1533 -0.0783
10542TIP3    H153041   4.239   6.118  17.430 -1.1892 -0.7445 -0.4948
10542TIP3    H253042   4.269   6.220  17.323 -0.3658 -0.1462  0.3002
10543TIP3   OH253043   4.197   3.899  15.222 -0.6023 -0.3762 -0.4500
10543TIP3    H153044   4.186   3.811  15.258  1.5073 -0.6694 -0.3639
10543TIP3    H253045   4.285   3.898  15.185  1.0770  2.7787  2.8708
10544TIP3   OH253046   0.232   0.712   2.657  0.0075 -0.2540  0.2699
10544TIP3    H153047   0.235   0.746   2.568  0.5663  0.2498  0.4758
10544TIP3    H253048   0.312   0.661   2.667  0.4370  0.5008  0.7905
10545TIP3   OH253049   4.565   6.679  11.376 -0.0704  0.5845 -0.4004
10545TIP3    H153050   4.503   6.714  11.312  0.0426  0.5160 -0.5500
10545TIP3    H253051   4.540   6.587  11.386  0.3589  0.4063 -0.8955
10546TIP3   OH253052   0.416   6.440  11.642 -0.0950 -0.3234  0.0021
10546TIP3    H153053   0.407   6.349  11.669  2.7379 -0.9346 -0.7851
10546TIP3    H253054   0.510   6.456  11.643 -0.4306  2.2239 -1.1018
10547TIP3   OH253055   0.621   4.455  14.249  0.1921 -0.0312  0.2378
10547TIP3    H153056   0.700   4.470  14.198  0.5618 -0.0809  0.7880
10547TIP3    H253057   0.553   4.503  14.202  0.7738  0.9600  0.3764
10548TIP3   OH253058   4.865   3.213   1.790 -0.1510 -0.1260  0.4897
10548TIP3    H153059   4.772   3.204   1.769  0.3814  0.8128 -2.9162
10548TIP3    H253060   4.910   3.182   1.711  2.3335  1.9785  0.9718
10549TIP3   OH253061   2.826   1.933   4.705 -0.5161 -0.0980  0.2448
10549TIP3    H153062   2.759   1.865   4.693  0.0077 -0.7576  0.9633
10549TIP3    H253063   2.828   1.948   4.799  1.1029 -0.8889  0.3739
10550TIP3   OH253064   3.715   3.199  14.272 -0.1830  0.9333 -0.3695
10550TIP3    H153065   3.798   3.169  14.235  0.6465  2.9753 -0.3088
10550TIP3    H253066   3.708   3.154  14.356 -0.0415 -0.6133 -1.1567
10551TIP3   OH253067   0.738   3.050  16.486 -1.1108  0.6698 -0.2416
10551TIP3    H153068   0.776   2.962  16.494  1.6139  1.6112 -1.4583
10551TIP3    H253069   0.678   3.058  16.561 -0.5638 -1.7886  0.5405
10552TIP3   OH253070   4.097   2.630   3.340  0.4902 -0.2933 -0.3141
10552TIP3    H153071   4.053   2.557   3.383 -0.3617  0.7557  0.6515
10552TIP3    H253072   4.115   2.692   3.410 -0.6521  1.3327 -1.3823
10553TIP3   OH253073   5.287   2.584  16.447  0.1106 -0.0976 -0.2731
10553TIP3    H153074   5.284   2.676  16.475 -2.5769  0.3151 -1.5364
10553TIP3    H253075   5.362   2.579  16.387  0.8834  0.9992  0.5613
10554TIP3   OH253076   3.662   2.826  15.429 -0.3737  1.1843 -0.0091
10554TIP3    H153077   3.664   2.736  15.396 -0.8118  0.9523  0.5676
10554TIP3    H253078   3.754   2.853  15.430 -0.1760  0.5304  0.3673
10555TIP3   OH253079   5.324   2.987  12.270 -0.0747 -0.0692 -0.5905
10555TIP3    H153080   5.320   3.083  12.266  0.5189 -0.0815 -3.8647
10555TIP3    H253081   5.314   2.959  12.179  1.1097 -3.0826  0.1114
10556TIP3   OH253082   1.141   3.760  16.653 -0.1381  0.0108 -0.3986
10556TIP3    H153083   1.138   3.726  16.564  1.5407 -3.8216  0.8065
10556TIP3    H253084   1.228   3.737  16.685 -0.7945  0.9500  2.3644
10557TIP3   OH253085   6.497   1.055  14.111  0.1960  0.0673 -0.4858
10557TIP3    H153086   6.403   1.060  14.131  1.0739  1.3205  4.7473
10557TIP3    H253087   6.514   0.961  14.104 -1.4411 -0.1714 -2.1111
10558TIP3   OH253088   4.778   3.359   2.731 -0.1367 -0.4357  0.0010
10558TIP3    H153089   4.848   3.422   2.745 -0.5759  0.1075 -0.2157
10558TIP3    H253090   4.823   3.275   2.719  0.4409 -0.2028  0.4766
10559TIP3   OH253091   0.031   3.218   1.058  0.3091  0.0870  0.3131
10559TIP3    H153092  -0.045   3.229   1.001  0.8191  0.8762 -0.2451
10559TIP3    H253093  -0.003   3.227   1.146 -0.0149  2.2267  0.0301
10560TIP3   OH253094   6.172   1.113  10.530  0.2134 -0.4595 -0.1778
10560TIP3    H153095   6.087   1.089  10.493 -0.0662 -0.2744  0.3304
10560TIP3    H253096   6.230   1.041  10.506  0.4466  0.3385 -2.2928
10561TIP3   OH253097   6.391   1.962   1.776  0.7455 -0.2079  0.0255
10561TIP3    H153098   6.455   1.983   1.708 -0.9345 -1.5414 -2.1123
10561TIP3    H253099   6.329   1.903   1.733 -1.3871  0.2308  2.2625
10562TIP3   OH253100   6.672   1.764  11.503  0.0949 -0.2197 -0.2558
10562TIP3    H153101   6.612   1.689  11.493 -0.9364  0.6746 -1.1800
10562TIP3    H253102   6.658   1.795  11.592  0.2529 -0.9016  0.0084
10563TIP3   OH253103   0.868   1.325   0.951  0.6968 -0.0198 -0.4667
10563TIP3    H153104   0.798   1.284   1.002  1.2297  0.8171  1.0246
10563TIP3    H253105   0.823   1.369   0.879 -0.3909  0.9573  0.7645
10564TIP3   OH253106   6.065   0.135  15.791  0.1584 -0.3346 -0.0843
10564TIP3    H153107   6.068   0.177  15.877 -0.8621  0.2013 -0.2918
10564TIP3    H253108   6.151   0.095  15.781  0.0084 -1.1930  1.5673
10565TIP3   OH253109   6.016   4.449  10.408 -0.3541  0.6224 -0.7527
10565TIP3    H153110   6.026   4.375  10.469  0.2314 -0.6735 -2.3663
10565TIP3    H253111   5.922   4.451  10.388 -0.4338  0.5858 -0.3966
10566TIP3   OH253112   2.051   3.807   1.985 -0.0581 -0.2348  0.6173
10566TIP3    H153113   2.068   3.722   2.025 -1.5518 -0.1023  1.6346
10566TIP3    H253114   2.000   3.855   2.050 -0.7524  0.7922 -0.6208
10567TIP3   OH253115   1.734   4.211   1.616  0.8928  0.4468  0.3715
10567TIP3    H153116   1.766   4.296   1.648  0.9788  1.4471 -2.1768
10567TIP3    H253117   1.772   4.202   1.529 -1.9312 -0.5143 -0.8739
10568TIP3   OH253118   2.884   3.615  16.517  0.0071 -0.1265  0.2454
10568TIP3    H153119   2.917   3.615  16.427  0.4671  0.1522  0.4123
10568TIP3    H253120   2.844   3.702  16.527 -1.0606 -0.5628 -0.0518
10569TIP3   OH253121   5.649   1.996  15.241  0.2023  0.3529 -0.7189
10569TIP3    H153122   5.564   2.011  15.281  0.0698  0.2728 -0.9649
10569TIP3    H253123   5.637   1.916  15.189  0.5454  0.0976 -0.4168
10570TIP3   OH253124   0.733   1.874   0.538 -0.1273  0.7667  0.6147
10570TIP3    H153125   0.805   1.854   0.599 -0.2630 -1.3581  0.1522
10570TIP3    H253126   0.729   1.798   0.480 -2.1525  1.2618  0.0258
10571TIP3   OH253127   4.938   0.082  14.159 -0.2789  0.0637  0.1330
10571TIP3    H153128   5.031   0.074  14.142 -0.4046  0.2774 -0.6935
10571TIP3    H253129   4.915   0.003  14.208  0.4060  0.1983  0.6814
10572TIP3   OH253130   4.574   0.343  14.064 -0.5097  0.1558  0.6968
10572TIP3    H153131   4.632   0.315  14.135  0.6973 -0.5809 -0.5480
10572TIP3    H253132   4.498   0.378  14.110  0.3031 -0.1136  2.3704
10573TIP3   OH253133   4.661   0.111   0.347  0.4994 -0.0478 -0.1199
10573TIP3    H153134   4.740   0.132   0.297 -0.7130 -0.5327 -2.3705
10573TIP3    H253135   4.598   0.178   0.321  0.0673  0.2203  1.5024
10574TIP3   OH253136   4.532   6.431   0.203  0.4075  0.1246  0.2854
10574TIP3    H153137   4.523   6.343   0.165  0.7697  1.7601 -4.0852
10574TIP3    H253138   4.531   6.490   0.128  1.5074  3.8431  2.9207
10575TIP3   OH253139   3.790   6.353   3.401 -0.4393 -0.2043 -0.3931
10575TIP3    H153140   3.782   6.438   3.357 -0.1381  0.0607  0.0470
10575TIP3    H253141   3.728   6.358   3.474 -1.5176 -0.9466 -1.2334
10576TIP3   OH253142   3.634   6.517  11.313 -0.3881 -0.2139  0.1912
10576TIP3    H153143   3.688   6.514  11.234  2.1771 -2.0750  1.8531
10576TIP3    H253144   3.622   6.425  11.337  0.4344  0.2892  2.8626
10577TIP3   OH253145   5.181   3.354   2.067 -0.2879  0.0034 -0.1783
10577TIP3    H153146   5.241   3.283   2.090 -0.5815 -0.0718  0.3836
10577TIP3    H253147   5.095   3.313   2.063 -0.4098  0.2569 -0.1969
10578TIP3   OH253148   6.330   4.948  15.429 -0.0408  1.2822  0.1017
10578TIP3    H153149   6.373   4.863  15.418  0.2617  1.6374 -1.8504
10578TIP3    H253150   6.361   4.980  15.514 -1.4116 -1.2172  1.6748
10579TIP3   OH253151   5.293   0.350   1.048 -0.0459  0.6360 -0.7612
10579TIP3    H153152   5.298   0.265   1.091  1.7644  0.7161 -0.7434
10579TIP3    H253153   5.221   0.395   1.091  0.7842  0.1754  1.2293
10580TIP3   OH253154   5.757   1.763  11.090  0.4970 -0.3748 -0.5914
10580TIP3    H153155   5.832   1.820  11.102  0.7513 -0.7924 -0.1493
10580TIP3    H253156   5.743   1.760  10.995  1.6454 -1.0644 -0.7523
10581TIP3   OH253157   2.814   1.327  17.064 -0.3465 -0.0881 -0.3011
10581TIP3    H153158   2.882   1.346  16.999 -1.6251 -0.4093 -1.7800
10581TIP3    H253159   2.787   1.414  17.096 -0.0245  0.1030 -0.5439
10582TIP3   OH253160   3.497   1.152  10.120  0.1436 -0.1498 -0.2211
10582TIP3    H153161   3.548   1.084  10.164 -0.0491 -0.7152 -0.8564
10582TIP3    H253162   3.519   1.232  10.166  3.5787  0.1158 -1.9988
10583TIP3   OH253163   4.615   5.872  15.400 -0.0994 -0.4120  0.2426
10583TIP3    H153164   4.629   5.965  15.419 -3.4515  0.1568  0.4492
10583TIP3    H253165   4.702   5.839  15.377  1.6763  2.1639  2.5826
10584TIP3   OH253166   3.435   1.899   3.936 -0.7289  0.3868 -0.1182
10584TIP3    H153167   3.430   1.896   3.841 -1.0472  0.2775 -0.1014
10584TIP3    H253168   3.355   1.945   3.963 -0.0774  1.4551  0.0447
10585TIP3   OH253169   4.706   5.139   1.242  0.2693 -0.1089 -0.2291
10585TIP3    H153170   4.792   5.110   1.270  0.4279  1.8039  1.4409
10585TIP3    H253171   4.659   5.058   1.222  2.1720 -1.2173 -0.4437
10586TIP3   OH253172   0.846   4.782  12.816 -0.3354 -0.6054 -0.1838
10586TIP3    H153173   0.802   4.763  12.734  0.9116 -0.0661 -1.0201
10586TIP3    H253174   0.783   4.833  12.867 -0.1793  1.5819 -2.0056
10587TIP3   OH253175   0.070   1.978  15.584  0.4573  0.3791 -0.2098
10587TIP3    H153176   0.139   1.912  15.576 -0.5389 -0.8747  1.0354
10587TIP3    H253177   0.116   2.062  15.583  2.0701 -0.4463  1.1215
10588TIP3   OH253178   1.894   1.712   4.308  0.1871  0.4339 -0.0075
10588TIP3    H153179   1.930   1.767   4.378  0.2056  1.0650 -0.4972
10588TIP3    H253180   1.902   1.766   4.229 -0.2174 -0.1042 -0.4249
10589TIP3   OH253181   1.508   2.993  17.104  0.1540 -0.2458  0.7427
10589TIP3    H153182   1.509   3.034  17.017  0.3679 -0.1543  0.7876
10589TIP3    H253183   1.441   3.042  17.152  0.5090  0.1532  0.8398
10590TIP3   OH253184   2.341   2.765   2.608  0.2988  0.0207 -0.3515
10590TIP3    H153185   2.392   2.751   2.688 -1.2498 -1.5777  0.4247
10590TIP3    H253186   2.324   2.859   2.606 -0.9324 -0.0908  2.0516
10591TIP3   OH253187   1.450   5.244   0.001  0.2923 -0.2715  0.0413
10591TIP3    H153188   1.387   5.188  -0.044  0.4285 -0.7011  0.3726
10591TIP3    H253189   1.442   5.219   0.093 -1.1850  1.7642  0.5095
10592TIP3   OH253190   3.119   3.659   1.007 -0.3091  0.7395  0.0985
10592TIP3    H153191   3.203   3.694   0.978 -0.5341  0.6571 -0.6825
10592TIP3    H253192   3.140   3.606   1.084  0.4432  0.1890 -0.4710
10593TIP3   OH253193   3.688   2.866   1.330 -0.3381  0.0225  0.5744
10593TIP3    H153194   3.734   2.826   1.256 -1.4027 -1.4962  0.6812
10593TIP3    H253195   3.606   2.899   1.292 -0.3986  0.2282  0.8804
10594TIP3   OH253196   5.898   3.501  14.440  0.1856  0.1074 -0.2609
10594TIP3    H153197   5.956   3.450  14.383  1.9256  0.7959  0.8014
10594TIP3    H253198   5.951   3.520  14.517 -0.8628  2.3167 -0.0041
10595TIP3   OH253199   2.067   0.389  16.233 -0.7344 -0.5981 -0.3207
10595TIP3    H153200   2.053   0.387  16.138  0.6195 -0.1444 -0.5554
10595TIP3    H253201   2.139   0.328  16.248  0.9718  1.3603  0.0019
10596TIP3   OH253202   0.498   0.422  17.148  0.3541 -0.1259 -0.3333
10596TIP3    H153203   0.539   0.438  17.233 -0.9585 -2.6167  0.8896
10596TIP3    H253204   0.564   0.372  17.099  1.2582  1.6280 -1.0209
10597TIP3   OH253205   6.599   2.813   4.461  0.2259  0.0782  0.3211
10597TIP3    H153206   6.661   2.782   4.394  0.7084  1.3181  0.1643
10597TIP3    H253207   6.573   2.734   4.508  0.5967 -0.6959 -0.7369
10598TIP3   OH253208   0.554   3.180  15.062  0.2647 -0.0889  0.7000
10598TIP3    H153209   0.631   3.200  15.116  1.1449 -0.2004 -0.4665
10598TIP3    H253210   0.488   3.243  15.091  1.1183  0.6799  1.0456
10599TIP3   OH253211   2.027   3.303  15.124  0.0036  0.2047 -0.0872
10599TIP3    H153212   2.100   3.320  15.064 -0.0842  2.6161  0.3758
10599TIP3    H253213   2.056   3.340  15.208 -1.4511  0.5387  0.2927
10600TIP3   OH253214   6.396   2.079   5.558  0.1247 -0.5950 -0.3024
10600TIP3    H153215   6.454   2.010   5.591 -0.6986 -1.5679 -0.8327
10600TIP3    H253216   6.357   2.042   5.479 -1.3189 -0.0174  0.1057
10601TIP3   OH253217   5.467   3.128   3.774 -0.1059  0.4755 -0.1793
10601TIP3    H153218   5.382   3.121   3.817 -0.6107  0.8735 -1.0780
10601TIP3    H253219   5.455   3.082   3.691  0.7204  0.0699 -0.0761
10602TIP3   OH253220   3.834   0.338  11.274  0.3357  0.9636  0.3002
10602TIP3    H153221   3.817   0.326  11.181  1.7433  1.7823 -0.0983
10602TIP3    H253222   3.798   0.424  11.294  1.0056  1.2678  0.2323
10603TIP3   OH253223   5.896   6.061  14.696  0.1778  0.7742  0.6686
10603TIP3    H153224   5.911   5.995  14.764 -1.6494  0.2030  0.5592
10603TIP3    H253225   5.839   6.125  14.737 -0.8268  0.4978 -0.2690
10604TIP3   OH253226   4.574   4.471  13.692 -0.1366  0.9668 -0.3989
10604TIP3    H153227   4.655   4.467  13.742 -0.6715  2.2819  0.6285
10604TIP3    H253228   4.544   4.380  13.686  0.5826  0.6513  0.5974
10605TIP3   OH253229   2.486   1.573  13.791 -0.1675 -0.5558  0.3507
10605TIP3    H153230   2.480   1.505  13.723 -0.9573  0.6834 -0.8655
10605TIP3    H253231   2.465   1.527  13.872 -0.9391 -1.7107 -0.4742
10606TIP3   OH253232   3.969   5.651   5.145 -0.1187  0.4397 -0.2467
10606TIP3    H153233   3.877   5.630   5.128 -0.2372  1.8630 -1.5564
10606TIP3    H253234   3.988   5.610   5.230 -1.5955 -0.9082 -0.5210
10607TIP3   OH253235   2.325   6.094  15.133  0.1503  0.2328 -0.3151
10607TIP3    H153236   2.389   6.117  15.066  0.0730  0.9342 -0.1523
10607TIP3    H253237   2.244   6.135  15.105 -0.6459 -1.8700 -1.2912
10608TIP3   OH253238   1.496   0.875  13.032 -0.6631 -0.3297  0.2337
10608TIP3    H153239   1.462   0.786  13.040  1.2956 -1.2191 -0.6931
10608TIP3    H253240   1.476   0.916  13.116 -1.3391 -1.7314  0.7905
10609TIP3   OH253241   3.657   4.999   6.430  0.0338  0.8687 -0.0203
10609TIP3    H153242   3.589   5.045   6.480 -0.4116 -1.1902  1.4269
10609TIP3    H253243   3.622   4.993   6.341 -0.9368  1.2910  0.3213
10610TIP3   OH253244   1.883   4.224   2.643 -0.6057  0.5300  0.2463
10610TIP3    H153245   1.795   4.257   2.623 -0.5190  0.6360  0.0458
10610TIP3    H253246   1.938   4.302   2.646 -0.4007  0.4056 -0.2362
10611TIP3   OH253247   3.344   5.572  11.355  0.1003 -0.3087 -0.3205
10611TIP3    H153248   3.427   5.548  11.398 -0.0065  0.4788  0.3331
10611TIP3    H253249   3.290   5.493  11.362  0.4233 -0.4901  0.1569
10612TIP3   OH253250   2.853   5.307   3.056 -0.5160 -0.4000  0.5501
10612TIP3    H153251   2.888   5.385   3.012 -2.3392 -0.1850 -0.6379
10612TIP3    H253252   2.800   5.342   3.127 -0.7442 -0.5898  0.4722
10613TIP3   OH253253   1.369   1.735   2.421  0.1142 -0.0246  0.1717
10613TIP3    H153254   1.464   1.741   2.425  0.0505  2.0363 -0.1460
10613TIP3    H253255   1.351   1.671   2.353  1.2427 -1.2622  0.9877
10614TIP3   OH253256   0.637   4.954  12.387 -0.0435 -0.0475 -0.2241
10614TIP3    H153257   0.695   4.878  12.389 -0.8809 -0.6987 -0.3365
10614TIP3    H253258   0.617   4.966  12.294  0.5654  0.6943 -0.2715
10615TIP3   OH253259   3.276   4.508   5.370 -0.0937 -0.3737 -0.3215
10615TIP3    H153260   3.258   4.567   5.443  0.6679  0.7977 -1.0422
10615TIP3    H253261   3.254   4.421   5.403 -2.1413  0.3855  0.4750
10616TIP3   OH253262   6.174   4.301  15.244 -0.0311  0.0311 -0.3657
10616TIP3    H153263   6.241   4.360  15.279 -0.3497  0.0830  0.1606
10616TIP3    H253264   6.123   4.356  15.184  0.8957 -0.2111 -1.4187
10617TIP3   OH253265   3.915   5.382   1.109  0.3957 -0.0029 -0.1766
10617TIP3    H153266   3.824   5.411   1.111  0.8984  1.6299  0.7108
10617TIP3    H253267   3.913   5.301   1.058 -1.4213  0.3997 -0.8175
10618TIP3   OH253268   6.198   4.607  13.329  0.1647 -0.1945  0.4689
10618TIP3    H153269   6.155   4.553  13.262  2.5337 -1.9659  0.2374
10618TIP3    H253270   6.221   4.688  13.282  0.3815 -0.7513 -0.4086
10619TIP3   OH253271   5.719   1.430   5.496  0.4164 -0.0018 -0.0283
10619TIP3    H153272   5.715   1.437   5.401  1.5193  1.7298  0.0093
10619TIP3    H253273   5.781   1.497   5.523  0.2383 -0.5388  1.9205
10620TIP3   OH253274   2.271   2.568  13.482 -0.0601  0.1481 -0.2838
10620TIP3    H153275   2.271   2.595  13.574  0.5763  1.0171 -0.5239
10620TIP3    H253276   2.257   2.473  13.484  2.2444 -0.2414  0.8411
10621TIP3   OH253277   6.226   5.968   1.358 -0.4888  0.1905  0.3111
10621TIP3    H153278   6.280   6.047   1.365  2.3561 -1.6738  1.3751
10621TIP3    H253279   6.162   5.977   1.429 -1.2587  2.1504 -0.5376
10622TIP3   OH253280   5.193   0.446  12.067  0.5182 -1.0540  0.2858
10622TIP3    H153281   5.130   0.423  12.000 -1.5255 -1.3136  2.1920
10622TIP3    H253282   5.255   0.505  12.023 -0.2721 -1.8269 -1.9715
10623TIP3   OH253283   0.169   0.478   2.443 -0.3220 -0.3430  0.4262
10623TIP3    H153284   0.155   0.563   2.403 -0.6559 -0.1385  0.9661
10623TIP3    H253285   0.213   0.497   2.526 -0.7841 -0.6533  0.7507
10624TIP3   OH253286   2.811   1.025  10.967  0.5059  0.3285  0.1174
10624TIP3    H153287   2.734   1.069  10.931  0.1062 -0.4310  0.0260
10624TIP3    H253288   2.862   1.000  10.891 -0.3599 -1.3157  0.0399
10625TIP3   OH253289   0.399   3.506  16.635 -0.5631 -0.2989 -0.1891
10625TIP3    H153290   0.335   3.440  16.608 -1.3838  0.1770  0.5551
10625TIP3    H253291   0.357   3.590  16.615 -0.9834  0.0624  2.0421
10626TIP3   OH253292   3.496   1.120  12.493  0.2265 -0.2607  0.4629
10626TIP3    H153293   3.461   1.031  12.499 -1.4491  0.2105 -1.2431
10626TIP3    H253294   3.568   1.122  12.555 -1.6416 -1.8836  2.8784
10627TIP3   OH253295   4.529   4.503  11.818  0.2740  0.0202 -0.3676
10627TIP3    H153296   4.524   4.419  11.772 -0.1013 -0.2054  0.0854
10627TIP3    H253297   4.618   4.535  11.799  0.3959 -0.4433 -0.5977
10628TIP3   OH253298   2.375   5.360   2.858  0.1264 -0.2170  0.2381
10628TIP3    H153299   2.338   5.285   2.812  2.8767  0.7172 -4.1826
10628TIP3    H253300   2.328   5.436   2.823 -0.7013  0.3932  2.5053
10629TIP3   OH253301   5.954   6.095   4.014 -0.4062  0.3126  0.4870
10629TIP3    H153302   5.864   6.092   3.980 -0.4759 -0.3679  0.7056
10629TIP3    H253303   5.951   6.041   4.093  0.2551  0.0552  0.3438
10630TIP3   OH253304   4.816   2.220   5.813  1.1216 -0.2625 -0.1391
10630TIP3    H153305   4.724   2.204   5.796  1.1155 -0.3383 -0.0341
10630TIP3    H253306   4.823   2.315   5.824  0.9261 -0.3292  0.6367
10631TIP3   OH253307   5.911   5.274  16.077  0.7441 -0.0606 -0.7961
10631TIP3    H153308   5.971   5.293  16.005  0.5228 -0.3903 -1.0679
10631TIP3    H253309   5.861   5.197  16.048 -0.9320  1.1538 -1.2527
10632TIP3   OH253310   5.438   0.788   2.084 -0.3488  0.0597 -0.0289
10632TIP3    H153311   5.468   0.775   2.174  1.2542 -0.8065 -0.6561
10632TIP3    H253312   5.348   0.819   2.094  0.6511  2.7841  1.9739
10633TIP3   OH253313   5.363   0.435   0.790 -0.4626 -0.0476  0.2611
10633TIP3    H153314   5.343   0.387   0.871  0.0316 -0.5688  0.0850
10633TIP3    H253315   5.435   0.385   0.751  0.6638  1.3279  0.4868
10634TIP3   OH253316   2.043   5.521  14.979  0.2796  0.0916 -0.3841
10634TIP3    H153317   2.109   5.511  15.047 -0.8885 -0.3772  0.7250
10634TIP3    H253318   1.986   5.445  14.989 -0.2138  0.2788 -1.5594
10635TIP3   OH253319   3.230   5.149  13.686  0.1024  0.4938  0.6299
10635TIP3    H153320   3.147   5.102  13.692  1.0917 -1.6812 -1.1539
10635TIP3    H253321   3.279   5.103  13.617  2.5304  2.1071  1.1341
10636TIP3   OH253322   1.757   1.231   4.927 -0.0670 -0.4298 -0.1153
10636TIP3    H153323   1.754   1.186   4.843  0.5726 -0.4482 -0.1321
10636TIP3    H253324   1.763   1.161   4.992 -1.3047 -0.4501  0.0076
10637TIP3   OH253325   3.626   6.262  11.920  0.4401  0.2219  0.0460
10637TIP3    H153326   3.638   6.273  12.014  0.1241 -1.5586  0.3353
10637TIP3    H253327   3.534   6.237  11.910  0.5197  0.1860 -0.7230
10638TIP3   OH253328   3.838   0.462  16.089  0.0071  0.3935  0.4045
10638TIP3    H153329   3.840   0.367  16.094  0.3125  0.1237 -2.8328
10638TIP3    H253330   3.913   0.490  16.143  1.1120 -1.3150 -0.1640
10639TIP3   OH253331   1.728   3.824  16.362  0.0262 -0.5572  0.3481
10639TIP3    H153332   1.681   3.743  16.384 -1.0819 -0.0963 -0.2718
10639TIP3    H253333   1.756   3.811  16.271 -1.7142  0.4501 -0.3682
10640TIP3   OH253334   0.437   1.810  14.246 -0.0361  0.1623 -0.0432
10640TIP3    H153335   0.359   1.809  14.191 -0.8851  1.5545  1.0816
10640TIP3    H253336   0.414   1.759  14.323  0.1938  0.5352  0.2722
10641TIP3   OH253337   0.407   5.139  11.476  0.7441 -0.1491  0.1605
10641TIP3    H153338   0.460   5.093  11.410  0.6011 -0.2774  0.1338
10641TIP3    H253339   0.356   5.069  11.518 -0.3991  0.1287 -0.7273
10642TIP3   OH253340   4.305   0.080  11.555 -0.5224 -0.1476 -0.3764
10642TIP3    H153341   4.295   0.062  11.462 -0.4380 -0.3736 -0.3426
10642TIP3    H253342   4.386   0.132  11.562 -0.1679 -0.6993 -0.3600
10643TIP3   OH253343   3.227   0.325  14.250  0.4013 -1.1432  0.1077
10643TIP3    H153344   3.146   0.275  14.238 -0.5441  0.4120 -0.2849
10643TIP3    H253345   3.201   0.400  14.304  0.6686  1.2888 -2.7867
10644TIP3   OH253346   1.678   1.569  13.586 -0.4852  0.6997 -0.2273
10644TIP3    H153347   1.605   1.596  13.642  1.8504  5.2950  1.1692
10644TIP3    H253348   1.644   1.579  13.497 -2.6706 -1.4454  0.2580
10645TIP3   OH253349   4.847   5.409   1.241  0.2203  0.1047 -0.3151
10645TIP3    H153350   4.909   5.457   1.187  1.7811 -0.1629  1.1597
10645TIP3    H253351   4.850   5.320   1.207 -0.3361  0.3597 -1.0586
10646TIP3   OH253352   2.399   2.180  11.999 -0.0930 -0.5864  0.1753
10646TIP3    H153353   2.405   2.100  11.946 -0.1527 -0.2225 -0.3856
10646TIP3    H253354   2.317   2.169  12.048  0.6597 -1.5690  1.2796
10647TIP3   OH253355   5.788   4.280   1.115 -0.1028 -0.5680  0.2038
10647TIP3    H153356   5.853   4.345   1.088 -0.1294 -0.3755  0.5878
10647TIP3    H253357   5.759   4.239   1.034 -1.8502  1.5386 -0.3367
10648TIP3   OH253358   5.741   3.350  13.089  0.2745  0.0158 -0.6113
10648TIP3    H153359   5.748   3.311  13.176 -2.0612  0.7754 -0.0300
10648TIP3    H253360   5.797   3.428  13.093 -1.3368  1.1511  0.9114
10649TIP3   OH253361   4.715   5.779  14.108 -0.2553 -0.1070 -0.6480
10649TIP3    H153362   4.708   5.718  14.181  1.0511  0.7255  0.2165
10649TIP3    H253363   4.806   5.773  14.080 -0.9875 -1.2275 -2.9854
10650TIP3   OH253364   2.433   3.371  16.046 -0.4442 -0.0588 -0.6595
10650TIP3    H153365   2.498   3.307  16.018  0.1465  0.4458 -0.4441
10650TIP3    H253366   2.451   3.384  16.139  0.0408  1.1046 -0.8949
10651TIP3   OH253367   5.458   5.633   0.463 -0.0823  0.3199 -0.3810
10651TIP3    H153368   5.493   5.598   0.381  0.6280  2.6850 -1.1620
10651TIP3    H253369   5.377   5.677   0.438 -0.1873  0.5230  0.3029
10652TIP3   OH253370   5.007   1.241  15.315  0.0096 -0.1631  0.1376
10652TIP3    H153371   5.009   1.145  15.310  0.7342 -0.2482  1.5333
10652TIP3    H253372   4.991   1.259  15.407 -2.4817  1.0872 -0.4486
10653TIP3   OH253373   4.156   4.001  12.701  0.0617  0.0516  0.4161
10653TIP3    H153374   4.215   3.926  12.697  0.4397  0.3897 -0.6273
10653TIP3    H253375   4.211   4.072  12.736 -0.7029 -0.5043  2.9355
10654TIP3   OH253376   3.437   0.586  14.440 -0.3940 -0.9379  0.0057
10654TIP3    H153377   3.406   0.579  14.350  1.3572 -0.6608 -0.6689
10654TIP3    H253378   3.532   0.596  14.432 -0.0121 -2.3159  1.9312
10655TIP3   OH253379   3.792   2.458  13.254  0.5598  0.5405  0.2340
10655TIP3    H153380   3.766   2.486  13.342 -2.0491 -2.1713  0.4559
10655TIP3    H253381   3.875   2.411  13.268  0.8428  1.2296  1.0055
10656TIP3   OH253382   1.932   6.338   2.923  0.0984  0.9104 -0.2796
10656TIP3    H153383   1.841   6.315   2.904  0.3498  0.9403 -1.6708
10656TIP3    H253384   1.983   6.278   2.869  0.8177  3.0108 -2.1358
10657TIP3   OH253385   1.956   4.576  14.057  0.2884  0.0074  0.4646
10657TIP3    H153386   1.888   4.560  13.992 -0.0702  0.3476  0.7566
10657TIP3    H253387   1.994   4.660  14.032  0.3656 -0.0151  0.5068
10658TIP3   OH253388   3.000   4.856  11.628 -0.2445  0.2297 -0.4171
10658TIP3    H153389   2.912   4.819  11.628 -0.5068  0.8483  0.3042
10658TIP3    H253390   3.055   4.785  11.595 -0.7692 -0.7426  0.7164
10659TIP3   OH253391   1.107   1.337  12.998 -0.3454 -0.0029  0.2689
10659TIP3    H153392   1.150   1.327  13.083 -1.1589  0.1113  0.7114
10659TIP3    H253393   1.139   1.263  12.946  0.7044  0.3258  0.4272
10660TIP3   OH253394   4.972   4.505  15.805 -0.2827  0.4675  0.2110
10660TIP3    H153395   4.960   4.438  15.872 -0.9214  1.6347  1.2921
10660TIP3    H253396   4.889   4.507  15.757 -0.1351  0.2407 -0.0563
10661TIP3   OH253397   0.754   3.627  13.177 -0.0769  0.2298 -0.0002
10661TIP3    H153398   0.731   3.643  13.086 -1.3880  0.6332  0.3797
10661TIP3    H253399   0.845   3.656  13.184  0.1171 -0.0269 -1.2216
10662TIP3   OH253400   4.878   4.229  10.697  0.7288 -0.2043  0.3909
10662TIP3    H153401   4.964   4.206  10.733  0.9093  1.0180  0.8049
10662TIP3    H253402   4.886   4.213  10.603  0.2605 -3.4163  0.7820
10663TIP3   OH253403   3.122   5.436  14.660 -0.2947 -0.5163  0.1485
10663TIP3    H153404   3.079   5.433  14.574  1.5890 -0.8248 -0.8402
10663TIP3    H253405   3.162   5.349  14.669  0.0649 -0.2605  1.0496
10664TIP3   OH253406   0.480   4.209  15.564 -0.3825  0.8560 -0.2373
10664TIP3    H153407   0.572   4.184  15.568 -0.6120  0.1328  1.8885
10664TIP3    H253408   0.479   4.292  15.516  0.9342 -0.7982 -3.4497
10665TIP3   OH253409   1.051   0.757   2.307 -0.4325  0.1407 -0.0363
10665TIP3    H153410   0.997   0.798   2.374 -0.1767  0.9549 -0.3199
10665TIP3    H253411   1.018   0.794   2.224 -1.1852 -1.3349 -0.4372
10666TIP3   OH253412   5.420   4.116  14.509 -0.1603 -0.3550 -0.2654
10666TIP3    H153413   5.454   4.205  14.519 -1.4006  0.2369 -1.1148
10666TIP3    H253414   5.357   4.122  14.437  2.1043 -2.6121 -2.6398
10667TIP3   OH253415   4.011   5.573  10.928  0.3951 -0.3771  0.7282
10667TIP3    H153416   3.925   5.592  10.966  0.9154 -1.9978  2.8602
10667TIP3    H253417   4.004   5.483  10.897  1.0752 -0.2336  0.1355
10668TIP3   OH253418   2.594   6.492   3.396  0.2814 -0.2839 -0.7419
10668TIP3    H153419   2.509   6.471   3.434 -0.3696  0.0997 -1.9408
10668TIP3    H253420   2.657   6.469   3.464 -0.7715 -0.6384  0.1382
10669TIP3   OH253421   1.441   5.279  12.958 -0.2895 -0.5398  0.3260
10669TIP3    H153422   1.452   5.321  12.872  1.2454 -0.7859  0.3709
10669TIP3    H253423   1.530   5.267  12.990 -0.8361 -0.1106  2.1473
10670TIP3   OH253424   3.576   5.465  13.178 -0.1917  0.2085  0.5773
10670TIP3    H153425   3.567   5.524  13.103  0.8310  1.4866  1.4158
10670TIP3    H253426   3.495   5.414  13.178 -1.0700  1.5403 -0.2475
10671TIP3   OH253427   3.721   1.521  15.866  0.5765  0.6527 -0.1064
10671TIP3    H153428   3.714   1.617  15.868  0.8265  0.6924 -0.7306
10671TIP3    H253429   3.784   1.504  15.796 -0.7385 -0.0242 -1.1709
10672TIP3   OH253430   3.418   3.693  12.943 -0.2523 -0.0478 -0.6220
10672TIP3    H153431   3.336   3.714  12.989  0.0204 -0.9588  0.3225
10672TIP3    H253432   3.421   3.597  12.943  1.8802 -0.0614  1.3358
10673TIP3   OH253433   4.067   5.853   1.174 -0.2277 -0.5553  0.2401
10673TIP3    H153434   4.062   5.913   1.100  2.3524 -1.4306 -0.7521
10673TIP3    H253435   4.071   5.766   1.134  2.5769 -0.9876  1.2222
10674TIP3   OH253436   5.428   3.405   6.123 -0.0001  0.0096  0.1791
10674TIP3    H153437   5.377   3.466   6.176  1.1160 -0.3629  1.7721
10674TIP3    H253438   5.371   3.328   6.113 -0.4011  0.2690  0.4440
10675TIP3   OH253439   5.895   2.973  14.601  0.0419  0.5911  0.4618
10675TIP3    H153440   5.969   2.912  14.594 -0.3083 -0.4095  3.8539
10675TIP3    H253441   5.839   2.950  14.526  1.8708 -0.4084 -0.6945
10676TIP3   OH253442   3.938   0.978   4.230  0.1389 -0.4627 -0.0419
10676TIP3    H153443   3.905   1.036   4.298  1.1325 -0.6676  0.6467
10676TIP3    H253444   3.860   0.937   4.193 -0.3953 -0.9576  1.5339
10677TIP3   OH253445   6.265   2.694  13.542  0.4013  0.3129 -0.3560
10677TIP3    H153446   6.343   2.745  13.520  1.0631 -0.2070  0.6925
10677TIP3    H253447   6.249   2.712  13.634 -0.5373  0.1534 -0.4722
10678TIP3   OH253448   6.742   5.728  16.819  0.3668  0.0416  0.4868
10678TIP3    H153449   6.811   5.667  16.794  0.0416 -0.5298  0.9302
10678TIP3    H253450   6.666   5.700  16.767  0.0913 -0.2298  1.0252
10679TIP3   OH253451   4.840   6.585   1.251 -0.1737  0.1427 -0.0907
10679TIP3    H153452   4.791   6.530   1.312 -0.0049 -0.1816 -0.2432
10679TIP3    H253453   4.784   6.589   1.173 -0.0401 -0.0833 -0.1997
10680TIP3   OH253454   3.392   5.835   1.855  0.8615 -0.6385 -0.2572
10680TIP3    H153455   3.436   5.759   1.818 -1.5508 -0.3810 -4.3162
10680TIP3    H253456   3.436   5.911   1.816 -0.3585 -0.2429 -0.9378
10681TIP3   OH253457   6.179   2.913  15.968 -0.5412  0.8176  0.9045
10681TIP3    H153458   6.111   2.863  15.924  0.1659  1.2823 -0.8215
10681TIP3    H253459   6.164   2.899  16.062 -1.4287 -1.1361  0.5074
10682TIP3   OH253460   6.094   4.486  17.215  0.4036 -0.4718 -1.0790
10682TIP3    H153461   6.052   4.480  17.129  0.1708  0.3800 -1.0360
10682TIP3    H253462   6.186   4.503  17.195  0.5541 -1.3434 -1.1626
10683TIP3   OH253463   3.937   0.027   0.622  0.2555 -0.0422  0.0195
10683TIP3    H153464   3.863  -0.032   0.628  1.4474 -1.5213  0.8734
10683TIP3    H253465   3.975   0.027   0.710  0.7624  1.3801 -0.1704
10684TIP3   OH253466   2.924   0.411  17.369  0.0197  0.0444  0.3073
10684TIP3    H153467   2.962   0.486  17.323  1.3750  0.2359  1.6665
10684TIP3    H253468   2.996   0.348  17.375 -0.9109 -1.1093 -0.2027
10685TIP3   OH253469   0.450   1.435   0.852  0.3883 -0.0162  0.1992
10685TIP3    H153470   0.541   1.463   0.862  0.1715  0.8965 -0.2596
10685TIP3    H253471   0.399   1.517   0.856 -0.3422 -0.4308 -0.3703
10686TIP3   OH253472   2.649   3.369   1.922 -0.0360 -0.0208  0.0700
10686TIP3    H153473   2.672   3.342   1.832 -0.5115 -1.1781  0.2792
10686TIP3    H253474   2.733   3.396   1.960  0.0635  1.2160 -0.9382
10687TIP3   OH253475   0.660   2.614   5.819  0.1036  0.3021  0.2932
10687TIP3    H153476   0.661   2.560   5.898 -1.1728 -0.8625 -0.4380
10687TIP3    H253477   0.639   2.553   5.748 -1.9734  1.8036 -0.5090
10688TIP3   OH253478   6.223   4.341   0.235  0.2708 -0.1319 -0.3545
10688TIP3    H153479   6.135   4.312   0.214  0.3011 -0.6751  0.2330
10688TIP3    H253480   6.238   4.416   0.178 -0.5535 -0.0569 -0.4811
10689TIP3   OH253481   0.967   2.407   5.313 -0.0485 -0.0188 -0.0861
10689TIP3    H153482   0.891   2.456   5.345  0.0941  1.0334 -1.3032
10689TIP3    H253483   1.041   2.468   5.323  0.7268 -1.1078  1.3115
10690TIP3   OH253484   3.638   2.984  16.459 -0.0588  0.1469  0.5166
10690TIP3    H153485   3.565   2.989  16.397  0.7097 -0.4534 -0.4634
10690TIP3    H253486   3.618   3.050  16.525 -0.8633  0.8634 -0.4161
10691TIP3   OH253487   2.466   6.653  12.170  0.3368 -0.3277 -0.3053
10691TIP3    H153488   2.384   6.604  12.180  0.3058 -0.7651 -2.4177
10691TIP3    H253489   2.451   6.712  12.096  2.8996 -2.6552 -2.9059
10692TIP3   OH253490   6.252   6.749  13.460 -0.1400  0.0430  0.3385
10692TIP3    H153491   6.199   6.825  13.486 -1.9388 -1.7228  2.1937
10692TIP3    H253492   6.199   6.674  13.484  2.6683 -1.8720  0.9695
10693TIP3   OH253493   1.112   5.816   5.249  0.2534 -1.4355 -0.2583
10693TIP3    H153494   1.193   5.766   5.239  0.0751 -2.4144  2.2765
10693TIP3    H253495   1.131   5.878   5.320 -0.5315 -0.0735 -1.1999
10694TIP3   OH253496   5.723   2.356   0.649 -0.5990  0.0261  0.7600
10694TIP3    H153497   5.702   2.429   0.590  2.1660  0.2296 -0.1111
10694TIP3    H253498   5.708   2.277   0.597  1.9994  0.2073 -0.4368
10695TIP3   OH253499   3.118   5.992  16.973 -0.1210 -0.2563 -0.2051
10695TIP3    H153500   3.121   6.023  16.882  0.8861  2.7053  0.7157
10695TIP3    H253501   3.166   5.910  16.972  0.2452 -0.0711 -2.2723
10696TIP3   OH253502   6.247   3.811   1.993 -0.0248 -0.2504 -0.0211
10696TIP3    H153503   6.321   3.807   2.054 -0.5164  0.9003  0.6897
10696TIP3    H253504   6.247   3.901   1.962 -1.4260 -0.1042  0.3691
10697TIP3   OH253505   5.760   5.547  14.841  0.5796  0.1890  0.0163
10697TIP3    H153506   5.846   5.526  14.879  0.6583  0.1061 -0.2021
10697TIP3    H253507   5.774   5.539  14.747 -0.0465 -1.3279  0.0206
10698TIP3   OH253508   0.780   4.002   4.399 -0.1736  0.3600 -0.0361
10698TIP3    H153509   0.840   4.076   4.409 -1.2395  1.4066 -0.9909
10698TIP3    H253510   0.773   3.991   4.304  0.6898 -1.6146  0.0835
10699TIP3   OH253511   3.492   3.949   4.212  0.0068  0.2624 -0.4189
10699TIP3    H153512   3.520   4.037   4.235  1.4744 -0.3842  0.4476
10699TIP3    H253513   3.460   3.912   4.294  1.4794 -0.7121 -0.2356
10700TIP3   OH253514   5.738   0.554   0.696  0.4189 -0.0968  0.4444
10700TIP3    H153515   5.748   0.517   0.784  1.1515  0.3344  0.5535
10700TIP3    H253516   5.723   0.647   0.711  0.3082 -0.0611  0.1218
10701TIP3   OH253517   2.656   1.537  15.328  0.3658  0.8526 -0.2876
10701TIP3    H153518   2.635   1.553  15.420  0.5127 -1.6206  0.2465
10701TIP3    H253519   2.751   1.546  15.323  0.6330 -1.1306  0.3520
10702TIP3   OH253520   3.264   0.590   0.015 -0.1073 -0.4310 -0.1152
10702TIP3    H153521   3.249   0.529   0.087 -0.0261 -0.0611  0.2164
10702TIP3    H253522   3.350   0.566  -0.020  0.3189  0.0527  0.5778
10703TIP3   OH253523   2.814   2.944   0.593  0.3684  0.1106  0.0940
10703TIP3    H153524   2.791   2.974   0.681 -0.3651 -3.3821  1.2556
10703TIP3    H253525   2.910   2.937   0.594  0.3497 -0.0832  0.6832
10704TIP3   OH253526   1.231   5.080   2.300  0.1112  0.0371  0.0446
10704TIP3    H153527   1.241   5.049   2.210  0.6709  1.4017 -0.4015
10704TIP3    H253528   1.137   5.092   2.312 -0.1220 -1.7675  0.2421
10705TIP3   OH253529   0.767   1.075   2.759 -0.4671  0.8274 -0.3810
10705TIP3    H153530   0.831   1.013   2.723  0.2977  0.0237  2.1108
10705TIP3    H253531   0.699   1.019   2.797 -0.3975  1.5186  0.8270
10706TIP3   OH253532   4.013   3.960  17.263 -0.5351  0.3070  0.6990
10706TIP3    H153533   4.073   3.921  17.326 -0.3544 -2.2124 -0.8948
10706TIP3    H253534   4.063   4.031  17.223 -0.0826  0.8556  2.1970
10707TIP3   OH253535   1.972   1.625  16.257 -0.0179 -0.0249 -0.2190
10707TIP3    H153536   1.926   1.699  16.296 -0.4914 -0.7585  0.6535
10707TIP3    H253537   1.945   1.624  16.166 -0.7500  0.3123 -0.0058
10708TIP3   OH253538   0.769   4.700   2.091 -0.2455  0.5776  0.0758
10708TIP3    H153539   0.706   4.636   2.058 -1.4744  1.6239  0.3177
10708TIP3    H253540   0.802   4.661   2.172 -1.2366  0.3830  0.4033
10709TIP3   OH253541   3.250   4.433  17.144  0.0154  0.4620  0.6582
10709TIP3    H153542   3.168   4.450  17.098  1.2750  1.4078 -1.3982
10709TIP3    H253543   3.284   4.520  17.164  1.0647  0.1045  0.4590
10710TIP3   OH253544   5.422   2.386   6.165  0.2635  0.4071  0.9154
10710TIP3    H153545   5.476   2.372   6.087  2.1856 -1.7118  2.4778
10710TIP3    H253546   5.359   2.314   6.163 -3.7722  3.5686 -1.6010
10711TIP3   OH253547   2.897   0.364  12.050  0.0813 -0.3160  0.5077
10711TIP3    H153548   2.962   0.316  11.999 -0.2101  1.3646 -1.5946
10711TIP3    H253549   2.948   0.426  12.102  0.2844 -0.6254  0.6765
10712TIP3   OH253550   3.082   5.714  14.107  0.1573  0.8707 -0.1761
10712TIP3    H153551   3.126   5.659  14.171  0.3557  1.2169 -0.0151
10712TIP3    H253552   2.999   5.668  14.089  1.1158 -0.4862 -1.4633
10713TIP3   OH253553   1.067   0.148  14.765 -1.0038  0.2785 -0.1258
10713TIP3    H153554   1.045   0.079  14.702 -0.3695  0.4128 -0.4996
10713TIP3    H253555   1.138   0.196  14.724 -0.6191  0.3994  0.6733
10714TIP3   OH253556   2.587   2.624  13.863  0.6206 -0.1393 -0.3911
10714TIP3    H153557   2.630   2.695  13.815  0.4861 -0.6841 -1.3394
10714TIP3    H253558   2.657   2.561  13.880  0.4847 -0.3886 -0.7296
10715TIP3   OH253559   3.343   0.113   0.633  0.2565 -0.4767  0.0123
10715TIP3    H153560   3.404   0.119   0.707  3.1865  0.5506 -2.2836
10715TIP3    H253561   3.363   0.029   0.592  1.2968  0.5265 -1.6335
10716TIP3   OH253562   0.527   3.891  14.252  0.9248 -0.1042 -0.1594
10716TIP3    H153563   0.584   3.967  14.255  1.1670 -0.2785 -0.2774
10716TIP3    H253564   0.573   3.829  14.195  0.3958 -0.0637 -0.6382
10717TIP3   OH253565   4.161   0.169  14.212 -0.6361  0.0978 -0.3175
10717TIP3    H153566   4.201   0.138  14.294  2.4096 -0.3016 -1.8053
10717TIP3    H253567   4.129   0.090  14.169 -0.3756  0.0414 -0.4108
10718TIP3   OH253568   2.657   0.119   0.293 -0.0229 -0.0667 -0.0359
10718TIP3    H153569   2.726   0.131   0.227  0.3953 -0.1499  0.3789
10718TIP3    H253570   2.644   0.024   0.296 -0.2911 -0.0386 -0.2458
10719TIP3   OH253571   5.635   4.376   4.090  0.3964  0.2429  0.6812
10719TIP3    H153572   5.681   4.379   4.174  2.2842  1.2107 -0.3170
10719TIP3    H253573   5.623   4.468   4.066  0.6874 -0.0124 -0.5161
10720TIP3   OH253574   5.435   4.833  11.525 -0.0849  0.1006  0.5424
10720TIP3    H153575   5.429   4.761  11.589 -1.3274  0.8175  1.2524
10720TIP3    H253576   5.362   4.819  11.466 -0.0275  0.5063  0.3758
10721TIP3   OH253577   6.691   2.756  12.186  0.2298 -0.4955  0.3631
10721TIP3    H153578   6.596   2.744  12.190  0.2791 -0.8464  0.5418
10721TIP3    H253579   6.726   2.698  12.254  0.6878 -1.7525 -0.8815
10722TIP3   OH253580   1.579   0.499   4.034 -0.4095 -0.2180 -0.6461
10722TIP3    H153581   1.632   0.463   4.106 -0.4418  0.6277 -0.1945
10722TIP3    H253582   1.641   0.552   3.983 -0.3019 -1.0930 -1.4659
10723TIP3   OH253583   5.569   5.520   3.903  0.2631 -0.2698 -0.4753
10723TIP3    H153584   5.506   5.527   3.975  0.0317 -2.4442 -0.3990
10723TIP3    H253585   5.538   5.446   3.851  2.2006 -0.7592 -1.0122
10724TIP3   OH253586   2.647   6.025  15.397  0.0598  0.0370 -0.5413
10724TIP3    H153587   2.687   5.945  15.430  0.5739  0.3514 -0.3897
10724TIP3    H253588   2.691   6.043  15.314  1.3300  1.1937  0.3342
10725TIP3   OH253589   6.402   0.307  13.688 -0.2431  0.3252 -0.2572
10725TIP3    H153590   6.307   0.317  13.700 -0.0338  1.0314  1.0557
10725TIP3    H253591   6.423   0.226  13.734 -0.3003 -0.2057 -1.1524
10726TIP3   OH253592   6.197   6.482  13.797  0.5286 -0.5736 -0.4550
10726TIP3    H153593   6.168   6.546  13.732  2.1266  0.7845  0.0922
10726TIP3    H253594   6.287   6.509  13.819 -0.2091 -0.4309  2.9166
10727TIP3   OH253595   5.643   5.737   1.832  0.1910  0.1351  0.1288
10727TIP3    H153596   5.566   5.777   1.792  0.6699  1.6837  0.6849
10727TIP3    H253597   5.718   5.776   1.786  0.6756 -0.0111  0.7742
10728TIP3   OH253598   5.683   3.628  10.711  0.1604  0.3218 -0.4618
10728TIP3    H153599   5.664   3.710  10.666 -1.7263 -0.8693 -1.9592
10728TIP3    H253600   5.764   3.597  10.670 -0.7607 -0.0299 -2.1006
10729TIP3   OH253601   3.704   1.838  14.252 -0.0894 -0.4896 -0.2109
10729TIP3    H153602   3.685   1.757  14.203 -0.3844 -0.3971 -0.2521
10729TIP3    H253603   3.646   1.834  14.328 -2.0063  0.8875 -1.5089
10730TIP3   OH253604   1.208   1.481  12.014  0.1113  0.1429 -0.2102
10730TIP3    H153605   1.164   1.538  12.077 -0.4242 -0.5685  0.0774
10730TIP3    H253606   1.245   1.411  12.067  2.1255  1.0146 -0.3794
10731TIP3   OH253607   5.849   2.040  16.010  0.9062  0.3788 -0.3591
10731TIP3    H153608   5.927   2.001  16.049 -0.0986 -1.1203  0.2564
10731TIP3    H253609   5.782   2.029  16.077 -0.1108  0.6085 -1.3140
10732TIP3   OH253610   2.102   6.439  12.759 -0.5052  0.0057  0.5134
10732TIP3    H153611   2.107   6.526  12.720 -1.5637 -0.3208 -0.4522
10732TIP3    H253612   2.187   6.425  12.799  0.3501  0.7560 -0.9378
10733TIP3   OH253613   4.746   5.039  12.427  0.2047 -0.3929 -0.0618
10733TIP3    H153614   4.696   5.111  12.388  1.9577  0.7426 -0.3128
10733TIP3    H253615   4.818   5.082  12.473  1.4967 -2.0002 -0.5125
10734TIP3   OH253616   2.619   6.212   4.257  0.6060  0.0320  0.2000
10734TIP3    H153617   2.577   6.242   4.176  0.6452  0.9022  0.4954
10734TIP3    H253618   2.702   6.259   4.260  0.7886 -0.3059  0.5454
10735TIP3   OH253619   4.474   6.452   0.938 -0.0161 -0.2096  0.1931
10735TIP3    H153620   4.549   6.495   0.978  0.5498  1.3126 -2.2656
10735TIP3    H253621   4.405   6.519   0.937 -1.0186 -1.1835  1.2759
10736TIP3   OH253622   3.330   5.991   3.105 -0.3356 -0.7008 -0.3926
10736TIP3    H153623   3.401   6.011   3.166 -2.8048 -0.0010  2.4676
10736TIP3    H253624   3.375   5.978   3.021  2.9056  2.7621  0.4981
10737TIP3   OH253625   3.352   0.993  16.272  0.2952  0.3869 -0.5498
10737TIP3    H153626   3.308   1.020  16.192  0.5295  1.3921 -0.3527
10737TIP3    H253627   3.292   0.930  16.312 -0.5651  1.0719 -0.7217
10738TIP3   OH253628   3.839   6.605  12.383 -0.3534  0.4099 -1.0000
10738TIP3    H153629   3.888   6.626  12.304  0.2022  0.0937 -0.7435
10738TIP3    H253630   3.898   6.627  12.455 -1.0440  1.1694 -0.6527
10739TIP3   OH253631   6.561   2.191  11.221 -0.5572  0.1037  0.4913
10739TIP3    H153632   6.510   2.270  11.204  0.9265  1.1706  0.8366
10739TIP3    H253633   6.652   2.217  11.206 -0.1282 -2.0188 -1.1613
10740TIP3   OH253634   3.415   4.801  12.646 -0.1823  0.7176 -0.1751
10740TIP3    H153635   3.430   4.779  12.555  1.7006  1.3124 -0.0609
10740TIP3    H253636   3.387   4.719  12.687 -1.8229  0.6299 -1.4140
10741TIP3   OH253637   6.294   2.736  11.263 -0.5775  0.1910  0.1304
10741TIP3    H153638   6.270   2.758  11.173 -1.4773  1.4091  0.6438
10741TIP3    H253639   6.212   2.705  11.303 -0.1457 -0.5210  0.4818
10742TIP3   OH253640   0.795   1.067   4.759  0.3336 -0.4085 -0.7769
10742TIP3    H153641   0.736   1.142   4.761  2.2535  1.2701  2.4666
10742TIP3    H253642   0.878   1.103   4.726  0.5987 -1.7918 -1.7055
10743TIP3   OH253643   3.912   3.481  15.701  0.4199  0.0466  0.2946
10743TIP3    H153644   3.973   3.536  15.751 -0.1064 -0.4523  1.5269
10743TIP3    H253645   3.832   3.534  15.695  0.8745  0.6185 -1.1473
10744TIP3   OH253646   4.180   1.281  12.152 -0.0053 -0.4677  0.6168
10744TIP3    H153647   4.150   1.191  12.159  1.2833 -0.9830 -0.1819
10744TIP3    H253648   4.107   1.333  12.186 -1.3565 -1.6988 -0.2821
10745TIP3   OH253649   4.159   5.604  11.921  0.4133 -0.5916 -0.4949
10745TIP3    H153650   4.153   5.528  11.979 -0.6313 -0.1874 -0.0389
10745TIP3    H253651   4.122   5.573  11.838  0.0670 -0.6068 -0.3360
10746TIP3   OH253652   2.285   4.150   0.288  0.2521  0.1343  0.1810
10746TIP3    H153653   2.275   4.158   0.193  0.8670 -2.3743 -0.1767
10746TIP3    H253654   2.197   4.166   0.322  0.0004  0.9963 -0.7927
10747TIP3   OH253655   2.153   4.822   4.340  0.0873 -1.0661 -0.4578
10747TIP3    H153656   2.151   4.846   4.432  0.5608 -1.4905 -0.3292
10747TIP3    H253657   2.217   4.881   4.301 -1.1132  0.0500 -0.8099
10748TIP3   OH253658   2.628   3.893   6.125 -0.2255  0.1158 -0.4698
10748TIP3    H153659   2.630   3.965   6.189  0.5447  1.4459 -1.9322
10748TIP3    H253660   2.535   3.877   6.110 -0.4279 -0.3124  1.0455
10749TIP3   OH253661   6.171   0.116  12.947 -0.6226  0.4116 -0.0620
10749TIP3    H153662   6.203   0.110  13.038 -1.5575 -1.2446  0.2052
10749TIP3    H253663   6.248   0.098  12.894 -0.2679  0.4121  0.4384
10750TIP3   OH253664   1.284   2.388   6.547  0.3456 -0.6817  0.3476
10750TIP3    H153665   1.319   2.382   6.458  1.9762 -0.5020  0.9308
10750TIP3    H253666   1.354   2.353   6.602 -1.1622 -2.0562  1.4804
10751TIP3   OH253667   0.309   5.371  11.782 -0.0636  0.5687  0.3402
10751TIP3    H153668   0.310   5.357  11.688  0.3471  2.5466  0.0025
10751TIP3    H253669   0.388   5.423  11.800 -0.1710  0.2925  1.7680
10752TIP3   OH253670   6.663   1.870   4.698  0.0832 -0.2394 -0.0524
10752TIP3    H153671   6.731   1.818   4.654 -1.7284 -2.1540 -0.7678
10752TIP3    H253672   6.606   1.900   4.627 -0.2977  0.6258  0.6014
10753TIP3   OH253673   5.729   1.134  15.607  0.6643 -0.5518  0.2489
10753TIP3    H153674   5.690   1.070  15.666  0.5167 -0.8385 -0.1563
10753TIP3    H253675   5.734   1.214  15.659  0.9718 -0.9243  0.8033
10754TIP3   OH253676   6.048   5.179  15.692 -0.7005 -0.6647  0.1844
10754TIP3    H153677   6.037   5.134  15.608  1.6620  1.3510 -1.3291
10754TIP3    H253678   6.033   5.111  15.758 -2.3695 -2.3807 -1.8254
10755TIP3   OH253679   2.684   5.157  13.818 -0.5150  0.1005  0.1204
10755TIP3    H153680   2.737   5.169  13.897  0.2546  0.0768 -0.3765
10755TIP3    H253681   2.618   5.093  13.843 -2.0346  2.0911  1.5645
10756TIP3   OH253682   3.652   1.204   3.847  0.0780 -0.0382  0.1687
10756TIP3    H153683   3.728   1.228   3.793 -1.4160  1.5090 -1.3825
10756TIP3    H253684   3.606   1.138   3.795 -1.0114  0.9617 -0.1776
10757TIP3   OH253685   5.321   5.215   2.810  0.0921 -0.0174 -0.1186
10757TIP3    H153686   5.358   5.245   2.893 -0.6123 -1.2559  0.6786
10757TIP3    H253687   5.364   5.268   2.743  1.1058  0.5987  0.9988
10758TIP3   OH253688   3.668   1.704   4.124  0.0824  0.0256  0.4116
10758TIP3    H153689   3.598   1.645   4.152  0.8005 -1.0906 -0.0469
10758TIP3    H253690   3.748   1.663   4.157  0.9183 -1.0170 -2.5776
10759TIP3   OH253691   3.993   5.800   3.065 -0.7683  0.7665  0.0771
10759TIP3    H153692   3.919   5.843   3.109 -0.7011  1.8209 -0.7940
10759TIP3    H253693   4.030   5.868   3.008 -0.6402 -0.4566 -1.3575
10760TIP3   OH253694   0.066   1.515   1.526  0.8909  0.0473  0.1276
10760TIP3    H153695   0.077   1.609   1.517 -0.1082  0.2008  0.4053
10760TIP3    H253696   0.065   1.482   1.436 -0.2464  0.4981 -0.0464
10761TIP3   OH253697   4.459   0.480  14.266 -0.0288 -1.1761 -0.0053
10761TIP3    H153698   4.474   0.463  14.359 -0.1249  1.1411  0.5020
10761TIP3    H253699   4.364   0.484  14.257 -0.0062  0.7750  0.2948
10762TIP3   OH253700   2.345   6.395  16.756 -0.0093 -0.3891  0.0415
10762TIP3    H153701   2.377   6.458  16.692 -0.6831  0.2382  0.3021
10762TIP3    H253702   2.335   6.446  16.837 -0.9159 -0.7249  0.1600
10763TIP3   OH253703   4.954   2.252   2.986  0.3041 -0.0439  0.2287
10763TIP3    H153704   5.032   2.294   2.950  0.5528  0.3023  1.1263
10763TIP3    H253705   4.904   2.224   2.910  1.1433  0.0343 -0.3622
10764TIP3   OH253706   1.739   2.807   0.442 -0.1930  0.0035  0.1094
10764TIP3    H153707   1.765   2.865   0.513 -1.2492 -0.4918  0.9389
10764TIP3    H253708   1.698   2.865   0.377 -1.4636  0.1941  1.0382
10765TIP3   OH253709   1.486   2.207  11.030 -0.8891 -0.2034 -0.0369
10765TIP3    H153710   1.543   2.283  11.025 -1.6421  0.3262 -0.8689
10765TIP3    H253711   1.432   2.222  11.107  0.6494 -1.1351  1.2862
10766TIP3   OH253712   4.832   2.273   3.631  0.9977  0.0157  0.5661
10766TIP3    H153713   4.765   2.341   3.635 -0.5456 -1.4399  0.8629
10766TIP3    H253714   4.915   2.321   3.627 -0.0121  1.8893  0.7716
10767TIP3   OH253715   0.431   2.862  13.401  0.2623  0.0098 -0.8115
10767TIP3    H153716   0.393   2.810  13.330 -0.3758 -0.9202  0.1861
10767TIP3    H253717   0.524   2.871  13.376  0.1467 -0.6776 -1.5439
10768TIP3   OH253718   0.516   6.249   3.414  0.1303  0.0758 -0.2352
10768TIP3    H153719   0.444   6.312   3.408  0.8851  1.2940  2.2772
10768TIP3    H253720   0.490   6.190   3.485  1.3133  0.1388  0.2644
10769TIP3   OH253721   2.149   5.428  10.374  0.1372 -0.6392 -0.0545
10769TIP3    H153722   2.103   5.347  10.392  1.4251 -0.8930  2.5128
10769TIP3    H253723   2.149   5.475  10.457 -1.3263  2.4631 -1.6471
10770TIP3   OH253724   1.039   5.506   5.745 -0.7280 -0.0813  0.4231
10770TIP3    H153725   1.084   5.511   5.829  0.2588  2.4893 -0.1579
10770TIP3    H253726   1.016   5.413   5.735  0.5283 -0.7152  2.7702
10771TIP3   OH253727   3.126   2.314  14.141  0.2693 -0.6288 -0.5102
10771TIP3    H153728   3.076   2.233  14.137 -1.6975  0.1360  3.2384
10771TIP3    H253729   3.067   2.381  14.107  1.3618 -0.5177 -2.2898
10772TIP3   OH253730   1.770   6.159   3.490 -0.2227  0.0316 -0.2004
10772TIP3    H153731   1.700   6.219   3.518  0.3623  1.1474 -1.0835
10772TIP3    H253732   1.730   6.108   3.419 -0.0694  0.8832 -0.9176
10773TIP3   OH253733   4.259   4.897  17.031 -0.0910  0.1527  0.5461
10773TIP3    H153734   4.318   4.915  17.104 -1.0718  2.3348  0.8584
10773TIP3    H253735   4.223   4.982  17.007 -1.3111 -0.7873 -1.2079
10774TIP3   OH253736   2.020   4.842   5.832 -0.5621 -0.1817 -0.6060
10774TIP3    H153737   2.094   4.831   5.891  0.5610  1.2367 -1.6754
10774TIP3    H253738   1.994   4.753   5.808  2.8764 -0.8079 -2.6824
10775TIP3   OH253739   1.721   4.781   6.574  0.2591  0.1289 -0.4121
10775TIP3    H153740   1.648   4.824   6.530  0.7024 -0.3749 -1.6739
10775TIP3    H253741   1.689   4.692   6.592  0.9322 -0.4596 -2.0044
10776TIP3   OH253742   5.271   3.347   1.273  0.8420 -0.1152 -0.1860
10776TIP3    H153743   5.215   3.270   1.261  1.3968 -0.7081  0.8843
10776TIP3    H253744   5.241   3.409   1.206  0.1646 -1.1295 -0.8592
10777TIP3   OH253745   0.030   5.694  15.834  0.0859 -0.2721  0.0750
10777TIP3    H153746  -0.012   5.620  15.792 -1.0526 -1.3054  2.7932
10777TIP3    H253747   0.083   5.656  15.904  3.4151  1.2109 -1.3888
10778TIP3   OH253748   1.921   3.112  14.504  0.2946 -0.4333 -0.8913
10778TIP3    H153749   1.845   3.115  14.445 -0.1222 -1.3359 -0.4110
10778TIP3    H253750   1.959   3.025  14.489 -0.3377 -1.0427  0.7980
10779TIP3   OH253751   3.316   0.086  13.857 -0.5033 -0.0277 -0.0146
10779TIP3    H153752   3.263   0.128  13.790 -0.9698 -0.6202 -0.0284
10779TIP3    H253753   3.321  -0.006  13.830  2.5689  0.4269 -1.3149
10780TIP3   OH253754   0.546   1.148  12.489 -0.5393  0.2353 -0.5045
10780TIP3    H153755   0.640   1.129  12.492 -0.6757 -0.4936 -0.5769
10780TIP3    H253756   0.513   1.092  12.419 -1.2360 -0.4710  0.3711
10781TIP3   OH253757   2.578   5.796   0.199  0.0688  0.3494 -0.0254
10781TIP3    H153758   2.602   5.838   0.116 -0.4911 -2.9529 -2.0199
10781TIP3    H253759   2.484   5.778   0.190  0.4950 -2.2851  0.1863
10782TIP3   OH253760   4.516   0.440  16.433  0.2191  0.6175  0.4284
10782TIP3    H153761   4.447   0.407  16.377  0.5159 -2.0691  1.5173
10782TIP3    H253762   4.481   0.434  16.522  2.0247 -1.5465  1.0844
10783TIP3   OH253763   0.161   3.391  15.217 -0.0771  0.2535  0.1300
10783TIP3    H153764   0.148   3.471  15.167 -0.5837  1.0253  1.4399
10783TIP3    H253765   0.256   3.380  15.222  0.0165  1.1966  0.5660
10784TIP3   OH253766   2.030   1.546   3.871 -0.2713 -0.3348 -0.1841
10784TIP3    H153767   2.088   1.564   3.797 -0.7608  1.0516 -0.2614
10784TIP3    H253768   1.954   1.601   3.855 -0.8531 -0.8378  0.8053
10785TIP3   OH253769   4.588   1.042   0.069  0.2732  0.5823 -0.0773
10785TIP3    H153770   4.614   1.092   0.146  0.0241 -0.7810  0.9238
10785TIP3    H253771   4.666   1.042   0.013  1.1076 -0.0137  1.0465
10786TIP3   OH253772   0.865   1.570   3.151  0.1949  0.3592  0.2292
10786TIP3    H153773   0.898   1.567   3.062  0.7029 -1.3524  0.4392
10786TIP3    H253774   0.783   1.521   3.149  0.8976 -0.9133  0.9314
10787TIP3   OH253775   2.760   4.712   0.017  0.1805  0.3777  0.2220
10787TIP3    H153776   2.684   4.686   0.069 -1.1158  0.3644 -1.5915
10787TIP3    H253777   2.754   4.658  -0.062  1.7363  0.8244 -0.2266
10788TIP3   OH253778   2.230   1.511  16.170  0.2780  0.5522  0.1272
10788TIP3    H153779   2.153   1.544  16.216 -0.7849  0.1097 -1.2377
10788TIP3    H253780   2.261   1.585  16.119 -1.4489 -0.1282 -2.0859
10789TIP3   OH253781   3.548   2.296  16.952  0.1113 -0.3839  0.0113
10789TIP3    H153782   3.478   2.288  17.016 -2.2119  1.4967 -2.0858
10789TIP3    H253783   3.586   2.383  16.968 -2.8842  1.7683 -3.0982
10790TIP3   OH253784   0.212   2.589   2.534  0.2002  0.3960 -0.1362
10790TIP3    H153785   0.192   2.638   2.455  1.6844 -0.6444 -1.2144
10790TIP3    H253786   0.126   2.563   2.569 -0.4651  0.2006 -1.8397
10791TIP3   OH253787   1.606   2.305  16.348 -0.3046 -0.2365  0.6981
10791TIP3    H153788   1.684   2.342  16.388 -1.3794  0.1806  2.5469
10791TIP3    H253789   1.538   2.372  16.360 -0.6012  0.2220 -2.5199
10792TIP3   OH253790   0.660   4.107   1.671  0.3197  0.3207  0.6974
10792TIP3    H153791   0.755   4.120   1.668  0.3423  0.0144  0.0978
10792TIP3    H253792   0.631   4.162   1.744  1.2121 -1.1125  2.2093
10793TIP3   OH253793   6.249   2.122  15.014  0.5370 -0.0016  0.0371
10793TIP3    H153794   6.233   2.129  15.108  0.6348  0.3599  0.0268
10793TIP3    H253795   6.302   2.043  15.005  1.4785  0.5765  0.4010
10794TIP3   OH253796   0.038   2.135  14.250  0.0940  0.2303 -0.3254
10794TIP3    H153797   0.021   2.059  14.194 -0.3894  0.4463 -0.4748
10794TIP3    H253798   0.126   2.120  14.284  0.9972  0.7798 -2.2595
10795TIP3   OH253799   2.861   3.581  15.288  0.1627 -0.4696 -0.1209
10795TIP3    H153800   2.779   3.535  15.302  1.1170 -2.4543 -0.6997
10795TIP3    H253801   2.923   3.513  15.261  2.2486  0.8013  1.1819
10796TIP3   OH253802   4.005   3.283   1.480 -0.6216 -0.1537  0.0412
10796TIP3    H153803   3.986   3.192   1.460 -0.1611 -0.0190 -1.0630
10796TIP3    H253804   3.926   3.315   1.524 -0.9576 -0.9567  0.0427
10797TIP3   OH253805   3.927   4.960   6.307 -0.0542 -0.2663  0.1106
10797TIP3    H153806   3.853   4.995   6.357 -1.4424 -1.6840 -0.8500
10797TIP3    H253807   3.895   4.876   6.273  2.0302 -0.9490 -0.3068
10798TIP3   OH253808   3.689   2.544   1.586 -0.0718 -0.1656 -0.1106
10798TIP3    H153809   3.678   2.467   1.641 -0.3914 -0.1224 -0.1113
10798TIP3    H253810   3.768   2.586   1.619  0.1354 -0.5239 -0.1504
10799TIP3   OH253811   5.411   3.741   5.105 -0.0076 -0.5888  0.1279
10799TIP3    H153812   5.329   3.692   5.102 -0.4576  0.1597 -0.0909
10799TIP3    H253813   5.431   3.760   5.013  0.0353 -0.1636  0.2218
10800TIP3   OH253814   6.725   5.017   2.099 -0.5812 -0.0729  0.0122
10800TIP3    H153815   6.693   4.949   2.039 -2.5792 -1.2012  2.1947
10800TIP3    H253816   6.812   4.987   2.125  0.2083  0.2990 -2.0196
10801TIP3   OH253817   3.265   2.834   2.181 -0.1367 -0.4515  0.5296
10801TIP3    H153818   3.239   2.803   2.268 -1.4516  0.9720  0.6969
10801TIP3    H253819   3.184   2.870   2.144  0.8689  0.9814 -0.3773
10802TIP3   OH253820   2.549   0.519  17.032  0.0318 -0.0351  0.3339
10802TIP3    H153821   2.542   0.516  17.128 -1.8132  0.3716  0.2349
10802TIP3    H253822   2.643   0.519  17.016  0.4594  2.1879  2.2311
10803TIP3   OH253823   3.478   2.402  11.919  0.5832 -0.1760  0.4078
10803TIP3    H153824   3.433   2.447  11.848 -0.8483 -1.9024  0.1410
10803TIP3    H253825   3.511   2.321  11.879  0.2131 -0.9321  1.5675
10804TIP3   OH253826   2.165   3.676  15.429 -0.3256 -0.4404 -0.4779
10804TIP3    H153827   2.252   3.710  15.451 -1.4063  1.6697  0.7833
10804TIP3    H253828   2.142   3.721  15.347 -0.5318 -0.4193 -0.4092
10805TIP3   OH253829   1.569   4.157  17.311  0.1188 -0.0966 -0.0554
10805TIP3    H153830   1.613   4.240  17.292  0.1116  0.1462  0.9397
10805TIP3    H253831   1.519   4.138  17.232  1.6724 -0.1687 -1.0736
10806TIP3   OH253832   6.304   6.291   4.088  0.3434  0.1256 -0.2432
10806TIP3    H153833   6.360   6.369   4.085  0.4538  0.0842  0.3970
10806TIP3    H253834   6.364   6.221   4.113 -0.0137  0.1160  0.6454
10807TIP3   OH253835   0.821   5.137   0.706 -0.0423  0.0436  0.1727
10807TIP3    H153836   0.771   5.120   0.786  1.2064  1.0199  1.1982
10807TIP3    H253837   0.755   5.168   0.643 -1.4477 -3.0763 -0.0341
10808TIP3   OH253838   5.060   2.052  14.547 -0.4761  0.0633 -0.0683
10808TIP3    H153839   5.017   1.977  14.507 -0.3039 -0.8138  1.3598
10808TIP3    H253840   5.134   2.071  14.488 -1.0501 -0.2757 -0.9240
10809TIP3   OH253841   1.180   2.557   4.356 -0.3061  0.5355 -0.2846
10809TIP3    H153842   1.235   2.583   4.282 -0.4055  0.3683 -0.4169
10809TIP3    H253843   1.193   2.626   4.421  2.9341 -1.2187  1.1833
10810TIP3   OH253844   1.905   2.053  14.789  0.1423  0.1214  0.2195
10810TIP3    H153845   1.884   1.962  14.808  1.2518 -0.1397  0.2945
10810TIP3    H253846   1.822   2.093  14.764  0.1794 -1.8073 -3.6035
10811TIP3   OH253847   1.686   0.099   5.887  0.2944  0.2747 -0.4685
10811TIP3    H153848   1.766   0.094   5.836 -0.3517 -1.0410 -1.3886
10811TIP3    H253849   1.620   0.132   5.826  0.4980  3.3417  0.7915
10812TIP3   OH253850   5.588   4.564  16.123 -0.1023 -0.3084  0.1344
10812TIP3    H153851   5.623   4.613  16.197  1.2297  0.2134 -0.8136
10812TIP3    H253852   5.660   4.508  16.094 -0.5547 -0.4043 -0.8554
10813TIP3   OH253853   6.094   5.988  16.398  0.0201  0.1441  0.7392
10813TIP3    H153854   6.016   5.951  16.440  0.6076 -1.0580  0.8174
10813TIP3    H253855   6.148   6.018  16.471 -0.1971  0.6137  0.7047
10814TIP3   OH253856   5.973   1.208   2.978  0.2121 -0.0812  0.1526
10814TIP3    H153857   5.995   1.292   3.019  2.4942  0.8927 -2.6904
10814TIP3    H253858   5.886   1.223   2.940  1.3036  1.7546 -1.8475
10815TIP3   OH253859   4.909   4.322  16.303 -0.5390 -0.1599 -0.1238
10815TIP3    H153860   4.940   4.275  16.226 -0.0800  0.1970 -0.1604
10815TIP3    H253861   4.989   4.354  16.346 -0.8602  1.0286 -0.3787
10816TIP3   OH253862   0.450   0.570   3.870 -0.2058 -0.4346  0.1285
10816TIP3    H153863   0.533   0.548   3.829 -0.8620 -0.0380 -1.5124
10816TIP3    H253864   0.387   0.572   3.797 -1.3160  0.9102  1.0565
10817TIP3   OH253865   1.863   1.073  10.822 -0.3437 -0.0577 -0.3523
10817TIP3    H153866   1.771   1.081  10.847 -0.6021 -1.2250 -0.8497
10817TIP3    H253867   1.873   1.132  10.748 -0.6901  0.1088 -0.2652
10818TIP3   OH253868   4.329   2.783   4.983 -0.6100 -0.6064 -0.1033
10818TIP3    H153869   4.293   2.715   5.040  0.5662 -1.7504 -0.6794
10818TIP3    H253870   4.395   2.827   5.037 -0.8907 -0.3611  0.0457
10819TIP3   OH253871   1.231   4.253   3.837  0.4890  0.1906 -0.2664
10819TIP3    H153872   1.253   4.167   3.873  1.0270  0.4203 -0.0308
10819TIP3    H253873   1.233   4.241   3.742 -2.0582 -0.7088 -0.3008
10820TIP3   OH253874   4.255   4.128  16.574 -0.1919 -0.4650 -0.6220
10820TIP3    H153875   4.300   4.212  16.567 -1.2854  0.2434  0.5160
10820TIP3    H253876   4.324   4.063  16.559  0.9507  0.6066 -0.2082
10821TIP3   OH253877   5.186   1.574   2.157  0.3260  0.4081  0.2394
10821TIP3    H153878   5.191   1.505   2.092  1.0641 -0.8109  1.5310
10821TIP3    H253879   5.251   1.550   2.224  0.9873  2.6204  0.4917
10822TIP3   OH253880   4.810   3.725   0.646 -0.0223  0.5654 -0.0587
10822TIP3    H153881   4.759   3.804   0.667 -0.9214 -0.1400  0.5455
10822TIP3    H253882   4.901   3.751   0.658 -0.3637  0.9270  2.4621
10823TIP3   OH253883   4.391   6.210  16.001 -0.3402  0.6334  0.5156
10823TIP3    H153884   4.473   6.245  16.036 -0.5564  2.2265 -0.4727
10823TIP3    H253885   4.346   6.173  16.077  1.8770 -1.6392  0.8839
10824TIP3   OH253886   5.027   1.818   2.444 -0.1368 -0.2255 -0.5344
10824TIP3    H153887   5.012   1.857   2.358 -0.9257 -2.0858 -1.2934
10824TIP3    H253888   5.122   1.815   2.453 -0.0345 -0.4678 -1.5695
10825TIP3   OH253889   3.224   5.731   4.226 -0.0389  0.1233 -0.6003
10825TIP3    H153890   3.172   5.797   4.179  0.4345  1.4050  0.5896
10825TIP3    H253891   3.214   5.754   4.319 -1.4291 -2.6666  0.0497
10826TIP3   OH253892   4.019   5.442  13.839 -0.7612  0.3120 -0.8162
10826TIP3    H153893   4.038   5.416  13.929 -0.6335 -1.1936 -1.2529
10826TIP3    H253894   3.924   5.451  13.836 -0.7268  0.8343 -0.4175
10827TIP3   OH253895   6.254   4.459   2.020  0.5063  0.2241 -1.0741
10827TIP3    H153896   6.249   4.497   1.933  1.3270 -0.5808 -1.4905
10827TIP3    H253897   6.333   4.498   2.059  1.0786 -0.6548 -1.3246
10828TIP3   OH253898   1.767   6.222  14.806 -0.1058  0.0223 -0.2236
10828TIP3    H153899   1.729   6.135  14.795 -0.3957 -0.0251  0.9221
10828TIP3    H253900   1.860   6.211  14.788 -0.2720 -0.3535 -0.8544
10829TIP3   OH253901   4.294   3.383   5.928 -0.0476 -0.0015 -0.7648
10829TIP3    H153902   4.227   3.450   5.910  0.0034  0.6883  1.3105
10829TIP3    H253903   4.330   3.409   6.013  1.6398 -1.3635 -1.0351
10830TIP3   OH253904   4.429   2.945  16.511  0.5474 -0.2890  0.1889
10830TIP3    H153905   4.515   2.943  16.554  1.2030  0.3793 -1.0566
10830TIP3    H253906   4.381   3.013  16.557  0.6568 -0.6849  0.9134
10831TIP3   OH253907   1.115   4.079  12.833  0.1256  0.0559 -0.4759
10831TIP3    H153908   1.070   4.149  12.879 -2.1006 -2.6623  1.7878
10831TIP3    H253909   1.199   4.069  12.879  0.0024  0.5194 -0.1528
10832TIP3   OH253910   4.717   4.238   4.801  0.2336  0.3391 -0.2242
10832TIP3    H153911   4.708   4.328   4.772  2.6839  1.6606  2.6895
10832TIP3    H253912   4.647   4.226   4.865  1.3424  1.0456  1.1689
10833TIP3   OH253913   6.053   5.752   4.660 -0.9658  0.4864  0.7158
10833TIP3    H153914   6.121   5.733   4.594 -1.1598  0.0446  0.6358
10833TIP3    H253915   5.973   5.716   4.622 -1.3498  1.4480  0.5917
10834TIP3   OH253916   5.941   0.854   5.668  0.1006  0.1756 -0.7074
10834TIP3    H153917   6.024   0.807   5.658  2.0197  3.0052  0.5862
10834TIP3    H253918   5.891   0.832   5.589  0.9509 -3.5559 -0.3935
10835TIP3   OH253919   6.033   6.092   5.011  0.0722 -0.3029  0.5229
10835TIP3    H153920   6.068   6.003   5.009  0.8306 -0.0030  0.2244
10835TIP3    H253921   5.945   6.082   5.048 -0.5052 -1.3864 -1.0434
10836TIP3   OH253922   4.052   5.737  16.370 -0.3908  0.1697 -0.0858
10836TIP3    H153923   4.087   5.768  16.287 -0.3958  1.8561  0.5053
10836TIP3    H253924   4.128   5.733  16.428 -0.6170  0.4338  0.2312
10837TIP3   OH253925   2.554   4.752  13.314  0.0916 -0.0409  0.8779
10837TIP3    H153926   2.573   4.845  13.328  1.9163 -0.2079 -0.1041
10837TIP3    H253927   2.508   4.750  13.230  0.1417 -0.0115  0.8487
10838TIP3   OH253928   4.359   0.488   5.539 -0.5842  0.1970  0.6166
10838TIP3    H153929   4.265   0.509   5.533 -0.5250  0.6204  1.1069
10838TIP3    H253930   4.362   0.399   5.573 -0.8217 -0.1890 -0.3378
10839TIP3   OH253931   6.168   6.308  13.412  0.2642  0.5525  0.5803
10839TIP3    H153932   6.150   6.307  13.318  0.8616  3.9302  0.3268
10839TIP3    H253933   6.086   6.277  13.452 -0.1265 -0.5803 -0.9869
10840TIP3   OH253934   0.312   6.000   3.032  0.1340 -0.5953  0.2249
10840TIP3    H153935   0.291   5.908   3.019 -0.5368 -0.3242 -0.6655
10840TIP3    H253936   0.256   6.047   2.971  0.5387  0.4039  0.5961
10841TIP3   OH253937   2.298   3.755   1.857 -0.2854 -0.2834 -0.6326
10841TIP3    H153938   2.212   3.762   1.900  0.1964  0.2774  0.2612
10841TIP3    H253939   2.283   3.695   1.783 -1.4579 -0.1401 -0.5270
10842TIP3   OH253940   1.551   1.316  15.253  0.1085  0.2747  0.4731
10842TIP3    H153941   1.527   1.339  15.343 -0.6523  0.5208  0.2135
10842TIP3    H253942   1.644   1.292  15.258 -0.4110 -1.7466  1.7114
10843TIP3   OH253943   1.283   1.355   5.550 -0.3432  0.4070 -0.5554
10843TIP3    H153944   1.342   1.309   5.491  2.4918 -1.1140  3.0567
10843TIP3    H253945   1.251   1.287   5.610  0.6839  2.3523  2.4577
10844TIP3   OH253946   0.754   1.345   6.209 -0.2128  0.9986 -0.7323
10844TIP3    H153947   0.806   1.423   6.226  0.5952  0.3925 -0.3031
10844TIP3    H253948   0.664   1.376   6.204  0.2732  2.2735 -2.7377
10845TIP3   OH253949   3.925   5.844  12.025  0.3897  0.3531 -0.0255
10845TIP3    H153950   3.984   5.800  12.086  2.5173  0.9006 -1.5923
10845TIP3    H253951   3.876   5.772  11.985  1.0443 -0.2499  0.2313
10846TIP3   OH253952   5.630   2.432  15.901  0.6597 -0.2553 -0.0341
10846TIP3    H153953   5.589   2.509  15.940 -1.0231  0.9230 -3.7068
10846TIP3    H253954   5.617   2.362  15.966 -2.0815  1.4397  1.4168
10847TIP3   OH253955   6.689   3.939   6.059  0.3576  0.2828  0.2880
10847TIP3    H153956   6.599   3.911   6.046  1.0728 -1.3346 -1.7396
10847TIP3    H253957   6.716   3.897   6.141 -0.4348  0.0210  0.4237
10848TIP3   OH253958   0.972   5.963  12.244  0.2549  0.2482 -0.7456
10848TIP3    H153959   0.898   5.947  12.185 -2.0313  1.8932  1.4607
10848TIP3    H253960   0.993   6.055  12.232  0.0554  0.4942  0.6490
10849TIP3   OH253961   1.927   2.606  13.759  0.0292  0.7143  0.1737
10849TIP3    H153962   1.942   2.602  13.665 -0.4816  1.1099  0.0712
10849TIP3    H253963   2.005   2.648  13.795 -0.1524  1.3432 -0.1705
10850TIP3   OH253964   3.642   4.671   5.002 -0.3811 -0.4872 -0.1912
10850TIP3    H153965   3.659   4.591   5.052  0.8501 -0.0547  0.1266
10850TIP3    H253966   3.549   4.667   4.980 -1.1933 -0.3560  2.7718
10851TIP3   OH253967   5.444   0.216  12.445  0.0453 -0.1906  0.0492
10851TIP3    H153968   5.441   0.186  12.535  0.0157  2.0224  0.8492
10851TIP3    H253969   5.359   0.190  12.408  0.6871 -2.5245  0.1178
10852TIP3   OH253970   0.465   4.282  12.694  0.4553 -0.2827  0.2133
10852TIP3    H153971   0.426   4.290  12.781 -0.1294 -0.3794 -0.0300
10852TIP3    H253972   0.404   4.330  12.637  1.5313  0.9384  0.0503
10853TIP3   OH253973   4.695   2.537  14.990 -0.0882 -0.0933 -0.4942
10853TIP3    H153974   4.779   2.582  14.984 -0.1212 -0.0300 -0.4866
10853TIP3    H253975   4.694   2.477  14.916  0.2772 -0.6219 -0.0759
10854TIP3   OH253976   2.029   1.710  12.097  0.2460 -0.4437 -0.1670
10854TIP3    H153977   2.076   1.766  12.035  0.1225 -0.0467  0.0961
10854TIP3    H253978   1.957   1.673  12.046  0.4637 -0.5463 -0.4015
10855TIP3   OH253979   4.918   2.464  14.546 -0.3926 -0.6010 -0.0326
10855TIP3    H153980   4.856   2.395  14.523 -1.7886  0.1440  1.3244
10855TIP3    H253981   4.896   2.536  14.487 -0.9804 -0.2609  0.5931
10856TIP3   OH253982   4.041   0.532   4.105 -0.2072  0.2732  0.5360
10856TIP3    H153983   4.083   0.450   4.079  1.1640  0.8092  0.9805
10856TIP3    H253984   3.964   0.538   4.048 -0.2364 -1.2166  0.3656
10857TIP3   OH253985   1.404   1.739  17.292  0.4637  0.0227  0.2250
10857TIP3    H153986   1.440   1.748  17.204  0.5517  0.5272  0.3095
10857TIP3    H253987   1.432   1.818  17.337 -1.0418  0.6195  0.1904
10858TIP3   OH253988   1.256   6.674  12.235 -0.2518  0.0270  0.5318
10858TIP3    H153989   1.276   6.636  12.320  2.8555  0.5024  0.1311
10858TIP3    H253990   1.230   6.764  12.255 -0.4463 -0.1378  1.0366
10859TIP3   OH253991   0.479   0.564  15.909  0.3015 -0.3904 -0.7268
10859TIP3    H153992   0.530   0.491  15.946 -1.0253 -1.0789 -0.1965
10859TIP3    H253993   0.426   0.523  15.840  0.6683  0.3784 -1.4836
10860TIP3   OH253994   4.096   1.967  11.583  0.0800  0.0234 -0.1198
10860TIP3    H153995   4.092   1.875  11.608  0.0761  0.3068  1.0043
10860TIP3    H253996   4.070   2.014  11.663  1.3165  1.0304 -0.2855
10861TIP3   OH253997   5.034   1.578  13.211 -0.0510 -0.1945 -0.0880
10861TIP3    H153998   5.030   1.497  13.159 -0.9382  0.4776 -1.1084
10861TIP3    H253999   5.109   1.625  13.175  0.7019 -0.7147  0.7653
10862TIP3   OH254000   6.111   0.986  15.334 -0.4512  0.0717 -0.0135
10862TIP3    H154001   6.140   0.930  15.405 -1.4057 -0.8047 -0.2927
10862TIP3    H254002   6.057   0.930  15.279 -2.4577  1.5342  0.3551
10863TIP3   OH254003   2.632   2.726  14.896 -0.3139 -0.3774 -0.4670
10863TIP3    H154004   2.696   2.735  14.966  0.0405 -1.9095 -0.5677
10863TIP3    H254005   2.668   2.659  14.839  0.0751  1.7684 -2.9146
10864TIP3   OH254006   1.836   0.519  17.209  0.6232 -0.3346 -0.2359
10864TIP3    H154007   1.930   0.501  17.198  0.6688  0.2976 -0.9361
10864TIP3    H254008   1.809   0.462  17.281  1.9793  0.8885  1.3346
10865TIP3   OH254009   2.496   6.115   0.097  0.0729  0.0080 -0.0675
10865TIP3    H154010   2.432   6.065   0.148  1.8939 -0.5530  1.7965
10865TIP3    H254011   2.515   6.192   0.150  1.4360 -0.1727 -0.2610
10866TIP3   OH254012   3.889   2.652   2.946 -0.1251  0.4611 -0.3199
10866TIP3    H154013   3.918   2.574   2.993 -1.9970 -0.4774 -0.6343
10866TIP3    H254014   3.883   2.624   2.854 -1.5491  0.7337 -0.3222
10867TIP3   OH254015   2.334   3.727  13.470 -0.7343  0.3382 -0.4926
10867TIP3    H154016   2.298   3.775  13.395 -1.8547 -1.1767 -0.9873
10867TIP3    H254017   2.429   3.729  13.456 -0.8374  1.3365 -1.1506
10868TIP3   OH254018   0.622   0.789   5.107  0.1343 -0.2695 -0.2570
10868TIP3    H154019   0.642   0.697   5.089 -0.2840 -0.4966  0.4065
10868TIP3    H254020   0.672   0.837   5.041  1.3804 -0.9043  0.1810
10869TIP3   OH254021   4.684   0.010   2.824 -0.1476 -0.5470  0.0603
10869TIP3    H154022   4.686  -0.077   2.863 -0.0007 -0.5345  0.0841
10869TIP3    H254023   4.758   0.056   2.864 -0.9672  0.0023  0.9750
10870TIP3   OH254024   0.845   4.037   4.819 -0.0800 -0.1833  0.2582
10870TIP3    H154025   0.834   4.018   4.726 -0.3498  0.2858  0.1907
10870TIP3    H254026   0.800   3.965   4.863  0.1404 -0.4643  0.0258
10871TIP3   OH254027   4.341   3.523   0.416 -0.3380  0.3732  0.2931
10871TIP3    H154028   4.418   3.580   0.411  0.1764 -0.2044  1.2238
10871TIP3    H254029   4.302   3.527   0.329 -0.3482  2.1756  0.3493
10872TIP3   OH254030   2.976   3.287   5.182 -0.5827  0.2124  0.0343
10872TIP3    H154031   2.897   3.334   5.157 -0.2048 -0.4636 -2.6616
10872TIP3    H254032   2.947   3.197   5.196 -0.2403 -0.1878 -1.6334
10873TIP3   OH254033   3.956   5.177  13.414  0.2894 -1.0288  0.5619
10873TIP3    H154034   3.952   5.170  13.509 -1.2564 -1.1053  0.5232
10873TIP3    H254035   3.941   5.270  13.396 -1.0725 -1.2664  0.3609
10874TIP3   OH254036   6.057   5.215  14.925 -0.2595 -0.5312  0.4711
10874TIP3    H154037   6.026   5.306  14.927  0.0813 -0.4103  2.5406
10874TIP3    H254038   6.003   5.170  14.990 -0.1274 -1.7242 -0.2176
10875TIP3   OH254039   0.311   3.030   2.692 -0.1693  0.3120 -0.2010
10875TIP3    H154040   0.217   3.013   2.687 -0.0579 -0.8611  1.0094
10875TIP3    H254041   0.334   3.069   2.608 -1.4231 -1.0020 -1.1783
10876TIP3   OH254042   5.534   4.007   1.497  0.0404  0.3315  0.1337
10876TIP3    H154043   5.587   3.959   1.561 -0.4334  0.7202  0.8385
10876TIP3    H254044   5.589   4.081   1.472  0.4104 -0.0722 -0.2623
10877TIP3   OH254045   6.343   0.209  15.692 -0.0362  0.0076 -0.0162
10877TIP3    H154046   6.317   0.295  15.659 -0.2206 -0.1963 -0.4101
10877TIP3    H254047   6.428   0.224  15.733  1.2340 -0.1299 -2.4288
10878TIP3   OH254048   6.570   5.152  11.286 -0.1779 -0.1944 -0.2023
10878TIP3    H154049   6.480   5.179  11.270 -0.2702 -0.3057  0.1205
10878TIP3    H254050   6.614   5.162  11.202 -0.1847  1.0718 -0.0736
10879TIP3   OH254051   3.027   3.940  10.755 -0.1098  0.7112  0.2600
10879TIP3    H154052   2.958   3.879  10.728  0.9879  0.7166 -3.0638
10879TIP3    H254053   3.108   3.899  10.724  0.8249  3.0148 -0.5713
10880TIP3   OH254054   0.873   3.177  11.201  0.0643 -0.3552 -0.1508
10880TIP3    H154055   0.922   3.096  11.186  0.3147 -0.9013  3.0598
10880TIP3    H254056   0.783   3.148  11.217  0.3019 -0.1489  1.7958
10881TIP3   OH254057   0.843   5.677  14.647 -0.3219 -0.4070  0.1960
10881TIP3    H154058   0.858   5.762  14.604 -0.2575  0.0871  1.1777
10881TIP3    H254059   0.753   5.682  14.679 -0.2439 -0.6253  0.4511
10882TIP3   OH254060   4.480   3.401   3.235 -0.3033  0.0211  0.1987
10882TIP3    H154061   4.395   3.360   3.252 -0.7433  0.6801 -0.3360
10882TIP3    H254062   4.489   3.467   3.304 -0.2495 -0.0051  0.2171
10883TIP3   OH254063   3.583   0.933   1.619 -0.1251  0.0386  0.5557
10883TIP3    H154064   3.637   0.894   1.550 -0.8603  0.6372 -0.3914
10883TIP3    H254065   3.575   1.025   1.594 -0.2313  0.3163  1.5712
10884TIP3   OH254066   6.334   1.973  17.361  0.2353 -0.1630  0.3130
10884TIP3    H154067   6.410   1.916  17.370  0.7567  0.3972 -0.3790
10884TIP3    H254068   6.365   2.059  17.390 -0.7239 -0.3416  1.9644
10885TIP3   OH254069   1.997   6.144  12.764  0.3243 -0.7791  0.2514
10885TIP3    H154070   2.056   6.181  12.699 -0.9855 -0.2918 -0.7088
10885TIP3    H254071   1.934   6.093  12.713 -1.9938  1.2870  0.8078
10886TIP3   OH254072   6.193   5.509   5.237 -0.4420 -0.0805 -0.1235
10886TIP3    H154073   6.228   5.470   5.317 -0.3654  0.0478 -0.0940
10886TIP3    H254074   6.104   5.474   5.231 -0.9930  1.0663  0.8330
10887TIP3   OH254075   1.882   5.261  17.125 -0.8388  0.6194 -0.2860
10887TIP3    H154076   1.951   5.300  17.178 -1.6517  1.8923 -0.1251
10887TIP3    H254077   1.909   5.170  17.113  0.1163  0.7124  1.0173
10888TIP3   OH254078   4.590   6.736  17.098  0.0491  0.3697 -0.4152
10888TIP3    H154079   4.497   6.754  17.089  0.3106  2.3322  0.4042
10888TIP3    H254080   4.633   6.816  17.067  1.5030 -0.7776 -1.4875
10889TIP3   OH254081   3.544   0.514   2.387  0.1347  0.7252 -0.0894
10889TIP3    H154082   3.526   0.441   2.446  0.3003 -0.2982 -1.2600
10889TIP3    H254083   3.517   0.591   2.436  0.2338 -0.0809  1.3048
10890TIP3   OH254084   0.525   6.693   3.981  0.3012 -0.7071  0.6052
10890TIP3    H154085   0.610   6.705   3.937 -0.2351  0.5167 -0.1448
10890TIP3    H254086   0.504   6.779   4.016 -0.8487 -0.8771  0.3747
10891TIP3   OH254087   4.087   3.054  16.772  0.0769  0.4802  0.2516
10891TIP3    H154088   4.117   2.964  16.782  1.2976  0.9335  1.0241
10891TIP3    H254089   4.145   3.091  16.706 -2.1146  0.0218 -2.0561
10892TIP3   OH254090   3.158   5.082  12.995 -0.1471  0.2342 -0.0022
10892TIP3    H154091   3.159   5.053  12.904  1.4537 -0.1639  0.1144
10892TIP3    H254092   3.090   5.029  13.037 -0.2563 -0.2321 -0.7536
10893TIP3   OH254093   6.335   4.986   2.290  1.2069  0.9030 -0.2462
10893TIP3    H154094   6.318   4.894   2.311  1.3833  1.0091  0.4004
10893TIP3    H254095   6.270   5.009   2.224 -0.9305  1.1660  1.8127
10894TIP3   OH254096   6.104   1.388   5.042 -0.3953 -0.3576  0.0682
10894TIP3    H154097   6.168   1.444   4.999 -1.3695  1.1844  0.5421
10894TIP3    H254098   6.122   1.399   5.136  0.2404 -1.8957  0.1552
10895TIP3   OH254099   2.958   2.140  15.576 -0.1285  0.4208  0.2802
10895TIP3    H154100   3.030   2.160  15.635 -1.7461 -0.2955  2.6655
10895TIP3    H254101   2.999   2.126  15.491  2.3202  1.6297  1.1839
10896TIP3   OH254102   0.128   4.096   3.277  0.0223 -0.3243 -0.0927
10896TIP3    H154103   0.192   4.143   3.331 -1.0148  2.5881 -1.2158
10896TIP3    H254104   0.165   4.099   3.189 -0.5277 -0.7543 -0.3415
10897TIP3   OH254105   2.159   2.271  15.622 -0.3083 -0.0085  0.3304
10897TIP3    H154106   2.179   2.207  15.553  2.3524 -0.8299  1.7389
10897TIP3    H254107   2.211   2.348  15.599 -0.9977  0.4802  0.3791
10898TIP3   OH254108   2.328   3.018  11.987 -0.1154 -0.2250 -0.4204
10898TIP3    H154109   2.330   3.027  11.892  0.4745 -0.8350 -0.4679
10898TIP3    H254110   2.420   3.008  12.013 -0.1637  1.0666  0.3332
10899TIP3   OH254111   0.578   2.500   1.376  0.1846 -0.4970  0.1831
10899TIP3    H154112   0.603   2.462   1.292 -1.3654 -1.8299  0.2864
10899TIP3    H254113   0.541   2.585   1.353 -2.3968 -1.7956 -0.7989
10900TIP3   OH254114   6.661   1.809   0.344 -0.1944 -0.2381  0.5370
10900TIP3    H154115   6.581   1.850   0.312  0.1704 -1.0426 -1.5225
10900TIP3    H254116   6.657   1.821   0.439 -2.0533  0.9620  0.3600
10901TIP3   OH254117   4.748   0.111   0.880 -0.2197  0.2915 -0.3436
10901TIP3    H154118   4.795   0.047   0.934  1.1943 -1.7310 -3.7057
10901TIP3    H254119   4.809   0.184   0.868  1.2097 -1.1547 -2.5235
10902TIP3   OH254120   5.439   6.643   4.940  0.6801 -0.4640  0.2120
10902TIP3    H154121   5.372   6.594   4.987  1.9875 -0.7090  1.9070
10902TIP3    H254122   5.412   6.639   4.848 -0.4980 -2.3306  0.5974
10903TIP3   OH254123   0.814   2.074   0.304 -0.5465 -0.2807 -0.0277
10903TIP3    H154124   0.874   2.000   0.311  0.5721  0.4982 -0.9682
10903TIP3    H254125   0.838   2.117   0.222 -0.3043  1.8574  1.0901
10904TIP3   OH254126   4.577   6.230   6.286  0.1269  0.0961  0.3149
10904TIP3    H154127   4.673   6.225   6.296  0.1370 -2.8114 -0.3548
10904TIP3    H254128   4.564   6.247   6.193 -0.0167  0.4587  0.4004
10905TIP3   OH254129   3.838   1.897   0.478  0.0641  0.1109  0.5428
10905TIP3    H154130   3.766   1.959   0.486 -0.2826 -0.2637  0.3184
10905TIP3    H254131   3.911   1.951   0.446 -0.1755  0.4480  0.5560
10906TIP3   OH254132   6.095   2.394  14.266 -0.0995  0.3254  0.3135
10906TIP3    H154133   6.049   2.465  14.221 -0.1865 -0.6910 -1.3100
10906TIP3    H254134   6.122   2.335  14.195  0.7752 -0.7908  1.5310
10907TIP3   OH254135   3.373   0.011   2.847  0.3936  0.3200 -0.0577
10907TIP3    H154136   3.308   0.061   2.796  0.7074  1.4586  0.6245
10907TIP3    H254137   3.457   0.047   2.821  0.5716  0.8234  1.1431
10908TIP3   OH254138   5.066   0.111   2.722  0.1686  0.2305 -0.9674
10908TIP3    H154139   5.116   0.069   2.652  0.5416 -1.8709  0.4573
10908TIP3    H254140   5.099   0.069   2.802  1.2768  3.9718  0.7480
10909TIP3   OH254141   5.559   0.587   4.544  0.2267 -0.3486 -0.5578
10909TIP3    H154142   5.561   0.664   4.487 -0.7908  0.4900  0.5032
10909TIP3    H254143   5.559   0.513   4.484  0.5581  0.4759 -1.6137
10910TIP3   OH254144   5.052   2.754   5.267  0.2712 -0.6945 -0.2275
10910TIP3    H154145   5.142   2.787   5.268  0.0388 -0.0102 -1.0672
10910TIP3    H254146   5.046   2.699   5.345  1.0786  0.1480  0.4431
10911TIP3   OH254147   4.004   1.624  16.601  0.4082 -0.2369 -0.1279
10911TIP3    H154148   4.005   1.592  16.691  0.4928 -0.1097 -0.0831
10911TIP3    H254149   3.988   1.547  16.547  1.5697 -0.5059 -0.0975
10912TIP3   OH254150   4.264   1.574   1.395  0.4576 -0.7515 -0.1812
10912TIP3    H154151   4.330   1.643   1.393  0.6149 -0.7024  2.3551
10912TIP3    H254152   4.200   1.604   1.460  0.1879 -2.6385  0.5117
10913TIP3   OH254153   5.486   4.415  13.771  0.1091 -0.1904 -0.3064
10913TIP3    H154154   5.468   4.488  13.831  0.5439 -1.2259  1.1499
10913TIP3    H254155   5.563   4.442  13.723 -0.6017  0.9247 -0.8696
10914TIP3   OH254156   5.659   2.836  13.712  0.0188 -0.3199 -0.1417
10914TIP3    H154157   5.677   2.850  13.805  1.2672  1.0599 -0.5621
10914TIP3    H254158   5.700   2.753  13.691  0.7748 -0.0643  0.2931
10915TIP3   OH254159   6.042   4.165  14.663  0.6809  0.0138 -0.8246
10915TIP3    H154160   5.948   4.180  14.659 -0.0042 -2.7165  1.7313
10915TIP3    H254161   6.080   4.251  14.643 -2.2449  1.0631 -2.6143
10916TIP3   OH254162   4.244   1.396   2.989  0.0691 -0.1239  0.0217
10916TIP3    H154163   4.307   1.326   3.006  1.1288  0.6342 -0.5976
10916TIP3    H254164   4.262   1.462   3.057  2.5514  1.7476 -2.2345
10917TIP3   OH254165   4.468   3.146  11.443 -0.3626 -0.0795  0.5353
10917TIP3    H154166   4.542   3.178  11.495  0.4062  0.0884 -0.6183
10917TIP3    H254167   4.402   3.215  11.449  0.2887  0.5939  0.1282
10918TIP3   OH254168   5.061   0.298  10.812 -0.5672  0.1396 -0.2874
10918TIP3    H154169   5.024   0.369  10.760  2.5732  0.2114 -2.7351
10918TIP3    H254170   5.036   0.219  10.764 -0.1990 -0.0502 -0.1629
10919TIP3   OH254171   0.995   1.233   1.869 -0.2494 -0.1306 -0.2296
10919TIP3    H154172   0.983   1.279   1.786 -0.5276 -0.5887 -0.4440
10919TIP3    H254173   0.911   1.191   1.886  0.0914 -0.8208 -0.1976
10920TIP3   OH254174   1.801   2.564  17.396 -0.0021 -0.4296 -0.0371
10920TIP3    H154175   1.712   2.538  17.420  0.2415 -0.6590  0.6289
10920TIP3    H254176   1.813   2.531  17.307 -0.0746 -1.6653  0.3932
10921TIP3   OH254177   0.971   6.696   3.120 -0.0538 -0.4272  0.5106
10921TIP3    H154178   1.018   6.648   3.188 -1.5019 -0.4981  1.5082
10921TIP3    H254179   0.959   6.633   3.050 -0.5228 -1.0532  1.1426
10922TIP3   OH254180   1.187   0.968   2.801  0.2189  0.0841 -0.3307
10922TIP3    H154181   1.141   1.002   2.725  0.8092  1.0087 -0.3023
10922TIP3    H254182   1.235   0.891   2.768  2.1546  1.6631 -1.4657
10923TIP3   OH254183   4.452   3.275  12.113  0.1475 -0.1610 -0.2839
10923TIP3    H154184   4.387   3.258  12.045  1.7622  0.3256 -2.0178
10923TIP3    H254185   4.487   3.188  12.134 -0.7064 -0.3734  0.3447
10924TIP3   OH254186   6.652   6.068   6.194 -0.2209  0.3472  0.5864
10924TIP3    H154187   6.711   6.039   6.124  1.0209 -1.8429  2.3895
10924TIP3    H254188   6.599   5.991   6.214 -2.3023  1.6770  0.4307
10925TIP3   OH254189   3.541   5.492  12.307  0.0247 -0.0426 -0.3110
10925TIP3    H154190   3.509   5.402  12.319  0.3235 -0.1208 -0.0704
10925TIP3    H254191   3.475   5.547  12.349  0.5853 -0.2552  0.8754
10926TIP3   OH254192   3.355   5.267  16.475  0.0041 -0.3898  0.4484
10926TIP3    H154193   3.438   5.315  16.481 -0.0138 -0.0348 -1.5119
10926TIP3    H254194   3.342   5.254  16.382 -0.8638 -2.7469  0.8389
10927TIP3   OH254195   4.584   0.802  16.961  0.1973 -0.3567  0.0746
10927TIP3    H154196   4.651   0.869  16.977  0.7039 -0.5479 -1.1717
10927TIP3    H254197   4.551   0.780  17.048 -0.6162  2.1581  0.4857
10928TIP3   OH254198   1.498   5.436  14.794  0.1218  0.1043 -0.2454
10928TIP3    H154199   1.536   5.351  14.813 -1.3974 -0.6685 -0.5121
10928TIP3    H254200   1.453   5.461  14.875 -2.6122 -1.1419 -1.2696
10929TIP3   OH254201   5.943   5.888   1.339  0.2362  0.0475  0.4492
10929TIP3    H154202   5.899   5.955   1.287 -1.1548 -0.5225  0.8387
10929TIP3    H254203   5.958   5.929   1.424 -1.6813 -0.4530  1.0799
10930TIP3   OH254204   2.062   0.351  15.954 -0.1415 -0.2374 -0.0969
10930TIP3    H154205   2.148   0.329  15.990  0.1851  0.8904 -0.1187
10930TIP3    H254206   2.082   0.403  15.876 -0.8495 -0.7331 -0.6223
10931TIP3   OH254207   4.908   3.158  10.614 -0.6327 -0.6192  0.4653
10931TIP3    H154208   4.934   3.220  10.681 -1.2642  1.5627 -1.2027
10931TIP3    H254209   4.991   3.121  10.583 -0.2864 -1.0451  1.8334
10932TIP3   OH254210   2.001   5.707  15.745 -0.1502 -0.4624  0.3523
10932TIP3    H154211   2.030   5.647  15.676 -0.1159 -0.8737  0.7139
10932TIP3    H254212   2.081   5.751  15.773 -0.2665  0.1846 -0.3115
10933TIP3   OH254213   1.791   0.950  12.234 -0.3011  0.1618 -0.9706
10933TIP3    H154214   1.865   0.906  12.194 -1.4461 -1.5663 -1.3262
10933TIP3    H254215   1.829   1.024  12.281  1.7329 -1.1198 -0.4698
10934TIP3   OH254216   1.990   6.507  13.087 -0.4716  0.5117 -0.7971
10934TIP3    H154217   1.904   6.509  13.046 -0.8197 -0.3339 -0.1492
10934TIP3    H254218   1.994   6.586  13.141 -1.1733  0.1565 -0.2066
10935TIP3   OH254219   5.467   2.699  12.597  0.6604 -0.1747 -0.3320
10935TIP3    H154220   5.537   2.752  12.559  0.5020  0.4694  0.2503
10935TIP3    H254221   5.386   2.741  12.567  0.5112 -0.9248 -1.0196
10936TIP3   OH254222   2.168   2.122   1.431  0.2869  0.5046  0.3938
10936TIP3    H154223   2.196   2.032   1.440  0.9796  0.9289  3.9331
10936TIP3    H254224   2.082   2.116   1.388  1.1924 -1.5931 -1.2951
10937TIP3   OH254225   6.707   1.115   6.453  0.4334 -0.3586  0.1418
10937TIP3    H154226   6.756   1.195   6.436 -1.3531  0.0536 -4.6664
10937TIP3    H254227   6.773   1.045   6.450  1.5067  0.6263  0.3031
10938TIP3   OH254228   5.945   3.289  17.149 -0.1614 -0.5855 -0.5535
10938TIP3    H154229   5.993   3.207  17.160 -0.7210 -0.6456  2.5382
10938TIP3    H254230   5.896   3.299  17.231  0.0297  2.9522 -0.7102
10939TIP3   OH254231   3.254   2.340   2.565  0.3518  0.2791 -0.1286
10939TIP3    H154232   3.272   2.419   2.615  0.3376  1.0809 -1.3489
10939TIP3    H254233   3.330   2.331   2.506 -0.9813  1.0658 -2.0638
10940TIP3   OH254234   2.656   6.433  16.910  0.1564  0.3816  0.2408
10940TIP3    H154235   2.710   6.375  16.857  0.2774  0.6581  0.0569
10940TIP3    H254236   2.566   6.402  16.895  0.2226  0.2151  0.1796
10941TIP3   OH254237   5.745   1.149  13.314  0.3000  1.0295  0.5124
10941TIP3    H154238   5.741   1.106  13.228  0.8482  0.6779  0.6527
10941TIP3    H254239   5.812   1.216  13.304 -0.8716  2.1732  0.1640
10942TIP3   OH254240   4.094   0.056  12.494  0.2014  0.1499  0.1881
10942TIP3    H154241   4.084   0.068  12.400 -1.4257 -0.8812  0.1757
10942TIP3    H254242   4.182   0.020  12.505 -0.0772 -1.0444 -1.1123
10943TIP3   OH254243   0.876   5.115   6.770 -0.2944 -0.1347 -0.3705
10943TIP3    H154244   0.961   5.093   6.732  0.0203 -0.5994  0.5658
10943TIP3    H254245   0.897   5.176   6.841 -0.8099  0.2729 -0.5643
10944TIP3   OH254246   6.585   4.360   1.916  0.0423  0.5342 -0.2543
10944TIP3    H154247   6.527   4.381   1.989  2.6529  2.8740  1.3537
10944TIP3    H254248   6.647   4.297   1.951 -0.1710 -0.2739 -1.2759
10945TIP3   OH254249   4.681   5.435   0.956  0.4206  0.3490  0.0319
10945TIP3    H154250   4.748   5.503   0.965 -0.1697  1.2023 -1.5383
10945TIP3    H254251   4.721   5.370   0.898 -0.3269  1.2466 -1.5636
10946TIP3   OH254252   5.627   2.815   5.962  0.3498 -0.3007  0.0461
10946TIP3    H154253   5.695   2.752   5.940 -0.3683 -0.6675 -1.2307
10946TIP3    H254254   5.580   2.775   6.036  2.6803  0.8580  2.2778
10947TIP3   OH254255   6.129   2.742  13.766 -0.2597 -0.1861 -0.2959
10947TIP3    H154256   6.101   2.651  13.775 -0.1242 -0.1807  0.2242
10947TIP3    H254257   6.059   2.784  13.717 -0.5227 -0.4758 -0.1698
10948TIP3   OH254258   6.427   5.499   4.301 -0.3289 -0.0379  0.4034
10948TIP3    H154259   6.501   5.551   4.268 -0.6421  0.1979  0.0566
10948TIP3    H254260   6.467   5.424   4.343  0.1066 -2.4196 -3.7469
10949TIP3   OH254261   4.399   1.978   4.791 -0.0666  0.3373 -0.0961
10949TIP3    H154262   4.351   1.912   4.840 -0.2312  1.1780  0.9061
10949TIP3    H254263   4.391   2.058   4.844  1.4595  0.7732 -0.4925
10950TIP3   OH254264   1.731   0.844  12.575  0.2111 -0.5362 -0.3899
10950TIP3    H154265   1.715   0.765  12.627  2.6375 -1.0092 -0.2399
10950TIP3    H254266   1.742   0.811  12.485  4.7250 -1.0395  0.1172
10951TIP3   OH254267   3.882   6.715   3.117 -0.4096  0.2204 -0.0788
10951TIP3    H154268   3.964   6.693   3.072 -0.4109  0.0799 -0.0112
10951TIP3    H254269   3.909   6.762   3.196 -0.2624 -1.9571  1.2425
10952TIP3   OH254270   0.380   2.649  13.558 -0.2150 -0.3335  0.3685
10952TIP3    H154271   0.462   2.605  13.581  0.1293 -0.6384 -1.2456
10952TIP3    H254272   0.408   2.735  13.526 -0.8146  0.7743  2.6647
10953TIP3   OH254273   6.545   5.992  16.640  0.2214  0.2186 -0.0162
10953TIP3    H154274   6.531   5.975  16.734 -1.4221  2.7576  0.3078
10953TIP3    H254275   6.584   6.079  16.638 -1.1213  0.8218 -1.7362
10954TIP3   OH254276   1.697   1.822   0.197 -0.8384  0.2837  0.0819
10954TIP3    H154277   1.772   1.845   0.253  0.4897  0.9084 -1.8442
10954TIP3    H254278   1.701   1.726   0.190 -1.1093  0.1833  1.1339
10955TIP3   OH254279   2.499   3.456  16.937 -0.4175  0.3681 -0.3979
10955TIP3    H154280   2.561   3.528  16.945 -1.6049  1.2470  2.4278
10955TIP3    H254281   2.504   3.411  17.022 -1.2970 -1.5174 -1.2964
10956TIP3   OH254282   6.181   1.558  16.692  0.5448  0.1483 -0.3307
10956TIP3    H154283   6.108   1.589  16.638  0.2378 -0.2132 -0.1337
10956TIP3    H254284   6.258   1.569  16.636  0.6034  2.1641  0.0727
10957TIP3   OH254285   4.055   2.403  11.455  0.6377  0.1630  0.2691
10957TIP3    H154286   4.060   2.331  11.391  1.0498 -0.7425  1.2911
10957TIP3    H254287   4.105   2.474  11.414  1.2152 -0.5290 -0.2657
10958TIP3   OH254288   5.227   0.255   5.648 -0.3955 -0.1090  0.2038
10958TIP3    H154289   5.138   0.222   5.659 -0.7913  0.2906 -1.4407
10958TIP3    H254290   5.238   0.263   5.553  1.0031  0.9045  0.4077
10959TIP3   OH254291   0.322   2.441   1.854  0.3489 -0.1525  0.5106
10959TIP3    H154292   0.290   2.434   1.944  1.5354 -1.1133  0.8807
10959TIP3    H254293   0.415   2.463   1.863  0.2084  1.0088 -0.5169
10960TIP3   OH254294   0.827   4.492   1.474  0.1065  0.2619  0.0008
10960TIP3    H154295   0.735   4.475   1.493  0.1876  0.1435  0.2892
10960TIP3    H254296   0.834   4.588   1.475  0.0146  0.2673  0.1024
10961TIP3   OH254297   2.072   2.337   3.193  1.0513 -1.0016 -0.1713
10961TIP3    H154298   2.123   2.418   3.193 -0.8563  0.3055 -2.1203
10961TIP3    H254299   2.087   2.300   3.106 -0.1372 -1.3380 -0.2554
10962TIP3   OH254300   4.305   5.702  13.453 -0.3719 -0.0993  0.3751
10962TIP3    H154301   4.235   5.695  13.388 -1.3856 -2.6500  1.5849
10962TIP3    H254302   4.375   5.647  13.417 -0.5855 -0.7768  0.9601
10963TIP3   OH254303   2.909   0.140   4.278 -0.2140  0.2697  0.7854
10963TIP3    H154304   2.923   0.148   4.184 -0.7210 -1.6028  0.5077
10963TIP3    H254305   2.907   0.230   4.310 -0.1779  0.9467 -1.0158
10964TIP3   OH254306   2.371   1.756  11.148 -1.2273  0.0367  0.2611
10964TIP3    H154307   2.396   1.848  11.143 -1.9339  0.4942  3.0073
10964TIP3    H254308   2.446   1.713  11.188 -1.7796 -0.0762  1.2159
10965TIP3   OH254309   0.390   5.975   5.802  0.2249  0.1527  0.4949
10965TIP3    H154310   0.323   6.001   5.865  1.8324  0.4841  2.1629
10965TIP3    H254311   0.382   5.880   5.797  0.4863  0.0468  1.7424
10966TIP3   OH254312   5.929   2.833  15.021 -0.1265  1.0142 -0.1637
10966TIP3    H154313   5.874   2.813  14.945 -0.2919 -1.8188  0.6046
10966TIP3    H254314   5.870   2.826  15.096  0.7524  0.2416  0.4820
10967TIP3   OH254315   5.826   5.210   1.929 -0.1253 -0.2817 -0.1615
10967TIP3    H154316   5.758   5.245   1.871  1.1262  1.7515 -0.5117
10967TIP3    H254317   5.882   5.158   1.872  0.0304  0.1500 -0.4091
10968TIP3   OH254318   6.714   0.088  12.533  0.5756  0.5740 -0.4345
10968TIP3    H154319   6.628   0.130  12.533  0.5913  0.6630  1.4371
10968TIP3    H254320   6.700   0.004  12.490 -0.1685  1.0803 -1.2247
10969TIP3   OH254321   5.114   5.770  14.518  0.1760 -0.0086  0.1837
10969TIP3    H154322   5.042   5.811  14.567  0.1053  1.2983 -0.9449
10969TIP3    H254323   5.161   5.843  14.478  0.5013 -0.9865 -1.3187
10970TIP3   OH254324   5.198   1.985   1.753 -0.1365 -0.2242  0.2301
10970TIP3    H154325   5.197   2.081   1.749 -2.0080 -0.0645  2.3539
10970TIP3    H254326   5.289   1.961   1.737  0.3427  1.8820 -0.5417
10971TIP3   OH254327   5.122   6.282   0.056 -0.1646  0.1423 -0.0039
10971TIP3    H154328   5.054   6.245   0.000 -0.3376  0.6060 -0.1074
10971TIP3    H254329   5.075   6.310   0.135 -0.1749  0.8663 -0.2587
10972TIP3   OH254330   6.448   4.880   2.033 -0.0734  0.5432 -0.0693
10972TIP3    H154331   6.441   4.909   2.123  0.6251  2.1907 -0.5061
10972TIP3    H254332   6.449   4.961   1.981  0.7457 -0.2970 -1.4530
10973TIP3   OH254333   2.082   4.348   5.177  0.2612  0.4935  0.5046
10973TIP3    H154334   2.169   4.384   5.162  1.0132 -0.3956  2.3255
10973TIP3    H254335   2.027   4.387   5.110  1.5805  2.8296  0.6914
10974TIP3   OH254336   1.882   6.124   4.717 -0.0714 -0.1835 -0.7293
10974TIP3    H154337   1.792   6.102   4.739 -0.0404  0.6444  0.3547
10974TIP3    H254338   1.880   6.150   4.625 -0.7747 -0.9456 -0.9409
10975TIP3   OH254339   4.788   1.423   5.560 -0.3156 -0.5094  0.1606
10975TIP3    H154340   4.871   1.379   5.578 -0.7766 -2.3225 -1.7621
10975TIP3    H254341   4.754   1.447   5.647  2.1129  0.1591  0.9911
10976TIP3   OH254342   3.866   5.098   2.205  0.5637  0.1229  0.2592
10976TIP3    H154343   3.902   5.030   2.148 -2.2802 -2.3081  1.0886
10976TIP3    H254344   3.772   5.094   2.191  0.1586  3.1237  1.3146
10977TIP3   OH254345   6.266   1.384  10.477  0.0679 -0.0582  0.1485
10977TIP3    H154346   6.348   1.357  10.434  0.9848  0.1514  1.6756
10977TIP3    H254347   6.249   1.313  10.540 -0.1275  0.5926  0.8370
10978TIP3   OH254348   0.631   1.384   2.018  0.2853 -0.4085  0.0401
10978TIP3    H154349   0.638   1.364   1.924 -0.6374 -0.7889  0.0419
10978TIP3    H254350   0.578   1.313   2.054 -0.2523  0.2912  0.6575
10979TIP3   OH254351   5.623   2.119  14.127  0.3903 -0.3083  0.4894
10979TIP3    H154352   5.702   2.152  14.172 -0.9789  1.9143  1.4448
10979TIP3    H254353   5.581   2.198  14.092 -0.9996 -1.5293 -0.7025
10980TIP3   OH254354   0.399   6.702   6.066  0.0866 -0.0420  0.2412
10980TIP3    H154355   0.381   6.745   6.150 -0.0623  1.5723 -0.5664
10980TIP3    H254356   0.330   6.637   6.057  1.0289 -1.4001  2.0817
10981TIP3   OH254357   4.843   4.220  15.550  0.3267 -0.0810 -0.0168
10981TIP3    H154358   4.918   4.197  15.495  0.7536  0.5939  0.2743
10981TIP3    H254359   4.865   4.184  15.636  0.1594 -0.1867 -0.0190
10982TIP3   OH254360   2.117   4.434   2.455 -0.3698 -0.5358 -0.2653
10982TIP3    H154361   2.194   4.490   2.444 -1.6139  0.9524 -1.8442
10982TIP3    H254362   2.112   4.420   2.550  0.0915  1.9651  0.2165
10983TIP3   OH254363   2.359   4.564  14.295 -0.4653 -0.2414 -0.2846
10983TIP3    H154364   2.407   4.540  14.374 -1.8703 -0.8475  0.4311
10983TIP3    H254365   2.375   4.491  14.235 -0.6444 -0.5428  0.0280
10984TIP3   OH254366   1.498   5.286   2.849  0.0157  0.3435  0.5421
10984TIP3    H154367   1.507   5.376   2.818 -1.6521  0.7136  0.9979
10984TIP3    H254368   1.586   5.250   2.845  0.4126  1.3981 -1.4205
10985TIP3   OH254369   3.415   1.095  10.470  0.1097  0.2748  0.3186
10985TIP3    H154370   3.387   1.005  10.487  0.9077 -0.4163 -1.7471
10985TIP3    H254371   3.482   1.087  10.402  0.0675  2.4497 -0.0523
10986TIP3   OH254372   4.192   6.230  16.334 -0.3686 -0.5476 -0.7928
10986TIP3    H154373   4.202   6.189  16.420 -0.4536 -0.7735 -0.8896
10986TIP3    H254374   4.210   6.323  16.350  2.2034 -0.9365 -1.0101
10987TIP3   OH254375   0.588   6.595   5.273 -0.1223  0.5162  0.1091
10987TIP3    H154376   0.521   6.562   5.333 -0.1470 -0.7282 -0.5655
10987TIP3    H254377   0.665   6.541   5.291  0.0368  0.4967 -0.5956
10988TIP3   OH254378   5.394   4.409   3.457  0.3403  0.0451 -1.2891
10988TIP3    H154379   5.456   4.346   3.421  2.2866  2.3310 -2.1483
10988TIP3    H254380   5.396   4.483   3.397 -2.4628  0.6797 -0.7554
10989TIP3   OH254381   2.288   1.750   1.707 -0.2645 -0.1254  0.1168
10989TIP3    H154382   2.227   1.821   1.687 -0.4577 -0.9506 -2.8111
10989TIP3    H254383   2.371   1.794   1.726 -1.1565  0.9300  1.7876
10990TIP3   OH254384   2.299   5.508  12.258 -0.1317  0.0059  0.6127
10990TIP3    H154385   2.319   5.418  12.232 -0.4638 -0.1685  0.9401
10990TIP3    H254386   2.204   5.514  12.253 -0.1021  0.3743  0.4843
10991TIP3   OH254387   0.314   1.104  15.192  0.4023  0.6932 -0.5197
10991TIP3    H154388   0.316   1.117  15.097 -1.4481 -0.9873 -0.8616
10991TIP3    H254389   0.233   1.146  15.220  0.9851  1.2671  0.3758
10992TIP3   OH254390   5.072   5.266   3.775  0.1046  0.3500 -0.2709
10992TIP3    H154391   4.994   5.251   3.721  0.4502 -0.5150 -0.5503
10992TIP3    H254392   5.143   5.276   3.711  0.2885  0.7091 -0.0081
10993TIP3   OH254393   3.093   1.156   1.130 -0.4660 -0.5868 -0.0428
10993TIP3    H154394   3.095   1.165   1.035 -0.2648  1.5074  0.1292
10993TIP3    H254395   3.184   1.170   1.157 -0.8683  1.0079  0.5925
10994TIP3   OH254396   3.719   2.300   2.251 -0.4041  0.3609  0.2229
10994TIP3    H154397   3.732   2.230   2.187 -0.9231  0.3858  0.0805
10994TIP3    H254398   3.634   2.338   2.227  0.5050  1.9732 -0.5706
10995TIP3   OH254399   0.270   4.171  12.280 -0.2027 -0.9573 -0.6266
10995TIP3    H154400   0.311   4.115  12.347  1.8200  0.3695 -0.6766
10995TIP3    H254401   0.336   4.176  12.210 -0.6458  0.8690 -0.9426
10996TIP3   OH254402   3.873   1.616  17.351  0.1020 -0.3382  0.3971
10996TIP3    H154403   3.852   1.612  17.257  0.2107  0.7583  0.3099
10996TIP3    H254404   3.788   1.625  17.394 -0.0671 -2.2636  0.5291
10997TIP3   OH254405   2.179   2.282  11.221 -0.0570  0.0804 -0.0567
10997TIP3    H154406   2.186   2.187  11.211  0.0823  0.2743 -2.5824
10997TIP3    H254407   2.125   2.310  11.147  2.0056  2.1869 -0.9148
10998TIP3   OH254408   3.381   6.082   1.011 -0.0783  0.3228  0.0039
10998TIP3    H154409   3.361   6.009   1.069 -2.7315  0.8319 -0.1552
10998TIP3    H254410   3.297   6.126   0.997  0.9972  1.9671 -1.8686
10999TIP3   OH254411   5.714   0.683   4.307  0.3324  0.2334 -0.4967
10999TIP3    H154412   5.736   0.772   4.332 -0.2345  0.7841 -1.8917
10999TIP3    H254413   5.640   0.691   4.248 -1.0640 -1.3210  0.9298
11000TIP3   OH254414   4.488   3.743   5.118  0.0458 -0.6258  0.5934
11000TIP3    H154415   4.447   3.775   5.038  1.4099  0.1201  0.1655
11000TIP3    H254416   4.574   3.785   5.120  0.4860 -1.5144  1.8693
11001TIP3   OH254417   4.921   1.319  15.584 -0.2445 -0.1979 -0.7253
11001TIP3    H154418   4.883   1.242  15.625 -2.4089  1.3892  0.4471
11001TIP3    H254419   5.001   1.336  15.635 -0.8030 -0.5409  0.2934
11002TIP3   OH254420   2.621   0.858   5.006  0.1575  0.1077  0.3597
11002TIP3    H154421   2.699   0.909   4.986  1.0223 -0.8209  1.2429
11002TIP3    H254422   2.571   0.859   4.924 -0.0901  2.6789  0.4642
11003TIP3   OH254423   5.617   6.017   0.642 -0.1433 -0.1900 -0.7440
11003TIP3    H154424   5.620   5.922   0.655  2.5607 -0.0443  0.3320
11003TIP3    H254425   5.694   6.036   0.587  0.1462  1.4942  0.1756
11004TIP3   OH254426   6.137   5.356  12.952 -0.4602  0.0312 -0.2526
11004TIP3    H154427   6.046   5.358  12.920 -0.1396  0.6143 -1.1768
11004TIP3    H254428   6.190   5.369  12.874  0.3664  1.3522  0.4906
11005TIP3   OH254429   0.334   2.131   4.814  0.3304  0.0782  0.0889
11005TIP3    H154430   0.360   2.124   4.906  0.0732 -1.8816  0.0404
11005TIP3    H254431   0.284   2.052   4.796  0.5468  0.3157 -1.8133
11006TIP3   OH254432   1.437   1.302   3.453 -0.8249  0.2320 -0.0070
11006TIP3    H154433   1.466   1.391   3.474 -1.4888  0.6003 -0.5975
11006TIP3    H254434   1.347   1.298   3.484 -0.7625 -0.2770  0.1138
11007TIP3   OH254435   5.354   4.732   0.278  0.2230 -0.3202  0.6996
11007TIP3    H154436   5.431   4.690   0.316  1.8979  2.4737  0.7005
11007TIP3    H254437   5.322   4.791   0.347  1.5776  2.7064 -1.0588
11008TIP3   OH254438   2.224   4.450  15.538 -0.2197 -0.4887  0.0461
11008TIP3    H154439   2.145   4.480  15.582 -0.6677 -0.9923 -0.4198
11008TIP3    H254440   2.240   4.516  15.470 -1.0842 -1.1752 -0.8378
11009TIP3   OH254441   0.064   0.222   3.824  0.2209  0.3833  0.3572
11009TIP3    H154442   0.147   0.212   3.778  0.7255 -0.1366  1.3409
11009TIP3    H254443   0.075   0.170   3.904 -0.8682  0.7180  0.7403
11010TIP3   OH254444   3.768   0.346   1.107 -0.3059 -0.0086 -0.3232
11010TIP3    H154445   3.800   0.431   1.079  1.5659 -0.4765  0.2315
11010TIP3    H254446   3.706   0.365   1.177  0.2208  0.8909 -0.0893
11011TIP3   OH254447   1.107   3.253   0.411  0.1607  0.2728  0.2723
11011TIP3    H154448   1.075   3.341   0.431  1.5857  1.1496 -1.0504
11011TIP3    H254449   1.041   3.216   0.352  1.0915  1.7799 -1.8502
11012TIP3   OH254450   0.064   2.698   0.661 -0.0202  0.3737  0.0454
11012TIP3    H154451   0.092   2.645   0.586 -0.2304  0.5672 -0.1706
11012TIP3    H254452   0.120   2.669   0.733  0.1832  0.1871 -0.1866
11013TIP3   OH254453   2.103   1.493   0.570  0.1211 -0.3390 -0.0321
11013TIP3    H154454   2.165   1.513   0.640  1.0368 -0.0117 -0.9226
11013TIP3    H254455   2.044   1.428   0.609  0.4060  0.0778  1.1449
11014TIP3   OH254456   2.672   2.557   6.042  0.3571  0.3014 -0.5768
11014TIP3    H154457   2.663   2.462   6.037 -2.3274  0.4942 -0.6373
11014TIP3    H254458   2.766   2.571   6.053  0.7211 -2.4078  0.7539
11015TIP3   OH254459   5.863   1.677   2.372  0.0528  0.5084 -0.5479
11015TIP3    H154460   5.862   1.651   2.280  2.9416 -1.0203 -0.2295
11015TIP3    H254461   5.934   1.740   2.378  0.7868 -0.4221  0.8615
11016TIP3   OH254462   2.857   3.862  11.917 -0.8613 -0.9628 -0.9768
11016TIP3    H154463   2.873   3.954  11.892 -1.2685 -1.0470 -1.5916
11016TIP3    H254464   2.864   3.861  12.012 -1.8137 -0.0875 -0.8823
11017TIP3   OH254465   2.055   1.886  15.471  0.0516  0.1979  0.9133
11017TIP3    H154466   1.968   1.867  15.506  0.3623 -1.2786  0.9258
11017TIP3    H254467   2.078   1.971  15.509 -2.1705  1.5950 -0.6389
11018TIP3   OH254468   5.526   2.407   2.947 -0.6708 -0.3770 -0.3950
11018TIP3    H154469   5.444   2.422   2.993 -0.4755  0.0758 -0.1842
11018TIP3    H254470   5.501   2.398   2.855 -0.9564 -0.1948 -0.3357
11019TIP3   OH254471   2.341   2.303  16.201  0.0210  0.1392  0.5272
11019TIP3    H154472   2.404   2.232  16.185 -0.6524 -0.5919  1.0391
11019TIP3    H254473   2.315   2.332  16.114  2.1438  1.4686  0.2630
11020TIP3   OH254474   4.312   2.501  13.890 -0.2569 -0.5140  0.1541
11020TIP3    H154475   4.249   2.451  13.943 -0.5312  1.0552  1.4043
11020TIP3    H254476   4.358   2.556  13.954  1.2280 -0.4216 -0.9551
11021TIP3   OH254477   0.733   0.235  16.708 -0.1387 -0.5534  0.2188
11021TIP3    H154478   0.824   0.265  16.709 -0.2663  0.1347 -1.9981
11021TIP3    H254479   0.728   0.178  16.631 -1.5058 -0.8806  0.5186
11022TIP3   OH254480   6.348   1.848  12.313 -0.2613  0.3109 -0.2642
11022TIP3    H154481   6.340   1.887  12.226  1.9968  0.4349 -0.4631
11022TIP3    H254482   6.276   1.886  12.363 -1.0083  0.9794 -1.7981
11023TIP3   OH254483   0.796   5.364   3.022  0.1828  0.0231  0.1709
11023TIP3    H154484   0.782   5.318   2.939  0.4089  0.5964 -0.1966
11023TIP3    H254485   0.810   5.455   2.996 -1.2015  0.4812  0.9465
11024TIP3   OH254486   6.289   1.829  10.642  0.1245 -0.5082  0.6593
11024TIP3    H154487   6.232   1.828  10.719 -0.2515 -1.5012  0.3819
11024TIP3    H254488   6.245   1.772  10.579 -0.2900  1.3146 -0.8146
11025TIP3   OH254489   0.760   3.628   5.264 -0.2725 -0.2876  0.0401
11025TIP3    H154490   0.775   3.676   5.345 -0.0891  0.3636 -0.3700
11025TIP3    H254491   0.718   3.692   5.206  1.2270 -0.1735 -0.9943
11026TIP3   OH254492   6.014   1.150   3.807 -0.2605  0.4951 -0.1775
11026TIP3    H154493   6.044   1.060   3.797  0.3537  0.7324 -0.4907
11026TIP3    H254494   6.017   1.166   3.901  1.7257  0.8904 -0.2774
11027TIP3   OH254495   2.889   0.047   3.705  0.4039  0.4071  0.0148
11027TIP3    H154496   2.912   0.056   3.613  0.2458 -0.1207 -0.0800
11027TIP3    H254497   2.796   0.071   3.709 -0.2437 -1.7731 -0.3739
11028TIP3   OH254498   0.917   2.408  10.753 -0.0882 -0.0839  0.8165
11028TIP3    H154499   0.844   2.466  10.731 -2.2621 -2.8851  0.0747
11028TIP3    H254500   0.973   2.410  10.676 -0.3485  0.6890  0.6365
11029TIP3   OH254501   4.341   6.619  10.655  0.3394  0.0581 -0.7324
11029TIP3    H154502   4.273   6.610  10.588 -0.0812 -1.2308 -0.1615
11029TIP3    H254503   4.399   6.544  10.641  0.9345  0.4500 -0.4126
11030TIP3   OH254504   2.475   2.369   5.672 -0.0049  0.6251 -0.1790
11030TIP3    H154505   2.530   2.291   5.678  2.1088  1.9813 -0.6900
11030TIP3    H254506   2.389   2.336   5.648  0.8362 -1.5362 -0.4508
11031TIP3   OH254507   6.133   3.704  16.316 -0.1508  0.0790 -0.0932
11031TIP3    H154508   6.208   3.652  16.346  1.4240  2.2257 -0.0868
11031TIP3    H254509   6.154   3.725  16.225 -0.5550  1.0147  0.0202
11032TIP3   OH254510   5.813   0.353  17.227 -0.1423 -0.1137  0.2566
11032TIP3    H154511   5.878   0.288  17.252 -0.6939 -1.1584 -0.9561
11032TIP3    H254512   5.857   0.437  17.243  0.6132 -0.7481  1.7358
11033TIP3   OH254513   6.662   5.629   5.547  0.3432  0.1824 -0.0449
11033TIP3    H154514   6.608   5.552   5.529 -0.5146  0.8420 -0.3704
11033TIP3    H254515   6.744   5.612   5.501 -0.1464 -0.1755 -0.8078
11034TIP3   OH254516   3.265   3.321   3.007  0.6704  0.2664 -0.7833
11034TIP3    H154517   3.204   3.335   3.080  0.5170  1.3307 -1.0931
11034TIP3    H254518   3.321   3.399   3.009  2.2419 -0.8176 -0.3151
11035TIP3   OH254519   3.001   6.456  17.371  0.0901  0.0451  0.0442
11035TIP3    H154520   2.943   6.383  17.349 -0.4006  0.6682 -0.8043
11035TIP3    H254521   3.016   6.448  17.465 -1.5767  0.0199  0.3315
11036TIP3   OH254522   2.597   0.036   1.736  0.2135  0.3769  0.0945
11036TIP3    H154523   2.574  -0.057   1.737 -1.6127  0.7804  0.7191
11036TIP3    H254524   2.655   0.047   1.811 -0.6025 -0.0585  0.8134
11037TIP3   OH254525   0.014   1.371  13.165  0.2722  0.8572  0.3547
11037TIP3    H154526   0.022   1.336  13.076 -4.3617 -0.0253  0.0400
11037TIP3    H254527   0.001   1.465  13.152 -2.2420  0.5018 -0.2043
11038TIP3   OH254528   0.784   6.508  17.066 -0.1646  0.2368  0.1398
11038TIP3    H154529   0.746   6.582  17.018  0.8736  0.7017  0.0156
11038TIP3    H254530   0.826   6.548  17.141  0.6186 -0.2033 -0.0604
11039TIP3   OH254531   6.309   1.937   1.104 -0.1244 -0.1079  0.8722
11039TIP3    H154532   6.298   1.980   1.188 -0.5632 -0.0492  0.7877
11039TIP3    H254533   6.399   1.905   1.104 -0.2291 -0.4123  1.5025
11040TIP3   OH254534   1.441   1.840   0.781 -0.1459 -0.0437 -0.5015
11040TIP3    H154535   1.407   1.753   0.762 -0.6516  0.5376 -2.4900
11040TIP3    H254536   1.419   1.892   0.703  2.1751  1.2749 -0.3641
11041TIP3   OH254537   3.616   1.386  12.989 -0.2775  0.1561  0.0074
11041TIP3    H154538   3.565   1.464  13.010 -0.5529  0.2415 -0.9634
11041TIP3    H254539   3.677   1.378  13.062 -1.0730  0.5613  0.7435
11042TIP3   OH254540   1.917   4.349   5.410  0.7460 -0.2831  0.0001
11042TIP3    H154541   1.979   4.338   5.338 -0.5795 -0.8873 -1.0960
11042TIP3    H254542   1.920   4.443   5.430  1.2027 -0.1221 -0.7670
11043TIP3   OH254543   6.379   0.261   2.862  0.6805 -0.1542  0.3712
11043TIP3    H154544   6.431   0.197   2.812  2.3157  0.2448  1.4641
11043TIP3    H254545   6.289   0.242   2.838  1.3291 -0.2674 -2.3906
11044TIP3   OH254546   0.163   0.683   4.248 -0.3282  0.2686 -0.5677
11044TIP3    H154547   0.227   0.612   4.248  0.6639  1.1329 -0.4248
11044TIP3    H254548   0.089   0.649   4.198  0.3707 -0.6451 -1.0077
11045TIP3   OH254549   6.453   5.587   1.492 -0.1577 -0.3801  0.5886
11045TIP3    H154550   6.424   5.678   1.482 -0.5201 -0.4110  1.2798
11045TIP3    H254551   6.548   5.592   1.493 -0.1646 -0.0747  0.0466
11046TIP3   OH254552   6.390   6.403   4.739 -0.0158 -0.4801 -0.0818
11046TIP3    H154553   6.430   6.449   4.665  1.2742  0.8944  1.4026
11046TIP3    H254554   6.392   6.311   4.714 -0.4534 -0.0001 -2.1152
11047TIP3   OH254555   6.022   3.881   3.464  0.0212  0.1408 -0.5622
11047TIP3    H154556   6.113   3.910   3.456  0.1225 -0.2613 -0.9372
11047TIP3    H254557   5.993   3.869   3.374  0.2426 -1.6525 -0.4492
11048TIP3   OH254558   4.526   0.702  12.745 -0.1301 -0.6273 -0.1421
11048TIP3    H154559   4.471   0.770  12.706 -1.3061 -0.2070  2.0919
11048TIP3    H254560   4.466   0.630  12.764  0.6935 -1.4304 -0.4939
11049TIP3   OH254561   1.089   1.436   6.391  0.5910 -0.1018  0.1613
11049TIP3    H154562   1.078   1.451   6.297  1.8378 -0.0708 -0.0067
11049TIP3    H254563   1.044   1.509   6.433  0.0208 -0.1192 -0.4114
11050TIP3   OH254564   5.284   3.438  15.743 -0.0940 -0.0976  1.0181
11050TIP3    H154565   5.241   3.521  15.723 -2.3452 -1.5696 -0.7500
11050TIP3    H254566   5.299   3.441  15.838 -0.8444  1.9596  1.1286
11051TIP3   OH254567   2.333   5.800   1.344 -0.3403 -0.9881  0.1699
11051TIP3    H154568   2.314   5.737   1.274 -0.8032 -0.8738  0.1896
11051TIP3    H254569   2.258   5.794   1.403  0.1157 -1.1899  0.7430
11052TIP3   OH254570   0.440   0.963   0.910  0.6407 -0.4834 -0.8467
11052TIP3    H154571   0.401   1.030   0.856 -1.2380 -2.2203 -1.7648
11052TIP3    H254572   0.492   0.909   0.850  0.5050 -1.0241 -0.4943
11053TIP3   OH254573   2.181   2.886  16.741 -0.4704 -0.1806  0.1082
11053TIP3    H154574   2.129   2.806  16.742 -0.9805  0.1452  0.2209
11053TIP3    H254575   2.252   2.870  16.802 -0.3590 -0.6834 -0.1480
11054TIP3   OH254576   5.574   1.192   5.769  0.4705  0.3921 -0.2266
11054TIP3    H154577   5.491   1.147   5.749  1.2836 -1.2904  0.0083
11054TIP3    H254578   5.569   1.274   5.719 -0.1470 -0.9462 -2.5078
11055TIP3   OH254579   0.789   2.289   4.140 -0.4208 -0.9299 -0.5070
11055TIP3    H154580   0.727   2.343   4.091  1.2110  0.0621 -1.5994
11055TIP3    H254581   0.859   2.350   4.164 -0.7663 -1.5612  2.4360
11056TIP3   OH254582   0.581   2.720  15.503 -0.2009 -0.4302  0.1844
11056TIP3    H154583   0.596   2.640  15.453  0.6092  1.3074 -2.6021
11056TIP3    H254584   0.641   2.713  15.577 -0.2345 -2.4198  0.0907
11057TIP3   OH254585   5.972   0.861   0.679 -0.0580 -0.3082  0.2315
11057TIP3    H154586   5.939   0.814   0.603  4.5812 -0.5671 -1.9932
11057TIP3    H254587   5.937   0.949   0.671 -1.0390 -0.7920 -1.2146
11058TIP3   OH254588   2.395   0.130  15.861  0.3126 -0.1540 -0.2314
11058TIP3    H154589   2.336   0.173  15.798  1.5731  1.1107 -0.5940
11058TIP3    H254590   2.471   0.104  15.809  0.1982 -1.5753  0.2754
11059TIP3   OH254591   3.477   3.315   4.371 -0.0980  0.0635  0.1639
11059TIP3    H154592   3.395   3.332   4.326 -1.4374 -0.5345  2.2489
11059TIP3    H254593   3.454   3.314   4.464  2.0721 -1.1594  0.7599
11060TIP3   OH254594   1.995   0.095   2.316  0.1649 -0.0755  0.0700
11060TIP3    H154595   2.032   0.012   2.346  1.1258  0.3712  0.1368
11060TIP3    H254596   2.068   0.142   2.277 -0.1906  1.0879  0.7416
11061TIP3   OH254597   5.878   6.590  11.733  0.2721 -0.5329 -0.5914
11061TIP3    H154598   5.792   6.633  11.732 -0.6380 -2.2329 -0.0711
11061TIP3    H254599   5.898   6.575  11.640 -0.4349 -0.9210 -0.6888
11062TIP3   OH254600   0.255   2.763  12.324  0.1500 -0.1156 -0.8065
11062TIP3    H154601   0.260   2.816  12.404  1.2789 -0.4134 -0.6639
11062TIP3    H254602   0.248   2.673  12.355  0.1318 -0.1942 -1.0390
11063TIP3   OH254603   1.864   0.846   0.832 -0.6079 -0.0717  0.5153
11063TIP3    H154604   1.863   0.753   0.810 -0.2571  0.2085 -0.7591
11063TIP3    H254605   1.792   0.884   0.782 -0.2813  0.4564  0.4322
11064TIP3   OH254606   3.673   1.327   5.424  0.9244 -0.0839  0.6139
11064TIP3    H154607   3.676   1.416   5.390 -1.4658  0.1148  0.7789
11064TIP3    H254608   3.624   1.277   5.359  0.5985 -0.8373  1.4040
11065TIP3   OH254609   3.782   3.190  10.422 -0.1291 -0.3184 -0.1727
11065TIP3    H154610   3.736   3.199  10.506  0.4119  2.1922 -0.0806
11065TIP3    H254611   3.711   3.178  10.358 -1.3202  4.5522 -0.1888
11066TIP3   OH254612   2.613   0.594  16.104  0.2140  0.1162  0.1291
11066TIP3    H154613   2.534   0.611  16.155  0.3159 -0.5194  0.5114
11066TIP3    H254614   2.667   0.672  16.117 -0.1774  0.3751  0.2031
11067TIP3   OH254615   2.328   1.292   1.131 -0.2529 -0.3069 -0.0288
11067TIP3    H154616   2.409   1.249   1.104  0.3736 -0.2352  1.6208
11067TIP3    H254617   2.356   1.358   1.194 -1.1655  2.5921 -2.4172
11068TIP3   OH254618   4.786   0.979  17.052 -0.5932  0.3037 -0.2055
11068TIP3    H154619   4.858   0.927  17.015 -0.8246  1.3419 -2.2463
11068TIP3    H254620   4.829   1.042  17.110  0.2091  1.0628 -1.5775
11069TIP3   OH254621   5.927   6.048  15.700  0.0520 -0.2221  0.2526
11069TIP3    H154622   5.880   6.117  15.654  1.3332  0.4637 -0.0586
11069TIP3    H254623   6.003   6.091  15.739 -0.9720 -0.7617  3.0978
11070TIP3   OH254624   2.032   6.563   1.223 -0.5620 -0.4189  0.4420
11070TIP3    H154625   2.055   6.477   1.187 -0.4537  0.1726 -0.9337
11070TIP3    H254626   1.943   6.551   1.258 -1.3045 -0.6214 -1.4110
11071TIP3   OH254627   0.822   6.078  14.753  0.1018  0.4672 -0.1348
11071TIP3    H154628   0.815   6.166  14.788  0.8531  0.5010 -0.0506
11071TIP3    H254629   0.778   6.022  14.817  1.8064  0.4720  1.1061
11072TIP3   OH254630   1.564   1.741  11.230  0.1091  0.0952 -0.5858
11072TIP3    H154631   1.557   1.791  11.311 -1.1326  0.0880 -0.6662
11072TIP3    H254632   1.511   1.662  11.247  1.8425 -1.1136 -0.5336
11073TIP3   OH254633   2.813   3.000  15.341 -0.1141  0.3466  0.0665
11073TIP3    H154634   2.742   3.011  15.405  0.1705  1.8136  0.1812
11073TIP3    H254635   2.789   3.059  15.269 -0.2034 -0.9469 -0.9910
11074TIP3   OH254636   2.428   4.059  11.003 -0.4698  0.0065 -0.5919
11074TIP3    H154637   2.342   4.049  11.044  0.4313  0.9940  1.6674
11074TIP3    H254638   2.461   3.969  10.994 -0.4788 -0.2306  1.4309
11075TIP3   OH254639   5.482   2.639   3.250  0.4422 -0.3793  0.1612
11075TIP3    H154640   5.505   2.593   3.331  0.9332 -0.0428  0.2170
11075TIP3    H254641   5.389   2.620   3.237  0.1236  0.3327  1.3000
11076TIP3   OH254642   0.840   3.822  15.942  0.5560  0.2835  0.0040
11076TIP3    H154643   0.782   3.858  16.009  0.7557  1.2811 -0.3451
11076TIP3    H254644   0.786   3.816  15.864  0.2433 -1.1463  0.3015
11077TIP3   OH254645   1.949   3.778  16.558  0.1417 -0.1293  0.5145
11077TIP3    H154646   1.894   3.811  16.487  0.7658 -2.2195 -1.0329
11077TIP3    H254647   1.902   3.702  16.592  0.5330  0.0149  1.4048
11078TIP3   OH254648   3.195   4.873   2.783 -0.3149 -0.2771 -0.0558
11078TIP3    H154649   3.172   4.823   2.861  0.4417 -0.8710 -0.2079
11078TIP3    H254650   3.290   4.883   2.788 -0.2489 -0.4079 -0.9506
11079TIP3   OH254651   3.057   1.051   4.513 -0.2510  0.2130  0.0427
11079TIP3    H154652   3.119   1.032   4.442 -0.0890 -0.2479  0.2983
11079TIP3    H254653   3.093   1.128   4.556  1.7310 -1.6083  1.9283
11080TIP3   OH254654   4.918   6.458   4.952 -0.1579  0.3438 -0.2417
11080TIP3    H154655   4.894   6.377   4.998 -0.0904  0.4016 -0.1036
11080TIP3    H254656   4.977   6.430   4.883 -1.1212  0.1157 -0.9979
11081TIP3   OH254657   4.558   1.330   2.498  0.3036 -0.5880  0.5795
11081TIP3    H154658   4.652   1.329   2.520  0.3710  0.0989  0.3616
11081TIP3    H254659   4.515   1.301   2.578  0.6596 -0.0521  0.9803
11082TIP3   OH254660   3.441   0.005   4.151  0.1198  0.3922 -0.1402
11082TIP3    H154661   3.536   0.006   4.156  0.1414 -0.5426 -0.1672
11082TIP3    H254662   3.420  -0.072   4.098 -0.6700  0.0118  0.6779
11083TIP3   OH254663   1.769   2.421  15.118  0.2957 -0.0400 -0.8336
11083TIP3    H154664   1.857   2.431  15.084  0.0460  1.0224 -1.1889
11083TIP3    H254665   1.724   2.502  15.094 -0.1092  0.4339  1.3713
11084TIP3   OH254666   1.585   3.659   1.253  0.7688 -0.2558  0.2169
11084TIP3    H154667   1.529   3.603   1.306  0.2843  0.4349  0.4491
11084TIP3    H254668   1.525   3.713   1.202  1.1256  1.8910  1.9108
11085TIP3   OH254669   1.145   0.129  17.258 -0.3757 -0.4694 -0.0881
11085TIP3    H154670   1.050   0.142  17.261 -0.2730  0.5381 -0.6349
11085TIP3    H254671   1.174   0.180  17.182  0.3874 -2.3441 -1.1120
11086TIP3   OH254672   4.012   3.153  13.920 -0.1225  0.0327  0.0668
11086TIP3    H154673   3.981   3.192  14.002  1.1327 -1.8368  1.5139
11086TIP3    H254674   3.973   3.066  13.918 -0.9011  0.3832 -1.8507
11087TIP3   OH254675   5.224   6.432   4.457  0.7775 -0.1127  0.1556
11087TIP3    H154676   5.174   6.350   4.453  0.2210  0.2417 -0.3707
11087TIP3    H254677   5.287   6.425   4.386  1.1971 -0.3809  0.5535
11088TIP3   OH254678   0.688   2.524  14.604 -0.0202 -0.2390  0.3924
11088TIP3    H154679   0.716   2.438  14.571  1.4577  1.0183 -1.8703
11088TIP3    H254680   0.694   2.516  14.699  0.9525 -2.3421  0.2237
11089TIP3   OH254681   4.318   2.708   1.874 -0.3789 -0.2916 -0.0045
11089TIP3    H154682   4.311   2.721   1.969 -0.9554 -0.9135  0.0504
11089TIP3    H254683   4.228   2.690   1.846  0.1965 -3.7702 -0.0756
11090TIP3   OH254684   0.516   5.012   1.150  0.5932  0.3022  0.5758
11090TIP3    H154685   0.558   4.964   1.221 -0.2427 -0.1339  0.7805
11090TIP3    H254686   0.434   4.965   1.134 -0.7370  2.2100  1.4429
11091TIP3   OH254687   2.160   1.934   4.361  0.6416  0.3561  0.1069
11091TIP3    H154688   2.252   1.958   4.368  0.5357  0.7981  0.0684
11091TIP3    H254689   2.116   1.992   4.424  0.0678  2.0343 -1.7324
11092TIP3   OH254690   0.717   0.980   0.873 -0.0768 -0.2459  0.6215
11092TIP3    H154691   0.688   1.033   0.800  0.9200 -0.7526 -0.1698
11092TIP3    H254692   0.679   1.022   0.950 -1.7495 -0.1408 -0.2285
11093TIP3   OH254693   0.641   3.812  15.031 -0.3283 -0.2274 -0.6417
11093TIP3    H154694   0.708   3.783  15.093  0.9869 -0.5119 -2.1455
11093TIP3    H254695   0.576   3.858  15.086 -0.4572 -2.5035  1.2571
11094TIP3   OH254696   2.064   4.746   2.727  0.5854  0.3513  0.0506
11094TIP3    H154697   2.015   4.795   2.793  0.0546  0.7095 -0.5869
11094TIP3    H254698   2.099   4.670   2.773  0.9447  1.0421  0.9268
11095TIP3   OH254699   5.219   5.053  14.242 -0.6744  0.0465  0.5616
11095TIP3    H154700   5.272   4.975  14.256 -0.9470 -0.1317  0.6114
11095TIP3    H254701   5.180   5.040  14.155  0.7992  1.0210 -0.3010
11096TIP3   OH254702   1.713   6.741  12.163 -0.2241  0.0192  0.3248
11096TIP3    H154703   1.650   6.678  12.198  0.9276 -0.1676  2.1765
11096TIP3    H254704   1.763   6.769  12.239 -0.0494  2.4523 -0.6241
11097TIP3   OH254705   5.021   2.629  10.743  0.0170  0.1319 -0.6592
11097TIP3    H154706   5.017   2.550  10.689  0.8183 -0.3963  0.0342
11097TIP3    H254707   4.937   2.630  10.789  0.8178 -1.5210  0.9589
11098TIP3   OH254708   5.478   5.337   3.003  0.1206 -0.1616  0.2469
11098TIP3    H154709   5.464   5.412   3.060  2.0570 -0.2741  0.9356
11098TIP3    H254710   5.553   5.361   2.948  0.2471 -1.2633 -0.1010
11099TIP3   OH254711   2.360   0.782  11.363 -0.3373  0.0370  0.3620
11099TIP3    H154712   2.312   0.857  11.326 -1.3158 -0.3823  0.7304
11099TIP3    H254713   2.451   0.798  11.341 -0.7611  0.3133 -1.3398
11100TIP3   OH254714   3.906   4.721  11.983  0.4949  0.2471  0.4161
11100TIP3    H154715   3.838   4.660  12.011 -0.0724  0.7410  0.1308
11100TIP3    H254716   3.987   4.670  11.987  0.2230 -0.1295  1.5014
11101TIP3   OH254717   5.279   1.522   0.304 -0.3524 -0.1897 -0.7150
11101TIP3    H154718   5.331   1.539   0.383 -1.5339 -0.5023  0.1782
11101TIP3    H254719   5.333   1.463   0.252  2.2628  3.1899 -2.1709
11102TIP3   OH254720   3.336   0.512  13.048 -0.6989  0.2590 -0.0611
11102TIP3    H154721   3.342   0.424  13.011 -2.5899  0.0052  0.1594
11102TIP3    H254722   3.283   0.501  13.127 -1.3872  1.6793 -0.3013
11103TIP3   OH254723   3.728   1.705   3.520 -0.0140  0.4176 -0.1182
11103TIP3    H154724   3.694   1.643   3.455  1.1549  0.9323 -1.2528
11103TIP3    H254725   3.663   1.703   3.590 -0.4985 -1.3589 -0.5585
11104TIP3   OH254726   6.548   1.499   3.329 -0.9891 -0.5064  0.2057
11104TIP3    H154727   6.475   1.560   3.327 -1.5161 -1.0719  1.1005
11104TIP3    H254728   6.531   1.439   3.256 -1.0539 -0.2387 -0.0011
11105TIP3   OH254729   4.653   3.264  14.874  0.1466  0.6070  0.6761
11105TIP3    H154730   4.743   3.254  14.906 -0.1836 -0.4083  1.3315
11105TIP3    H254731   4.599   3.252  14.951 -0.6094 -0.2962  0.0229
11106TIP3   OH254732   3.602   1.635  14.968  0.1127  0.0682  0.1715
11106TIP3    H154733   3.634   1.619  15.057 -1.4711 -2.4664  0.4049
11106TIP3    H254734   3.616   1.551  14.923  1.6794  1.5372 -2.3007
11107TIP3   OH254735   1.198   2.181  13.857 -0.8135  0.2879  0.0112
11107TIP3    H154736   1.151   2.238  13.797  0.0748  0.3031 -0.6863
11107TIP3    H254737   1.188   2.093  13.820 -3.4062 -0.3090  1.8368
11108TIP3   OH254738   4.673   2.672   1.102  0.3027  0.0358 -0.5821
11108TIP3    H154739   4.664   2.624   1.185 -0.9929  1.9443  0.4562
11108TIP3    H254740   4.612   2.628   1.043 -0.7224  0.2383  0.2836
11109TIP3   OH254741   4.820   2.780  16.958  0.3597  0.1310  0.3894
11109TIP3    H154742   4.746   2.831  16.928  0.5893 -0.7452 -1.8396
11109TIP3    H254743   4.793   2.746  17.043 -1.7357 -0.0579 -0.3091
11110TIP3   OH254744   2.701   1.469   1.467 -0.5773 -0.2270 -0.3160
11110TIP3    H154745   2.669   1.453   1.556 -0.1293  0.0165 -0.1031
11110TIP3    H254746   2.777   1.411   1.459 -1.1115 -0.8625 -0.8420
11111TIP3   OH254747   6.592   0.288  12.839  0.6621 -0.5866  0.0816
11111TIP3    H154748   6.641   0.269  12.759  0.2485 -0.9995 -0.0744
11111TIP3    H254749   6.620   0.219  12.901  0.5680 -0.5938  0.1158
11112TIP3   OH254750   2.984   4.291  14.551  0.6852  0.4350  0.0019
11112TIP3    H154751   2.921   4.262  14.485  1.2784 -0.6487 -0.1153
11112TIP3    H254752   2.935   4.352  14.606 -0.4864 -0.4207 -0.0514
11113TIP3   OH254753   2.019   1.416  16.486  0.5232 -0.5854  0.3845
11113TIP3    H154754   2.000   1.484  16.421 -1.4790  0.6791  2.1481
11113TIP3    H254755   2.108   1.435  16.514  0.4258  0.5801 -0.0096
11114TIP3   OH254756   0.275   5.188   6.996  0.4299  0.0301 -0.3379
11114TIP3    H154757   0.330   5.249   6.947  1.1334  1.0476  1.5796
11114TIP3    H254758   0.212   5.155   6.932  0.8863  1.7505 -1.7667
11115TIP3   OH254759   3.997   4.963   1.663  0.5558  0.0849 -0.5566
11115TIP3    H154760   3.994   4.933   1.754  1.7096 -1.9572 -1.1452
11115TIP3    H254761   4.083   4.936   1.631  0.4910  1.4840 -2.0459
11116TIP3   OH254762   1.766   1.921  13.093 -0.2739  0.1767 -0.2616
11116TIP3    H154763   1.749   1.890  13.182  1.3390  0.2818  0.1196
11116TIP3    H254764   1.761   1.843  13.038  0.9430 -0.3143  0.2793
11117TIP3   OH254765   2.302   0.974   5.270 -0.4043 -0.0307 -0.5027
11117TIP3    H154766   2.354   1.034   5.216  1.7471 -2.1841 -0.9781
11117TIP3    H254767   2.366   0.916   5.310 -2.1842 -0.3543  2.1268
11118TIP3   OH254768   4.918   6.567   5.392  0.3276  0.5818 -0.0569
11118TIP3    H154769   4.900   6.654   5.357 -0.4564  0.8825  1.0298
11118TIP3    H254770   4.832   6.524   5.396  0.2164  0.8620  2.1876
11119TIP3   OH254771   5.918   3.504   4.971  0.0706  0.3438  0.0775
11119TIP3    H154772   5.993   3.472   5.021  0.6766 -0.3074 -1.2075
11119TIP3    H254773   5.854   3.433   4.977  0.3274  0.0641 -0.4530
11120TIP3   OH254774   2.420   3.263  13.753  0.3908  0.4114 -0.2119
11120TIP3    H154775   2.413   3.356  13.732  2.9159  0.4321 -1.3159
11120TIP3    H254776   2.475   3.261  13.832 -1.8334 -0.0982  1.4316
11121TIP3   OH254777   2.788   1.696  11.945 -0.5381 -0.0320 -0.1425
11121TIP3    H154778   2.728   1.659  12.009  0.1400 -1.6673 -0.4076
11121TIP3    H254779   2.814   1.780  11.982 -1.1224 -0.3911  1.1344
11122TIP3   OH254780   5.310   1.076  12.925 -0.4831  0.2626  0.1578
11122TIP3    H154781   5.399   1.049  12.948  0.0792 -1.0732 -2.9345
11122TIP3    H254782   5.298   1.161  12.967  3.0132  1.3720 -0.7364
11123TIP3   OH254783   2.438   3.998  12.212 -0.3584  0.1270 -0.3474
11123TIP3    H154784   2.399   4.064  12.155  1.4751  0.7490 -0.9535
11123TIP3    H254785   2.532   4.001  12.193  0.2169 -0.3320  1.9934
11124TIP3   OH254786   4.147   4.516   0.087 -0.3673 -0.1142 -0.0839
11124TIP3    H154787   4.223   4.564   0.056 -2.6292  2.4351 -2.1579
11124TIP3    H254788   4.093   4.502   0.009 -1.8406 -2.3308  1.1850
11125TIP3   OH254789   0.344   1.259   0.339 -0.9295 -0.6880  0.2610
11125TIP3    H154790   0.395   1.220   0.410  0.2106  1.0212  0.4351
11125TIP3    H254791   0.316   1.343   0.373 -0.8235 -0.0714 -1.1043
11126TIP3   OH254792   1.907   5.976  16.939  0.2144 -0.0940  0.0387
11126TIP3    H154793   1.854   6.052  16.915  2.2093  1.7810  1.1238
11126TIP3    H254794   1.918   5.984  17.034  3.6141  0.5961 -0.2705
11127TIP3   OH254795   1.232   3.505   1.499  0.4997  0.3711  0.5206
11127TIP3    H154796   1.222   3.447   1.423  2.8725 -0.0230  0.4442
11127TIP3    H254797   1.204   3.453   1.573  0.5642 -0.1275  0.2002
11128TIP3   OH254798   2.949   4.960   4.983  0.0363 -0.1521 -0.6954
11128TIP3    H154799   2.966   4.870   4.958  0.0944 -0.6476  0.9965
11128TIP3    H254800   2.858   4.961   5.013  0.0323  0.3510 -0.7068
11129TIP3   OH254801   0.798   2.328  14.460  0.4059  0.0267  0.3509
11129TIP3    H154802   0.748   2.276  14.396  0.6502 -0.9748  0.9558
11129TIP3    H254803   0.889   2.300  14.448  0.7453  1.2642 -0.1935
11130TIP3   OH254804   2.672   5.982  14.886  0.2854  0.0970  0.3977
11130TIP3    H154805   2.753   6.032  14.873 -0.4159  1.5816  1.5012
11130TIP3    H254806   2.614   6.041  14.933 -0.6501 -1.7259  1.6823
11131TIP3   OH254807   0.235   1.253   5.136  0.1378 -0.4021  0.7931
11131TIP3    H154808   0.278   1.300   5.065 -1.8597 -0.3329 -0.4639
11131TIP3    H254809   0.292   1.265   5.212  2.1836 -0.2021 -0.7030
11132TIP3   OH254810   2.976   3.930   3.021  0.0316 -0.0006 -0.0043
11132TIP3    H154811   2.898   3.898   3.065 -1.0664  1.0046 -1.1433
11132TIP3    H254812   3.048   3.907   3.079 -1.0865 -1.0988  0.9903
11133TIP3   OH254813   6.273   4.724  16.242  0.1209  0.2605 -0.3398
11133TIP3    H154814   6.333   4.794  16.215 -0.4023  0.8635  0.0388
11133TIP3    H254815   6.187   4.755  16.214 -0.0865 -0.3431 -0.3743
11134TIP3   OH254816   4.128   4.420   5.062 -0.1521  0.2514 -0.1270
11134TIP3    H154817   4.166   4.471   5.133 -2.6807  2.6210 -0.2952
11134TIP3    H254818   4.069   4.359   5.106  0.7779 -0.6411 -0.0778
11135TIP3   OH254819   5.684   4.839   0.372 -0.3480 -0.6713  0.7653
11135TIP3    H154820   5.673   4.785   0.294 -0.3280  0.6303 -0.1819
11135TIP3    H254821   5.722   4.780   0.438 -0.6504 -1.8690 -0.1084
11136TIP3   OH254822   5.690   6.484   0.484 -0.1420  0.0293 -0.0211
11136TIP3    H154823   5.623   6.418   0.504 -0.0286 -0.2747 -0.6383
11136TIP3    H254824   5.772   6.445   0.514  0.0648 -0.5382 -1.3086
11137TIP3   OH254825   6.062   0.174   0.295  0.4692 -0.1555  0.2418
11137TIP3    H154826   6.091   0.132   0.215  0.8807  1.5275 -0.5312
11137TIP3    H254827   5.984   0.124   0.321  0.1603 -0.5564 -1.3547
11138TIP3   OH254828   4.447   3.187  13.975 -0.0464  0.2252  0.2983
11138TIP3    H154829   4.417   3.097  13.962 -1.1865  0.5180  0.7414
11138TIP3    H254830   4.394   3.219  14.048 -0.1382  1.4630 -0.2868
11139TIP3   OH254831   4.691   5.790  10.812 -0.0744  0.2908 -0.1022
11139TIP3    H154832   4.643   5.872  10.801 -0.7988 -0.3739 -2.5674
11139TIP3    H254833   4.761   5.794  10.747 -0.0992 -1.0127 -0.2372
11140TIP3   OH254834   0.308   3.831   6.001 -0.5768 -0.6114 -0.2765
11140TIP3    H154835   0.320   3.747   5.957  0.3355 -0.9315  0.5596
11140TIP3    H254836   0.389   3.845   6.050 -0.4602  1.0364 -0.8551
11141TIP3   OH254837   4.915   6.689   3.177  0.1271  0.0921 -0.2694
11141TIP3    H154838   4.947   6.599   3.183  0.7893  0.1367 -2.2984
11141TIP3    H254839   4.943   6.730   3.259 -0.1566 -1.5128  0.6661
11142TIP3   OH254840   3.961   2.499   0.005 -0.5394  1.1075  0.3935
11142TIP3    H154841   3.896   2.433   0.028  0.5354 -0.5972 -1.1660
11142TIP3    H254842   4.012   2.513   0.084  0.8748 -1.9737  0.1816
11143TIP3   OH254843   5.675   0.252  13.334  0.5260  0.3071 -0.0859
11143TIP3    H154844   5.744   0.258  13.268  1.0219  0.2288  0.4206
11143TIP3    H254845   5.616   0.325  13.314  0.9854  0.6327 -0.2591
11144TIP3   OH254846   6.680   0.504  13.822  0.2192 -0.2073 -0.7007
11144TIP3    H154847   6.619   0.442  13.863 -1.0361  1.0492 -0.6061
11144TIP3    H254848   6.766   0.478  13.854 -0.5229 -0.4458  1.2099
11145TIP3   OH254849   1.376   1.629   3.766 -0.3511  0.3701  0.4573
11145TIP3    H154850   1.334   1.694   3.710  0.4927  0.6915  0.1791
11145TIP3    H254851   1.314   1.557   3.770  0.2835 -0.4572 -2.3974
11146TIP3   OH254852   2.524   2.296  14.156 -0.0307  0.0736 -0.5277
11146TIP3    H154853   2.438   2.288  14.199  0.6943  3.3821  1.8701
11146TIP3    H254854   2.586   2.260  14.219  0.5599 -0.4349 -1.3797
11147TIP3   OH254855   0.105   0.108   0.007  0.6687  0.3474  0.3668
11147TIP3    H154856   0.192   0.119  -0.031  0.3507 -2.0215 -1.2792
11147TIP3    H254857   0.110   0.028   0.058 -0.9852 -1.0724 -1.5086
11148TIP3   OH254858   6.750   3.980  16.890 -0.0642  0.5254  0.1825
11148TIP3    H154859   6.731   3.919  16.819  2.1082  1.0258 -0.8870
11148TIP3    H254860   6.733   3.930  16.970 -1.7000 -0.3157 -0.6453
11149TIP3   OH254861   0.822   0.482  12.126 -0.0936  0.4463  0.0063
11149TIP3    H154862   0.788   0.554  12.074 -0.0666  0.3825 -0.0998
11149TIP3    H254863   0.778   0.404  12.091  1.2812  0.1490 -1.1551
11150TIP3   OH254864   5.825   0.510  16.985  0.7688  0.2382  0.0617
11150TIP3    H154865   5.789   0.454  17.054  0.6352 -1.3386 -1.2368
11150TIP3    H254866   5.915   0.528  17.013  1.1468 -1.4865  0.0465
11151TIP3   OH254867   2.310   1.034  11.619 -0.5942  0.5464  0.3258
11151TIP3    H154868   2.376   0.978  11.660 -0.9903 -0.7897 -0.7629
11151TIP3    H254869   2.310   1.007  11.527 -1.3190  1.8578 -0.0815
11152TIP3   OH254870   1.550   0.614   0.214 -0.1998 -0.5163 -0.3635
11152TIP3    H154871   1.498   0.650   0.285  1.2199  0.6760  0.1296
11152TIP3    H254872   1.489   0.604   0.142 -1.0862  1.0538  0.1150
11153TIP3   OH254873   5.329   3.550  13.493  0.1828  0.4058 -0.6005
11153TIP3    H154874   5.239   3.582  13.489  0.6375  1.8112 -0.0950
11153TIP3    H254875   5.375   3.615  13.546  1.8233  0.5013 -2.0605
11154TIP3   OH254876   1.957   3.452   2.691  0.0356  0.2013  0.3061
11154TIP3    H154877   1.973   3.450   2.785 -0.6726 -0.8181  0.4242
11154TIP3    H254878   1.988   3.538   2.662  3.4463 -0.7145  0.8827
11155TIP3   OH254879   6.054   1.581   5.775  0.0187  0.1214  0.2041
11155TIP3    H154880   6.126   1.534   5.816 -0.0315 -0.1199  0.0188
11155TIP3    H254881   6.007   1.622   5.847  1.1330  1.4271  0.2400
11156TIP3   OH254882   6.291   3.087   5.936 -0.4235 -0.4940 -0.2412
11156TIP3    H154883   6.258   3.022   5.874 -1.5778  1.7560 -2.1650
11156TIP3    H254884   6.258   3.059   6.021 -0.0171 -2.9289 -0.8358
11157TIP3   OH254885   6.518   4.465   5.220  0.2838 -0.4502  0.7396
11157TIP3    H154886   6.423   4.458   5.228  0.0959  2.3004  2.2456
11157TIP3    H254887   6.535   4.460   5.126 -1.3786 -0.6124  0.4190
11158TIP3   OH254888   4.315   5.675   6.577 -0.1739  0.9195  0.0148
11158TIP3    H154889   4.384   5.739   6.594 -1.3375  2.2310 -0.0054
11158TIP3    H254890   4.256   5.683   6.651 -0.6488  0.2711 -0.2845
11159TIP3   OH254891   4.296   5.515  17.409  0.2825 -0.1351  0.3595
11159TIP3    H154892   4.326   5.591  17.458  0.7711  0.5777 -1.0085
11159TIP3    H254893   4.202   5.511  17.427  0.0627  1.3762 -0.2808
11160TIP3   OH254894   4.881   2.914  10.861 -0.3488  0.4509 -0.5110
11160TIP3    H154895   4.872   2.995  10.911  0.8985  0.8411 -0.8745
11160TIP3    H254896   4.792   2.895  10.831 -0.8416  1.0980  0.4683
11161TIP3   OH254897   1.483   3.421   5.514 -0.5178 -0.2093  0.7326
11161TIP3    H154898   1.529   3.483   5.570 -0.2487  0.4749 -0.2277
11161TIP3    H254899   1.390   3.441   5.528 -0.4843 -0.5958  1.5464
11162TIP3   OH254900   2.819   4.997  17.401 -0.2065 -0.0893 -0.4567
11162TIP3    H154901   2.868   4.995  17.483  0.5084  2.1175 -0.7360
11162TIP3    H254902   2.798   4.906  17.382  4.2025 -1.3162 -0.5300
11163TIP3   OH254903   1.269   6.589   0.669  0.9662 -0.2620 -0.1037
11163TIP3    H154904   1.331   6.601   0.597  2.8293  0.8634  1.5788
11163TIP3    H254905   1.195   6.647   0.648  1.3838 -0.1227 -1.2113
11164TIP3   OH254906   6.238   6.187   0.342 -0.3269 -0.0020  0.0377
11164TIP3    H154907   6.304   6.124   0.314 -0.3100 -0.3437  0.8205
11164TIP3    H254908   6.179   6.195   0.267  2.2738  2.7255 -1.9423
11165TIP3   OH254909   4.138   5.475  12.972 -0.4953  0.1319 -0.6582
11165TIP3    H154910   4.064   5.416  12.988 -0.9942  1.0926  0.7274
11165TIP3    H254911   4.102   5.544  12.916 -0.8391  0.9206  0.5035
11166TIP3   OH254912   3.834   3.348  10.842 -0.2501 -0.0763 -0.1900
11166TIP3    H154913   3.847   3.258  10.811  0.6803 -0.3012  0.8217
11166TIP3    H254914   3.853   3.345  10.935 -0.4130  1.1431 -0.0949
11167TIP3   OH254915   1.423   4.199  13.678  0.6696  0.0116 -0.3674
11167TIP3    H154916   1.344   4.234  13.638  0.3218 -0.1759  0.1590
11167TIP3    H254917   1.395   4.164  13.762  1.4828  0.8459  0.2729
11168TIP3   OH254918   6.707   5.460  14.863  0.0718 -0.5846  0.5770
11168TIP3    H154919   6.707   5.488  14.955 -0.4838  3.3623 -0.4179
11168TIP3    H254920   6.616   5.472  14.835  0.4435 -0.6811 -0.7293
11169TIP3   OH254921   3.947   4.661   3.711 -0.4935  0.4514 -0.1364
11169TIP3    H154922   4.006   4.617   3.650 -0.1926  1.3101 -0.4698
11169TIP3    H254923   3.913   4.736   3.663  0.2682  1.5360  0.9557
11170TIP3   OH254924   0.359   6.682   0.179  0.3062 -0.4149 -0.3667
11170TIP3    H154925   0.387   6.682   0.271  0.0843 -1.0705 -0.2952
11170TIP3    H254926   0.416   6.747   0.137  1.8580 -1.6111 -0.2031
11171TIP3   OH254927   3.474   3.520  10.589 -0.1394  0.0520 -0.3367
11171TIP3    H154928   3.546   3.464  10.560  0.7370  2.0258 -2.2481
11171TIP3    H254929   3.513   3.607  10.600 -1.9883  0.9388 -0.3228
11172TIP3   OH254930   0.730   0.566  16.600 -0.1718 -0.0230  0.0925
11172TIP3    H154931   0.821   0.536  16.598  0.6066  2.1617 -0.2478
11172TIP3    H254932   0.718   0.602  16.688 -0.7228 -0.2719  0.1265
11173TIP3   OH254933   1.773   3.549  15.693 -0.2062 -0.3426  0.1691
11173TIP3    H154934   1.866   3.534  15.677 -0.4528 -0.0710 -1.7524
11173TIP3    H254935   1.766   3.643  15.704 -0.2302 -0.3782  0.4493
11174TIP3   OH254936   1.399   3.669   2.685  0.2528 -0.1121 -0.3480
11174TIP3    H154937   1.395   3.702   2.775  0.5955 -0.4071 -0.2181
11174TIP3    H254938   1.401   3.747   2.630  1.9681  0.1210 -0.0115
11175TIP3   OH254939   2.969   2.800   3.268  0.1013 -0.3089  0.0709
11175TIP3    H154940   3.054   2.791   3.225  0.9470  0.2148  1.5773
11175TIP3    H254941   2.957   2.718   3.315 -1.2589 -1.2713 -1.8203
11176TIP3   OH254942   4.917   1.200   4.963  0.1848 -0.6137 -0.2001
11176TIP3    H154943   4.826   1.193   4.933 -0.1481  1.8789  0.0684
11176TIP3    H254944   4.968   1.212   4.883  0.2188 -1.2870 -0.2895
11177TIP3   OH254945   6.401   0.719  12.448 -0.0782 -0.6543  0.3720
11177TIP3    H154946   6.383   0.634  12.409  0.9591 -0.1718 -1.2226
11177TIP3    H254947   6.490   0.713  12.481 -0.0612 -0.2265  0.4103
11178TIP3   OH254948   3.930   6.566  13.495 -0.2393  0.5111 -0.1068
11178TIP3    H154949   3.877   6.500  13.451 -0.4920  1.2312 -0.8944
11178TIP3    H254950   4.010   6.519  13.520 -0.1800  0.0302 -1.1423
11179TIP3   OH254951   2.141   4.777  16.730 -0.0493  0.3171  0.0465
11179TIP3    H154952   2.111   4.763  16.820  0.8766 -0.3598  0.2692
11179TIP3    H254953   2.236   4.781  16.736  0.0104  0.6046 -0.8621
11180TIP3   OH254954   5.845   0.582  14.608  0.2205 -0.1378  0.3363
11180TIP3    H154955   5.761   0.597  14.566  0.9509 -0.0909 -1.1682
11180TIP3    H254956   5.842   0.635  14.689 -1.2653 -0.3465  0.4277
11181TIP3   OH254957   6.234   4.039  15.376 -0.1417 -0.1402  0.0823
11181TIP3    H154958   6.198   4.127  15.361  0.5919  0.0879 -0.3559
11181TIP3    H254959   6.227   3.995  15.292 -1.7204 -0.9708  0.6107
11182TIP3   OH254960   0.662   1.044  13.921  0.2218 -0.1415  0.2985
11182TIP3    H154961   0.703   1.035  13.835  1.2217  1.8851  0.4969
11182TIP3    H254962   0.705   0.978  13.975 -0.3376 -1.3634 -0.6905
11183TIP3   OH254963   6.147   1.683  13.547 -0.1580  0.2902  0.4531
11183TIP3    H154964   6.183   1.749  13.605  1.1802 -0.1119  0.1345
11183TIP3    H254965   6.223   1.652  13.496 -1.2336  0.5285 -1.3967
11184TIP3   OH254966   1.150   5.050  13.431 -0.1535  0.1156  0.0526
11184TIP3    H154967   1.101   5.132  13.427 -1.7685 -0.8306 -1.2018
11184TIP3    H254968   1.242   5.075  13.423 -0.6635  1.7549 -1.0936
11185TIP3   OH254969   2.429   4.242  13.063 -0.1671  0.1079 -0.8842
11185TIP3    H154970   2.418   4.326  13.109 -1.1329 -0.2181 -0.4842
11185TIP3    H254971   2.392   4.177  13.123  0.1806 -0.5534 -1.3778
11186TIP3   OH254972   1.734   3.880   1.579 -0.4089 -0.3278  0.7943
11186TIP3    H154973   1.780   3.955   1.618 -0.5520  0.0597  0.2351
11186TIP3    H254974   1.747   3.809   1.642  1.1154 -0.2872  0.5800
11187TIP3   OH254975   5.350   5.763   4.105  0.1464 -0.3221 -0.2389
11187TIP3    H154976   5.431   5.720   4.131  0.7431 -0.3570 -2.0431
11187TIP3    H254977   5.291   5.750   4.179  1.9689  0.2799  1.4105
11188TIP3   OH254978   1.783   2.800  16.891  0.1632  0.0985 -0.1738
11188TIP3    H154979   1.746   2.862  16.828 -0.3593 -0.8340 -0.8098
11188TIP3    H254980   1.839   2.743  16.839 -0.0734 -0.5278  0.2404
11189TIP3   OH254981   1.127   2.148  16.571  0.3884 -0.1525  0.2988
11189TIP3    H154982   1.058   2.215  16.571  1.6437  1.1905  0.3990
11189TIP3    H254983   1.105   2.092  16.496 -1.2674 -0.2848  0.8309
11190TIP3   OH254984   3.749   6.269  14.148 -0.1485 -0.2939  0.4470
11190TIP3    H154985   3.801   6.263  14.228  1.2856  0.8436 -0.3475
11190TIP3    H254986   3.812   6.291  14.080 -1.5746  0.4887 -0.6802
11191TIP3   OH254987   6.649   2.810   2.825  0.5077 -0.2080 -1.0822
11191TIP3    H154988   6.564   2.855   2.820  0.8346  0.4760 -0.5288
11191TIP3    H254989   6.657   2.784   2.917  0.0510 -1.9566 -1.4956
11192TIP3   OH254990   6.601   2.451  16.884  0.0580  0.5175  0.6293
11192TIP3    H154991   6.677   2.404  16.850 -0.2911  0.5784 -0.2593
11192TIP3    H254992   6.551   2.475  16.806  0.6916  3.2169  0.9459
11193TIP3   OH254993   3.244   3.180   2.326 -0.2199 -0.0685  0.1908
11193TIP3    H154994   3.305   3.253   2.328 -0.3006 -0.0102  1.4842
11193TIP3    H254995   3.164   3.216   2.287  0.2895  0.0667 -0.7545
11194TIP3   OH254996   5.622   3.887  13.957  0.0821 -0.4705  0.1342
11194TIP3    H154997   5.593   3.846  14.038  1.1778 -1.3382  0.1124
11194TIP3    H254998   5.545   3.884  13.900 -0.1817 -1.5084  0.5224
11195TIP3   OH254999   4.128   4.932   2.400 -0.0376  0.3416 -1.0578
11195TIP3    H155000   4.077   4.854   2.379 -0.0020 -0.2506  0.8634
11195TIP3    H255001   4.219   4.903   2.393 -0.0232 -0.0526  0.3962
11196TIP3   OH255002   2.404   1.817  13.747  0.1002 -0.3458  0.5033
11196TIP3    H155003   2.446   1.733  13.767  1.2796 -0.2142 -1.2662
11196TIP3    H255004   2.316   1.793  13.718  0.6166 -1.0483 -0.5461
11197TIP3   OH255005   6.388   5.431  12.617 -0.0276  0.1412 -0.5924
11197TIP3    H155006   6.300   5.467  12.619  0.4530  1.4657 -1.4400
11197TIP3    H255007   6.421   5.444  12.706 -0.3289  0.6076 -0.5436
11198TIP3   OH255008   5.800   1.191   1.215  0.4351 -0.2447 -0.5349
11198TIP3    H155009   5.758   1.107   1.235  0.6502 -0.5873 -1.4567
11198TIP3    H255010   5.832   1.223   1.300 -2.5285  0.5375  0.3901
11199TIP3   OH255011   3.330   6.093   1.632  0.1306 -0.8443 -0.8518
11199TIP3    H155012   3.287   6.010   1.612  1.8577 -1.6962 -1.2077
11199TIP3    H255013   3.407   6.095   1.574  0.8872  0.3480  0.1391
11200TIP3   OH255014   2.512   2.644  17.119  0.2345 -0.5661  0.1126
11200TIP3    H155015   2.485   2.606  17.036  2.2340 -0.7346 -0.5115
11200TIP3    H255016   2.573   2.714  17.096 -1.5009  1.4908  1.3482
11201TIP3   OH255017   6.615   0.730  14.564  0.2148  0.0483  0.3927
11201TIP3    H155018   6.530   0.688  14.549 -0.2964  0.9735  0.6083
11201TIP3    H255019   6.654   0.679  14.636 -0.2683 -0.2275  0.4668
11202TIP3   OH255020   1.833   4.284  14.971  0.5587  0.0761  0.2368
11202TIP3    H155021   1.875   4.202  14.998  1.6254  0.2395 -0.8173
11202TIP3    H255022   1.802   4.267  14.882  3.1971  1.5600 -1.0925
11203TIP3   OH255023   2.347   5.367   5.165  0.4232 -0.1159  0.6110
11203TIP3    H155024   2.347   5.463   5.157  0.9574 -0.1642 -0.1027
11203TIP3    H255025   2.295   5.350   5.243 -1.0320  0.6764 -0.1501
11204TIP3   OH255026   3.600   1.085  15.200 -0.0087 -0.6455  0.2298
11204TIP3    H155027   3.617   1.021  15.269  0.9981  0.2365  0.8316
11204TIP3    H255028   3.612   1.170  15.242 -3.4284  0.0618  0.0060
11205TIP3   OH255029   6.348   0.616  13.723  0.0597 -0.1344  0.1189
11205TIP3    H155030   6.361   0.613  13.628 -1.3445  0.2548 -0.1203
11205TIP3    H255031   6.421   0.668  13.756  1.4257 -1.5784 -0.5409
11206TIP3   OH255032   0.632   3.604  17.025 -0.3731  0.2112  0.0907
11206TIP3    H155033   0.670   3.575  16.942 -3.4727 -2.4053 -0.6466
11206TIP3    H255034   0.624   3.523  17.077 -1.6652  1.2096  1.5349
11207TIP3   OH255035   2.843   4.795  13.855  0.0167  0.1986 -0.3689
11207TIP3    H155036   2.767   4.801  13.913 -0.1359 -1.4370 -0.3571
11207TIP3    H255037   2.914   4.765  13.912  1.1968  3.2506  0.0068
11208TIP3   OH255038   0.844   0.122   2.382  0.0246 -0.2548  0.2983
11208TIP3    H155039   0.906   0.054   2.358 -1.2473 -1.1116 -0.7358
11208TIP3    H255040   0.878   0.159   2.463  2.2187 -0.2087 -0.5816
11209TIP3   OH255041   0.497   6.400  15.736 -0.0034 -0.3984  0.2090
11209TIP3    H155042   0.575   6.347  15.752 -0.4122 -1.4073 -0.9574
11209TIP3    H255043   0.501   6.421  15.643 -0.1539  1.1722  0.5296
11210TIP3   OH255044   3.963   4.171   6.024 -0.2048 -0.7722  0.2209
11210TIP3    H155045   3.882   4.221   6.012  0.7797  0.6632 -0.7167
11210TIP3    H255046   4.018   4.225   6.079  1.6002  0.1559 -2.2989
11211TIP3   OH255047   3.318   0.099   6.020 -0.0273  0.0523  0.7814
11211TIP3    H155048   3.313   0.192   6.043 -2.6100  0.5909 -1.3401
11211TIP3    H255049   3.245   0.059   6.067 -0.0500 -0.5204  0.2692
11212TIP3   OH255050   5.946   1.317  10.614  0.0902 -0.2565 -0.3661
11212TIP3    H155051   5.928   1.243  10.556 -2.5315  0.9924 -1.3032
11212TIP3    H255052   5.890   1.387  10.582  0.9156  1.5109  1.7765
11213TIP3   OH255053   1.932   1.019  11.919 -1.0401  0.0863  0.4023
11213TIP3    H155054   1.931   0.924  11.904  2.1696  0.5035 -5.3349
11213TIP3    H255055   1.994   1.032  11.990 -1.6261 -2.0296  1.3825
11214TIP3   OH255056   0.707   0.944  16.759  0.2878 -0.0810 -0.1632
11214TIP3    H155057   0.628   0.937  16.705 -0.0213  0.6693  0.1812
11214TIP3    H255058   0.675   0.963  16.847  0.8589  1.0239 -0.1675
11215TIP3   OH255059   4.147   2.036  12.567  0.0602 -0.0052 -1.1029
11215TIP3    H155060   4.092   1.957  12.569  3.4992 -2.6178  0.3141
11215TIP3    H255061   4.085   2.108  12.582 -3.1417 -2.4738 -1.2444
11216TIP3   OH255062   1.395   4.507  15.198  0.5284 -0.2659 -0.2009
11216TIP3    H155063   1.488   4.486  15.205  0.5010 -0.4468 -0.3996
11216TIP3    H255064   1.350   4.429  15.231  0.4752  0.7475  2.3887
11217TIP3   OH255065   1.708   6.574  12.577  0.0537 -0.6483 -0.4297
11217TIP3    H155066   1.640   6.613  12.631  1.6401  0.8791  0.5759
11217TIP3    H255067   1.741   6.501  12.628 -1.7393 -2.3633 -1.5632
11218TIP3   OH255068   2.643   3.725   1.774  0.2624  0.6090 -0.0181
11218TIP3    H155069   2.616   3.676   1.697 -2.6124  0.4773  0.9287
11218TIP3    H255070   2.737   3.708   1.783  0.5285  0.0192 -2.9810
11219TIP3   OH255071   1.659   5.524  13.223 -0.2632 -0.0099 -0.9178
11219TIP3    H155072   1.730   5.569  13.177  0.9748  1.7206  2.3237
11219TIP3    H255073   1.661   5.561  13.312 -3.0195 -2.4153  0.3182
11220TIP3   OH255074   0.191   1.212   5.868  0.5489  0.1266 -0.0439
11220TIP3    H155075   0.254   1.267   5.913  0.2635 -0.8840  1.6941
11220TIP3    H255076   0.118   1.205   5.929  0.4980 -1.9696 -0.2733
11221TIP3   OH255077   3.589   6.156  16.116  0.5480 -0.6173 -0.2777
11221TIP3    H155078   3.511   6.201  16.083  0.1495 -0.6532  0.5931
11221TIP3    H255079   3.644   6.226  16.151  1.6800 -0.3963 -2.3524
11222TIP3   OH255080   1.289   2.916  13.851  0.3558 -0.1737  0.1369
11222TIP3    H155081   1.256   2.835  13.812 -0.2401 -0.3879  1.0299
11222TIP3    H255082   1.213   2.975  13.851  0.7296  0.3159 -0.3191
11223TIP3   OH255083   4.860   0.333  16.891 -0.3920  0.4759  0.5174
11223TIP3    H155084   4.773   0.334  16.850  0.6519 -0.7753 -2.0001
11223TIP3    H255085   4.853   0.267  16.960 -1.2361 -0.2226 -0.2081
11224TIP3   OH255086   5.220   2.559  16.802  0.3041 -0.4318 -0.4057
11224TIP3    H155087   5.246   2.583  16.714  0.8866 -0.8827 -0.3624
11224TIP3    H255088   5.234   2.464  16.807 -0.9307 -0.6239 -0.2350
11225TIP3   OH255089   1.891   3.587   3.414  0.4348  0.6070 -0.3643
11225TIP3    H155090   1.978   3.594   3.374 -0.9088  2.4537 -3.3444
11225TIP3    H255091   1.897   3.638   3.494  2.5051 -0.7974  0.4610
11226TIP3   OH255092   2.387   3.150   3.581 -0.4367  0.0984 -0.1313
11226TIP3    H155093   2.397   3.055   3.577 -0.7793  0.0816 -0.6792
11226TIP3    H255094   2.293   3.165   3.571 -0.7389  0.3881  2.3668
11227TIP3   OH255095   5.211   2.413   2.932  0.2080  0.5867  0.2480
11227TIP3    H155096   5.191   2.498   2.894 -3.0432 -0.6701 -1.2124
11227TIP3    H255097   5.263   2.368   2.866 -0.7579  0.3488 -0.3595
11228TIP3   OH255098   3.218   4.665  11.227  0.1809 -0.8012  0.9142
11228TIP3    H155099   3.180   4.736  11.175  0.8094 -2.3116 -1.7953
11228TIP3    H255100   3.148   4.639  11.286 -0.8292  0.5808  0.3871
11229TIP3   OH255101   5.978   4.780   4.315  0.1500 -0.1890  0.5135
11229TIP3    H155102   5.931   4.738   4.244  1.1680 -0.8175  0.1777
11229TIP3    H255103   6.045   4.716   4.340  0.4360  0.4226  1.3702
11230TIP3   OH255104   1.697   3.718   2.792 -0.3854  0.3338  0.3531
11230TIP3    H155105   1.773   3.738   2.738  0.5565 -0.6512  1.2602
11230TIP3    H255106   1.646   3.799   2.793  1.4990  1.5746  1.0796
11231TIP3   OH255107   1.241   5.472   3.884 -0.0519  0.3200  1.0311
11231TIP3    H155108   1.150   5.473   3.853 -0.1096  0.3758  1.2056
11231TIP3    H255109   1.279   5.551   3.846  0.0346  0.0858  0.6232
11232TIP3   OH255110   0.639   4.089   4.065  0.0360 -0.6729  0.5098
11232TIP3    H155111   0.656   4.028   3.993 -0.6528 -1.6836  1.1739
11232TIP3    H255112   0.722   4.093   4.113  0.0993 -1.0613  0.4343
11233TIP3   OH255113   3.118   5.266   1.458  0.1336 -0.1969 -0.2354
11233TIP3    H155114   3.129   5.347   1.408 -0.3069  0.0006 -0.0161
11233TIP3    H255115   3.120   5.197   1.392 -2.7227  0.1944 -0.8348
11234TIP3   OH255116   5.437   0.734  12.193  0.6558 -0.2576  0.2379
11234TIP3    H155117   5.415   0.652  12.238  0.1692  0.5282  1.4958
11234TIP3    H255118   5.421   0.716  12.101 -0.8591 -1.1349  0.6396
11235TIP3   OH255119   3.904   1.632   1.165  0.0477  0.0355  0.0550
11235TIP3    H155120   3.882   1.713   1.118  0.6903 -0.6946 -1.6156
11235TIP3    H255121   3.986   1.603   1.124  0.0775 -1.2025  0.9532
11236TIP3   OH255122   2.746   0.015   0.573  0.3532  0.6307  0.5874
11236TIP3    H155123   2.822  -0.037   0.548 -1.9819 -3.1747  0.7645
11236TIP3    H255124   2.712   0.050   0.491 -0.3021 -1.5993 -0.1526
11237TIP3   OH255125   1.344   3.493  13.994 -0.1664  0.1506  0.2301
11237TIP3    H155126   1.374   3.566  14.048  0.6467  0.8722 -1.1317
11237TIP3    H255127   1.418   3.432  13.993 -0.6482 -0.4472  0.9435
11238TIP3   OH255128   0.664   2.168  10.147  0.2567 -0.1761  0.3231
11238TIP3    H155129   0.611   2.244  10.121 -0.8074 -1.3682 -1.1335
11238TIP3    H255130   0.747   2.180  10.100 -0.8138 -1.1250 -1.9652
11239TIP3   OH255131   5.650   5.429  12.709 -0.4882  0.2916 -0.0648
11239TIP3    H155132   5.643   5.523  12.726  0.3475  0.4706 -0.6356
11239TIP3    H255133   5.609   5.417  12.623  1.1925  0.4760 -0.9230
11240TIP3   OH255134   5.481   6.096   5.977 -0.2927 -1.0657  0.4171
11240TIP3    H155135   5.530   6.066   5.901  0.0564 -1.4504  0.7952
11240TIP3    H255136   5.425   6.022   6.002 -0.6060 -0.8484  0.3735
11241TIP3   OH255137   3.703   5.406   1.980 -0.2592  0.2193  0.2266
11241TIP3    H155138   3.745   5.371   2.058  1.1562 -1.3156 -1.1407
11241TIP3    H255139   3.664   5.330   1.937  0.7288  0.6821 -1.5743
11242TIP3   OH255140   5.085   0.757   1.266  0.3290  0.5058  0.9365
11242TIP3    H155141   5.044   0.760   1.353 -3.1365 -1.4487 -0.4363
11242TIP3    H255142   5.078   0.847   1.234 -0.6916  0.7464  1.7573
11243TIP3   OH255143   1.347   0.237   6.998 -0.2030 -0.2691 -0.3181
11243TIP3    H155144   1.394   0.289   6.933 -0.2439  0.4217  0.2037
11243TIP3    H255145   1.264   0.215   6.955 -0.6331  0.9903 -0.1557
11244TIP3   OH255146   0.247   0.178   3.196 -0.0713  0.3062  0.3050
11244TIP3    H155147   0.163   0.164   3.153  0.7863 -2.3906 -0.7250
11244TIP3    H255148   0.308   0.197   3.125  0.6126 -0.1917  0.7391
11245TIP3   OH255149   4.280   5.822   2.764  0.6452  0.2947  0.1360
11245TIP3    H155150   4.331   5.789   2.838  0.2804 -0.1517  0.1921
11245TIP3    H255151   4.246   5.743   2.721  1.1854  0.5191 -0.7524
11246TIP3   OH255152   5.989   0.364  13.975 -0.0883  0.2470  0.2740
11246TIP3    H155153   5.945   0.435  14.022  1.9557 -0.3541  3.4520
11246TIP3    H255154   6.081   0.392  13.972  0.3262 -1.1328 -0.7667
11247TIP3   OH255155   1.138   3.531   3.317  0.1050  0.4438 -0.0481
11247TIP3    H155156   1.171   3.621   3.312 -0.2501  0.6726  1.2870
11247TIP3    H255157   1.146   3.508   3.410  1.3660 -1.3758 -0.5602
11248TIP3   OH255158   0.656   4.915   0.528 -0.5439 -0.4820 -0.1156
11248TIP3    H155159   0.564   4.904   0.504 -0.6855  1.0876 -0.4093
11248TIP3    H255160   0.681   4.832   0.568 -2.4406 -0.5398  1.0781
11249TIP3   OH255161   6.527   3.580  14.338 -0.7284 -0.0363 -0.0097
11249TIP3    H155162   6.565   3.510  14.286 -0.1785  2.0758 -2.7163
11249TIP3    H255163   6.432   3.564  14.334 -0.5527 -1.3253  0.5787
11250TIP3   OH255164   5.291   5.139  13.380 -0.2937 -0.0851  0.0240
11250TIP3    H155165   5.331   5.068  13.331 -0.3721 -0.7453  0.9008
11250TIP3    H255166   5.285   5.211  13.317  0.7032 -0.5217 -0.5911
11251TIP3   OH255167   3.460   3.190   3.216 -0.8979  0.1010  0.1350
11251TIP3    H155168   3.547   3.197   3.177 -1.4401  0.9107 -1.0173
11251TIP3    H255169   3.461   3.108   3.263  0.3400 -0.1356 -0.2659
11252TIP3   OH255170   6.690   4.246   1.442  0.5840 -0.0465 -0.3268
11252TIP3    H155171   6.736   4.234   1.525 -1.2780  1.7671  1.0581
11252TIP3    H255172   6.711   4.336   1.417 -1.7879  0.6876  0.1273
11253TIP3   OH255173   0.543   3.653   0.587 -0.2141 -0.5431  0.0877
11253TIP3    H155174   0.491   3.727   0.618  1.3223 -0.1039  1.7894
11253TIP3    H255175   0.495   3.621   0.510 -0.4770  2.7510 -1.3081
11254TIP3   OH255176   3.689   3.618   0.826  0.3005  0.2035 -0.2503
11254TIP3    H155177   3.723   3.658   0.906 -2.1744  1.3777  0.3250
11254TIP3    H255178   3.720   3.674   0.755  1.4677 -0.1146 -0.0061
11255TIP3   OH255179   6.004   4.362   1.871 -0.7375  0.1212 -0.2757
11255TIP3    H155180   6.062   4.322   1.936  1.7053  2.6205 -0.7076
11255TIP3    H255181   6.044   4.343   1.787 -2.1206 -0.3835 -0.8602
11256TIP3   OH255182   1.909   6.262  13.389 -0.5812  0.2035 -0.0127
11256TIP3    H155183   1.963   6.330  13.350 -0.0798  0.9791  1.8949
11256TIP3    H255184   1.929   6.267  13.483 -0.2991 -2.7817  0.1712
11257TIP3   OH255185   6.536   0.771  11.313  0.1904  0.5577  0.1474
11257TIP3    H155186   6.515   0.680  11.331 -0.9969  0.6303 -0.7832
11257TIP3    H255187   6.508   0.786  11.223  2.2089  1.3187 -0.4154
11258TIP3   OH255188   2.621   3.836  15.166 -0.4954 -0.0024 -0.3733
11258TIP3    H155189   2.714   3.826  15.183 -0.7762 -1.3773  0.4842
11258TIP3    H255190   2.578   3.777  15.229 -1.8964 -0.2345 -1.4916
11259TIP3   OH255191   1.123   5.350  12.894  0.1179  0.3094 -0.6801
11259TIP3    H155192   1.143   5.292  12.967 -0.9542  0.3101 -0.3766
11259TIP3    H255193   1.206   5.358  12.847  1.6374  2.6554  2.1222
11260TIP3   OH255194   6.592   1.123   1.536 -0.1805  0.1473  0.4654
11260TIP3    H155195   6.526   1.190   1.548 -1.4617 -1.3315  2.3563
11260TIP3    H255196   6.560   1.070   1.463 -1.2924 -0.7161  1.5392
11261TIP3   OH255197   4.293   0.855  13.143  0.2824  0.3793  0.4283
11261TIP3    H155198   4.343   0.901  13.076  0.5315 -0.3752  0.0863
11261TIP3    H255199   4.328   0.767  13.143 -0.2576  0.1561  1.0045
11262TIP3   OH255200   3.065   2.618  15.207 -0.0640  0.0073  0.6466
11262TIP3    H155201   3.054   2.523  15.212  1.7917 -0.1808  3.1196
11262TIP3    H255202   2.985   2.653  15.247 -0.5461 -0.5169  0.1582
11263TIP3   OH255203   0.587   3.796  15.774 -0.3749  0.3901 -0.4257
11263TIP3    H155204   0.601   3.704  15.752 -1.4446 -0.0000  0.4322
11263TIP3    H255205   0.492   3.808  15.769 -0.3644  1.1280  0.6735
11264TIP3   OH255206   2.074   0.494   4.345  0.5756 -0.0343 -0.5353
11264TIP3    H155207   2.037   0.562   4.289 -1.2970 -0.2148  0.3774
11264TIP3    H255208   2.082   0.536   4.431  0.0546 -0.7370 -0.1278
11265TIP3   OH255209   2.372   4.285   4.813 -0.4819  0.2546  0.2345
11265TIP3    H155210   2.342   4.374   4.794  0.9047  1.0612  1.6611
11265TIP3    H255211   2.435   4.295   4.884 -1.0759 -1.9940  1.1625
11266TIP3   OH255212   3.138   6.661  17.251  0.1383 -0.1926  0.1504
11266TIP3    H155213   3.106   6.578  17.287  0.2359 -0.1329  0.3796
11266TIP3    H255214   3.064   6.696  17.202 -1.5026  1.7297  3.6158
11267TIP3   OH255215   4.927   4.424   0.466 -0.4055 -0.1737 -0.2627
11267TIP3    H155216   5.020   4.428   0.485 -0.5943 -0.4438  0.7947
11267TIP3    H255217   4.892   4.507   0.499 -0.6173 -0.3100 -0.1377
11268TIP3   OH255218   2.482   4.395  11.788  0.2555 -0.3639  0.0334
11268TIP3    H155219   2.550   4.415  11.852  0.2968  0.5823 -0.2759
11268TIP3    H255220   2.473   4.300  11.789  0.4745 -0.3823  1.2110
11269TIP3   OH255221   4.732   4.318  16.804  0.1618  0.2014  0.2466
11269TIP3    H155222   4.718   4.403  16.760  0.8263 -0.4687 -1.3525
11269TIP3    H255223   4.811   4.283  16.763 -0.1009 -1.2019  0.8882
11270TIP3   OH255224   5.360   6.259   5.622  0.1088 -0.0945 -0.0663
11270TIP3    H155225   5.440   6.270   5.674  0.1992  1.1654 -0.4174
11270TIP3    H255226   5.382   6.193   5.556  0.5721 -0.3920  0.3863
11271TIP3   OH255227   3.185   4.407   4.143 -0.1428 -0.7926 -0.2385
11271TIP3    H155228   3.253   4.465   4.109 -0.5705 -0.0982  0.0532
11271TIP3    H255229   3.103   4.445   4.110 -0.4971 -0.6516  0.7658
11272TIP3   OH255230   2.153   6.480   2.800  0.4489 -0.2500 -0.0283
11272TIP3    H155231   2.062   6.500   2.777 -0.6850 -2.0930  2.3692
11272TIP3    H255232   2.183   6.557   2.849 -0.5799 -0.4746  0.9841
11273TIP3   OH255233   0.716   6.634   6.037  1.1088  0.5781 -0.7884
11273TIP3    H155234   0.622   6.641   6.019  0.3358 -0.1425  2.3475
11273TIP3    H255235   0.732   6.700   6.106  2.1309 -1.4531  1.0462
11274TIP3   OH255236   0.689   1.053  17.004 -0.0626 -0.4009  0.2040
11274TIP3    H155237   0.760   1.072  16.943  0.5070  0.9174  1.2250
11274TIP3    H255238   0.733   1.035  17.087 -0.8817 -0.5254  0.6247
11275TIP3   OH255239   2.243   6.566  14.113 -0.9408  0.4294 -0.3306
11275TIP3    H155240   2.224   6.629  14.182  1.2534  0.8193  0.0087
11275TIP3    H255241   2.244   6.618  14.032  0.2708  0.7695 -0.1252
11276TIP3   OH255242   2.795   5.202  12.772  0.7463  0.1525 -0.0617
11276TIP3    H155243   2.871   5.260  12.769 -0.9897  2.5761 -0.4413
11276TIP3    H255244   2.804   5.146  12.695  1.9404  0.6680 -0.3149
11277TIP3   OH255245   1.294   5.607   3.469  0.8674  0.1169  0.2658
11277TIP3    H155246   1.353   5.562   3.530  0.3358  1.5293  1.9197
11277TIP3    H255247   1.319   5.699   3.477 -0.8884  0.6152  0.2560
11278TIP3   OH255248   5.896   5.984   3.367 -0.2505  0.1726  0.1424
11278TIP3    H155249   5.825   6.045   3.348 -1.4215 -0.5754  1.9026
11278TIP3    H255250   5.934   6.015   3.449  0.2048 -0.5415  0.2168
11279TIP3   OH255251   6.503   4.908   2.632 -0.5936  0.7621 -0.0183
11279TIP3    H155252   6.439   4.965   2.675 -0.1420  0.7141  0.7448
11279TIP3    H255253   6.510   4.832   2.689  0.0027  0.6812 -0.1849
11280TIP3   OH255254   2.928   6.337  11.377 -0.4781  0.1290  0.3564
11280TIP3    H155255   2.961   6.411  11.326 -0.1510 -1.5235 -1.9664
11280TIP3    H255256   2.833   6.347  11.374 -0.4665  0.0300 -0.6593
11281TIP3   OH255257   2.465   1.896   0.387  0.2627 -0.2017 -0.1211
11281TIP3    H155258   2.450   1.829   0.321  0.0817  0.1995 -0.4871
11281TIP3    H255259   2.527   1.855   0.448 -0.0068 -0.7761 -0.2239
11282TIP3   OH255260   3.662   2.689  17.363 -0.3441  0.6412 -0.0486
11282TIP3    H155261   3.742   2.740  17.375  0.1674  0.1297 -1.1537
11282TIP3    H255262   3.679   2.606  17.407 -0.9995  1.2049  1.3408
11283TIP3   OH255263   2.686   0.160  14.240 -0.4592 -0.4774 -0.3229
11283TIP3    H155264   2.710   0.151  14.148 -1.2668 -1.2224 -0.4760
11283TIP3    H255265   2.722   0.082  14.282 -0.4922 -0.3718 -0.0949
11284TIP3   OH255266   3.161   4.794  13.117 -0.4986  0.3480  0.0603
11284TIP3    H155267   3.229   4.837  13.064  0.4478  0.7651  1.5280
11284TIP3    H255268   3.195   4.706  13.132 -1.0017  0.0654 -0.4248
11285TIP3   OH255269   3.665   2.677  11.153  0.1340 -0.1973  0.2397
11285TIP3    H155270   3.594   2.695  11.091  0.6778 -0.0773 -0.3631
11285TIP3    H255271   3.621   2.647  11.233 -0.4901 -2.7299 -0.9632
11286TIP3   OH255272   2.568   2.110   5.689 -0.4923 -0.1743  0.3975
11286TIP3    H155273   2.637   2.110   5.623 -2.1603  0.9065 -1.4588
11286TIP3    H255274   2.514   2.035   5.667 -1.8614  1.0022 -0.4292
11287TIP3   OH255275   4.593   1.479   4.178 -0.3801  0.6820 -0.3782
11287TIP3    H155276   4.534   1.550   4.203  0.7893  1.2662  0.8550
11287TIP3    H255277   4.586   1.474   4.083 -1.9199  1.1518 -0.3089
11288TIP3   OH255278   2.775   3.875   5.097 -0.7002  0.2698 -0.3397
11288TIP3    H155279   2.728   3.817   5.157 -1.8420 -0.5572 -1.9444
11288TIP3    H255280   2.706   3.925   5.053  0.0768  0.5955 -1.2205
11289TIP3   OH255281   4.611   0.455  12.518  0.4759 -0.0570 -0.1508
11289TIP3    H155282   4.542   0.514  12.487  0.5324  0.2897  0.3811
11289TIP3    H255283   4.648   0.498  12.595  0.9041 -0.5136 -0.0915
11290TIP3   OH255284   2.679   0.812  17.383 -0.2993 -0.1136 -0.0867
11290TIP3    H155285   2.679   0.854  17.469  3.2316 -0.9532  0.4730
11290TIP3    H255286   2.727   0.874  17.327 -0.8357 -0.4719 -0.9585
11291TIP3   OH255287   1.100   4.741  12.283  0.0713  1.0050 -0.0932
11291TIP3    H155288   1.150   4.760  12.363  0.8910  0.3872 -0.4496
11291TIP3    H255289   1.102   4.646  12.276 -0.3876  1.0299 -0.6129
11292TIP3   OH255290   3.684   6.395  12.300 -0.4341 -0.1589  0.7051
11292TIP3    H155291   3.602   6.426  12.261 -1.3413 -0.4641  2.2524
11292TIP3    H255292   3.728   6.475  12.329  0.0912  0.0434 -0.6172
11293TIP3   OH255293   6.607   6.017   1.261  0.0582 -0.0161 -0.0821
11293TIP3    H155294   6.664   6.088   1.287  0.9763 -1.0111  0.7202
11293TIP3    H255295   6.614   6.013   1.165 -0.5984  1.4247 -0.2079
11294TIP3   OH255296   4.233   6.720  12.728 -0.1138  0.4690  0.5694
11294TIP3    H155297   4.243   6.625  12.733 -0.8621  0.4539  2.1476
11294TIP3    H255298   4.282   6.753  12.803 -1.2597  1.1942  1.0246
11295TIP3   OH255299   1.293   0.527   1.076 -0.1417  0.2531 -0.1601
11295TIP3    H155300   1.301   0.436   1.105 -0.1779  0.2223 -0.2462
11295TIP3    H255301   1.384   0.557   1.068 -0.1148  0.9726  2.1939
11296TIP3   OH255302   6.528   1.285   5.592  0.4761  0.0468  0.0824
11296TIP3    H155303   6.439   1.252   5.595  0.9063 -1.2312 -0.6455
11296TIP3    H255304   6.519   1.376   5.563 -0.6865  0.4464  1.5571
11297TIP3   OH255305   4.368   4.411   4.032 -0.1363  0.1608 -0.8705
11297TIP3    H155306   4.281   4.376   4.011 -0.3016  1.2207 -2.0654
11297TIP3    H255307   4.365   4.427   4.126 -0.9575 -0.5624 -0.7622
11298TIP3   OH255308   6.287   3.792   1.103 -0.1948 -0.3386  0.3632
11298TIP3    H155309   6.337   3.785   1.185  0.0172  0.5817  0.3221
11298TIP3    H255310   6.327   3.865   1.056 -2.9018  1.9594  1.3116
11299TIP3   OH255311   5.657   1.751   1.641  0.6821 -0.3884 -0.0893
11299TIP3    H155312   5.741   1.726   1.602  0.0704  0.2253 -1.8655
11299TIP3    H255313   5.591   1.709   1.586 -0.2176  0.0006  0.6606
11300TIP3   OH255314   6.514   4.796   3.781 -0.5531  0.1143  0.1174
11300TIP3    H155315   6.597   4.816   3.738 -0.3271 -0.2042  0.4045
11300TIP3    H255316   6.499   4.703   3.764 -0.3848 -0.0553  0.8415
11301TIP3   OH255317   1.117   1.687   0.459 -0.3870  1.0363 -0.1308
11301TIP3    H155318   1.200   1.735   0.457 -0.0547  0.4698  0.1129
11301TIP3    H255319   1.085   1.699   0.548 -0.1985  0.6207 -0.0088
11302TIP3   OH255320   6.412   2.869   5.109  0.5841 -0.3298  0.7660
11302TIP3    H155321   6.441   2.828   5.191  0.5295 -0.2591  0.8213
11302TIP3    H255322   6.488   2.865   5.051  0.3358 -1.2302  0.4950
11303TIP3   OH255323   1.169   4.578  14.502  0.0393 -0.0098 -0.4047
11303TIP3    H155324   1.134   4.578  14.414 -0.8643 -0.6305 -0.0556
11303TIP3    H255325   1.234   4.649  14.502 -0.8805  0.8550 -1.1929
11304TIP3   OH255326   6.129   0.955  15.779  0.3016  0.2290 -0.5882
11304TIP3    H155327   6.127   0.972  15.873 -1.1538  1.3263 -0.7711
11304TIP3    H255328   6.152   1.040  15.740  1.0044 -0.2421 -1.2262
11305TIP3   OH255329   4.004   4.986   1.976 -0.2545 -0.2174 -0.5833
11305TIP3    H155330   4.080   4.928   1.975 -1.1011 -1.4037  0.2094
11305TIP3    H255331   4.040   5.074   1.979  1.0940 -0.7630  0.0185
11306TIP3   OH255332   4.472   6.323   5.171 -0.0062  0.0664 -0.1415
11306TIP3    H155333   4.528   6.392   5.136 -0.9364  0.9622  0.0892
11306TIP3    H255334   4.383   6.349   5.145 -0.2941 -1.5986 -0.9674
11307TIP3   OH255335   0.317   0.425  10.982 -0.1571  0.3775  0.2051
11307TIP3    H155336   0.261   0.434  11.059 -1.9239 -1.3732 -0.7561
11307TIP3    H255337   0.382   0.360  11.007 -0.8821 -0.3792  0.1809
11308TIP3   OH255338   4.987   5.268   2.409 -0.4125 -0.3577  0.2759
11308TIP3    H155339   4.941   5.216   2.475  0.7126 -2.7844 -0.7361
11308TIP3    H255340   5.080   5.250   2.424 -0.0787 -0.1907 -1.3419
11309TIP3   OH255341   2.821   0.516  16.975 -0.1266 -0.6333  0.4147
11309TIP3    H155342   2.885   0.546  16.910  0.2594  0.9617  1.4776
11309TIP3    H255343   2.854   0.431  17.004  0.8294 -0.3938  0.0477
11310TIP3   OH255344   6.544   5.389   5.482 -0.5489 -0.1848 -0.5965
11310TIP3    H155345   6.570   5.356   5.396  0.4702  0.2926 -0.4831
11310TIP3    H255346   6.593   5.335   5.545 -1.6129 -0.8195 -0.2864
11311TIP3   OH255347   2.569   2.386  12.084  0.3133 -0.0294  0.6545
11311TIP3    H155348   2.535   2.365  12.172  1.7613 -1.1474  0.9780
11311TIP3    H255349   2.503   2.351  12.024 -2.1373  3.1510  1.1934
11312TIP3   OH255350   2.570   5.703  14.983  0.4790  0.3624 -0.1993
11312TIP3    H155351   2.515   5.665  14.915  1.3595  1.3559 -1.4987
11312TIP3    H255352   2.629   5.762  14.937  0.8121  1.4126  1.4751
11313TIP3   OH255353   0.011   4.389   2.174 -0.2282 -0.2800  0.2476
11313TIP3    H155354  -0.044   4.443   2.231 -1.7208 -0.7874 -0.6590
11313TIP3    H255355  -0.020   4.300   2.188 -0.2423 -0.4706 -0.9572
11314TIP3   OH255356   2.945   0.831   5.234 -0.0193 -0.6787 -0.1125
11314TIP3    H155357   2.914   0.919   5.214  0.7629 -0.3471  0.0920
11314TIP3    H255358   2.993   0.840   5.317 -0.9186 -1.5192  0.5335
11315TIP3   OH255359   0.476   6.363   2.083 -0.1959  0.3741 -0.0205
11315TIP3    H155360   0.457   6.334   2.172 -0.6543  0.2345 -0.1641
11315TIP3    H255361   0.412   6.432   2.066 -0.6176 -0.1389 -0.5250
11316TIP3   OH255362   0.745   3.444  14.198 -0.4610  0.5401  0.2131
11316TIP3    H155363   0.662   3.400  14.181  1.3228 -2.6444 -1.2759
11316TIP3    H255364   0.800   3.422  14.123  1.9380  1.9871  1.4011
11317TIP3   OH255365   1.708   4.171   5.291 -0.3341 -0.1194  0.0689
11317TIP3    H155366   1.671   4.129   5.369 -0.5079  1.2161  0.7193
11317TIP3    H255367   1.792   4.207   5.321 -1.1641  1.8602  0.0928
11318TIP3   OH255368   2.872   1.833   0.402 -0.4562 -0.1064  0.3427
11318TIP3    H155369   2.835   1.896   0.464 -0.9646 -1.2384  1.2259
11318TIP3    H255370   2.912   1.766   0.458  0.9880 -0.0422 -0.5847
11319TIP3   OH255371   4.447   6.587  14.503 -0.7149  0.6348  0.2870
11319TIP3    H155372   4.503   6.598  14.580 -0.3018 -1.0584  0.2596
11319TIP3    H255373   4.494   6.526  14.447 -2.0588  0.0545 -0.2636
11320TIP3   OH255374   1.284   0.351  13.480 -1.0560 -0.2537 -0.6648
11320TIP3    H155375   1.261   0.442  13.498 -1.1771 -0.4577  0.2989
11320TIP3    H255376   1.212   0.318  13.426 -1.5041 -0.0409 -0.2082
11321TIP3   OH255377   3.716   6.718   3.845 -0.1382  0.4433 -0.0687
11321TIP3    H155378   3.701   6.645   3.904 -0.1127 -0.1493 -0.7770
11321TIP3    H255379   3.628   6.745   3.817 -0.1053 -0.1558 -0.7904
11322TIP3   OH255380   0.581   2.755  14.890  0.0040 -0.1491 -0.3362
11322TIP3    H155381   0.603   2.662  14.894 -0.5594 -0.2697  0.0425
11322TIP3    H255382   0.577   2.782  14.982  0.0521  0.2214 -0.4423
11323TIP3   OH255383   3.916   4.732  15.155 -0.0813 -0.2222  0.4142
11323TIP3    H155384   3.881   4.763  15.072 -1.7142 -0.1180  1.1095
11323TIP3    H255385   3.881   4.643  15.164  0.9291 -0.6243  0.5175
11324TIP3   OH255386   1.121   1.227   0.968 -0.4770  1.0431 -0.1310
11324TIP3    H155387   1.046   1.286   0.960 -0.7908  0.7584  0.5894
11324TIP3    H255388   1.092   1.160   1.030  0.0062  0.3446 -0.6517
11325TIP3   OH255389   0.284   5.396   3.635  0.6106  0.1952  0.4094
11325TIP3    H155390   0.357   5.458   3.638  0.0826  0.8434  3.5260
11325TIP3    H255391   0.293   5.345   3.715 -1.1337 -1.2378 -0.2401
11326TIP3   OH255392   3.144   3.882   3.639 -0.6032  0.2462  0.1476
11326TIP3    H155393   3.222   3.917   3.683  1.5380 -3.6109 -0.1240
11326TIP3    H255394   3.107   3.821   3.702 -3.1482  1.5226 -0.0012
11327TIP3   OH255395   5.154   2.433  13.774 -0.5977  0.6121  0.1465
11327TIP3    H155396   5.172   2.440  13.867 -0.4582 -0.3158  0.1914
11327TIP3    H255397   5.241   2.428  13.733 -0.6132  2.0390 -0.1408
11328TIP3   OH255398   2.943   5.756   4.537 -0.0667 -0.4734  0.5133
11328TIP3    H155399   2.955   5.807   4.616 -0.8266 -0.8851  0.9017
11328TIP3    H255400   3.024   5.769   4.487  0.4367 -0.2602  1.3776
11329TIP3   OH255401   2.756   3.151   2.993 -0.4760 -0.2669  0.0175
11329TIP3    H155402   2.690   3.116   3.053 -0.6596  1.6345  1.0367
11329TIP3    H255403   2.835   3.159   3.047  0.2079 -1.2293 -0.8131
11330TIP3   OH255404   5.834   0.108  16.354  0.0041 -0.4101 -0.1503
11330TIP3    H155405   5.802   0.042  16.293  0.9423 -0.4255 -0.6478
11330TIP3    H255406   5.759   0.128  16.409 -0.9417 -0.2079 -1.4683
11331TIP3   OH255407   2.108   3.549   2.072 -0.0463  0.3963  0.4472
11331TIP3    H155408   2.116   3.479   2.137 -2.1502 -0.8821 -0.5486
11331TIP3    H255409   2.126   3.506   1.988  2.1893  1.9111  0.0597
11332TIP3   OH255410   0.133   1.282  10.861  0.3570 -0.5038 -0.1886
11332TIP3    H155411   0.187   1.349  10.818 -0.0191  0.4862  0.8312
11332TIP3    H255412   0.183   1.256  10.938 -0.5643  0.3566  0.7119
11333TIP3   OH255413   4.125   1.041  17.159  0.2505 -0.1268  0.2127
11333TIP3    H155414   4.211   1.018  17.193 -0.3391 -1.4293  0.8900
11333TIP3    H255415   4.073   0.962  17.169 -0.7693  0.3267 -1.0862
11334TIP3   OH255416   2.862   2.556   2.264 -0.1971 -1.0332 -0.2299
11334TIP3    H155417   2.942   2.561   2.316 -0.5842  1.9326  0.2974
11334TIP3    H255418   2.801   2.506   2.317  0.3017 -0.4421  0.9375
11335TIP3   OH255419   2.200   0.880   5.782 -0.1587  0.2345 -0.0842
11335TIP3    H155420   2.172   0.933   5.857 -1.3425 -0.3559 -0.0953
11335TIP3    H255421   2.223   0.945   5.715 -1.3232  0.7631 -0.0034
11336TIP3   OH255422   2.794   6.414  13.578  0.1924  0.0204 -0.1466
11336TIP3    H155423   2.793   6.338  13.520 -1.1357  0.6239 -0.9538
11336TIP3    H255424   2.884   6.446  13.576  0.0198  0.5113 -2.5492
11337TIP3   OH255425   5.817   1.944  16.660 -0.4940 -0.3731 -0.2943
11337TIP3    H155426   5.796   1.944  16.566 -1.2537 -0.5602 -0.1263
11337TIP3    H255427   5.779   1.862  16.692  0.3346 -0.6305  0.0557
11338TIP3   OH255428   0.355   2.489  11.372 -0.3735 -0.5752  0.1628
11338TIP3    H155429   0.283   2.538  11.412  0.2386 -0.3295  0.9946
11338TIP3    H255430   0.419   2.556  11.349  0.3773 -0.9393  1.1110
11339TIP3   OH255431   0.995   4.276  11.958 -0.0537  0.3532 -0.3061
11339TIP3    H155432   0.924   4.259  11.895  1.9649  0.0254 -2.6333
11339TIP3    H255433   1.004   4.194  12.007 -1.2480  0.4060  0.0365
11340TIP3   OH255434   0.511   0.416  12.882 -0.0069  0.4205  0.3629
11340TIP3    H155435   0.549   0.341  12.836 -2.6141  0.1967 -1.6353
11340TIP3    H255436   0.421   0.390  12.900 -0.8480  2.8855  0.0948
11341TIP3   OH255437   0.051   2.888  15.373  0.1116  0.3719  0.0047
11341TIP3    H155438   0.008   2.829  15.311  2.8506 -0.6257 -1.0976
11341TIP3    H255439   0.044   2.974  15.332 -0.8232  0.2397 -0.1347
11342TIP3   OH255440   2.562   6.329  15.746  0.1210 -0.0517 -0.3162
11342TIP3    H155441   2.518   6.406  15.710 -1.6207 -1.5077 -1.4240
11342TIP3    H255442   2.636   6.314  15.687 -0.6512 -0.3409 -1.2241
11343TIP3   OH255443   0.926   1.199  15.193 -0.1305 -0.6033  0.1492
11343TIP3    H155444   0.946   1.105  15.196 -0.2042 -0.5881  1.2679
11343TIP3    H255445   0.839   1.204  15.153 -0.3036 -1.0316  0.4693
11344TIP3   OH255446   0.537   1.662   3.863 -0.1549  0.1799  0.1371
11344TIP3    H155447   0.463   1.723   3.860 -0.3186 -0.0593 -1.4299
11344TIP3    H255448   0.613   1.716   3.842 -0.3955 -0.2334 -2.0301
11345TIP3   OH255449   2.872   1.310   5.880  0.4861  0.5106  0.4955
11345TIP3    H155450   2.778   1.325   5.891  0.1372 -1.8945  1.4540
11345TIP3    H255451   2.912   1.355   5.955  0.2118  1.9856 -0.1945
11346TIP3   OH255452   3.319   0.984  13.485 -0.5380 -0.6231 -0.2628
11346TIP3    H155453   3.236   0.967  13.531 -0.3092 -0.0692  0.3810
11346TIP3    H255454   3.379   1.009  13.555 -0.5114  1.5001 -0.9847
11347TIP3   OH255455   0.088   3.670   5.576  0.1943  0.0452  0.2168
11347TIP3    H155456   0.055   3.605   5.515 -0.7837 -0.0332  0.8137
11347TIP3    H255457   0.139   3.621   5.639  2.8524  0.3253 -1.5551
11348TIP3   OH255458   3.954   4.323   5.534 -0.2116  0.1737  0.2623
11348TIP3    H155459   3.965   4.393   5.598 -0.7590  0.3885  0.1246
11348TIP3    H255460   3.877   4.275   5.564 -1.3568  1.1396 -0.9984
11349TIP3   OH255461   4.562   6.496  13.956  1.4081  0.0714 -0.1164
11349TIP3    H155462   4.565   6.587  13.985  2.5164 -0.2671  0.8668
11349TIP3    H255463   4.653   6.473  13.937  1.0673 -0.6460 -0.9774
11350TIP3   OH255464   3.038   6.581  13.488 -0.5544  0.0611 -0.3255
11350TIP3    H155465   3.080   6.499  13.460  0.2373  0.1973  0.4195
11350TIP3    H255466   3.059   6.644  13.419 -0.6583 -0.2080 -0.6068
11351TIP3   OH255467   1.678   5.278  13.113  0.3742  0.2738  0.3551
11351TIP3    H155468   1.696   5.212  13.181 -1.7195  0.0563  0.7585
11351TIP3    H255469   1.684   5.362  13.159  0.7225  0.2294  0.3908
11352TIP3   OH255470   3.079   6.359  14.534  0.2580 -0.6054  0.5958
11352TIP3    H155471   3.020   6.424  14.573 -0.4734  0.5716 -2.1672
11352TIP3    H255472   3.122   6.407  14.462  2.3767 -2.2694  0.6642
11353TIP3   OH255473   0.942   2.356  16.522 -0.5840  0.3296  0.1286
11353TIP3    H155474   0.853   2.383  16.500 -1.0007 -0.5110  0.7462
11353TIP3    H255475   0.983   2.436  16.555 -1.9060  0.2115  2.2738
11354TIP3   OH255476   5.274   2.119   3.707 -0.6162 -0.0137 -0.0611
11354TIP3    H155477   5.212   2.128   3.634  0.6986 -1.8112 -1.5210
11354TIP3    H255478   5.251   2.035   3.748 -1.5560  1.1318  1.8850
11355TIP3   OH255479   6.337   4.014   1.408 -0.1156  0.4529  0.1029
11355TIP3    H155480   6.306   3.952   1.341  0.5868  0.6663 -0.4397
11355TIP3    H255481   6.287   3.992   1.486 -1.4594  0.6521 -0.6784
11356TIP3   OH255482   4.506   0.111   5.774 -0.4158 -0.4405  0.2237
11356TIP3    H155483   4.471   0.067   5.696  0.8328 -2.3404  0.6592
11356TIP3    H255484   4.429   0.150   5.816 -1.2000  0.0961 -1.6099
11357TIP3   OH255485   1.394   0.284   5.447 -0.0426 -0.3508 -0.4315
11357TIP3    H155486   1.318   0.340   5.435 -0.3415 -0.7239 -0.3242
11357TIP3    H255487   1.359   0.195   5.440  0.3171 -0.5302 -0.0176
11358TIP3   OH255488   3.859   6.730   1.720 -0.0160 -0.2147  0.6414
11358TIP3    H155489   3.918   6.683   1.778  0.5358  1.0328  1.1367
11358TIP3    H255490   3.825   6.664   1.660  2.4911 -0.8434 -0.1809
11359TIP3   OH255491   0.310   2.015   3.913 -0.4767  0.0306  0.3455
11359TIP3    H155492   0.330   1.991   4.004 -0.4310  2.3091  0.9789
11359TIP3    H255493   0.370   2.086   3.892 -0.7535 -0.1964 -1.3623
11360TIP3   OH255494   6.060   0.222   4.489  0.1249  0.5516  0.3935
11360TIP3    H155495   6.012   0.228   4.407  1.8069 -1.0984 -0.7871
11360TIP3    H255496   6.018   0.151   4.537 -1.1014  1.7679  1.1813
11361TIP3   OH255497   4.077   5.453  11.336 -0.3704 -0.4154  0.2110
11361TIP3    H155498   4.125   5.437  11.255 -0.6457 -0.0295 -0.0321
11361TIP3    H255499   4.143   5.449  11.404 -0.1942 -1.1150  0.0087
11362TIP3   OH255500   4.769   1.836  15.968 -0.3905 -0.7642  0.1374
11362TIP3    H155501   4.774   1.922  15.927  2.5644 -0.4695  0.8687
11362TIP3    H255502   4.691   1.839  16.022 -0.9571  1.0379 -0.7089
11363TIP3   OH255503   1.087   2.252  14.392 -0.5997  0.2525  0.2845
11363TIP3    H155504   1.161   2.248  14.452 -1.0358 -0.9109  0.7684
11363TIP3    H255505   1.127   2.270  14.307  0.4267 -1.8960  0.2472
11364TIP3   OH255506   4.946   4.984   5.267  0.0194  0.1128 -0.0748
11364TIP3    H155507   4.868   4.971   5.321 -0.7202 -0.4188 -1.2239
11364TIP3    H255508   5.019   4.956   5.322 -0.6757 -0.1376  0.7427
11365TIP3   OH255509   6.519   2.293  11.517  0.1306 -0.3931 -0.4168
11365TIP3    H155510   6.508   2.387  11.510  0.5253 -0.2593  0.5315
11365TIP3    H255511   6.573   2.269  11.442  1.8757  0.4883  0.5001
11366TIP3   OH255512   6.490   5.120   1.903  0.0534 -0.1460  0.3839
11366TIP3    H155513   6.494   5.144   1.810  0.4305 -1.0444  0.1643
11366TIP3    H255514   6.575   5.148   1.938  0.1393 -0.3340  0.3269
11367TIP3   OH255515   4.205   4.571   5.350  0.5458  0.0016  0.0253
11367TIP3    H155516   4.133   4.615   5.396 -0.7540 -0.3707 -1.5482
11367TIP3    H255517   4.235   4.635   5.286  0.3207 -0.4947 -0.5909
11368TIP3   OH255518   0.040   3.923  10.960 -0.0674  0.3956 -0.7401
11368TIP3    H155519  -0.002   3.988  10.905  0.8822  0.6102 -1.2140
11368TIP3    H255520   0.131   3.951  10.967 -0.3569  0.9537  1.7787
11369TIP3   OH255521   2.335   5.836   2.701 -0.5432 -0.0196  0.3232
11369TIP3    H155522   2.300   5.832   2.790 -0.8335  0.5309  0.2415
11369TIP3    H255523   2.342   5.930   2.682  1.2281 -0.1067  0.4224
11370TIP3   OH255524   2.663   1.297  17.329  0.2571  0.1412 -0.0271
11370TIP3    H155525   2.689   1.278  17.239  1.4944  0.0435  0.3290
11370TIP3    H255526   2.672   1.213  17.374  1.3268  0.5492  0.5569
11371TIP3   OH255527   0.827   4.608  16.518  0.4397 -0.1940 -0.9707
11371TIP3    H155528   0.884   4.624  16.593  0.0782 -1.0517 -0.4893
11371TIP3    H255529   0.851   4.520  16.488  0.5728  0.1325 -1.8677
11372TIP3   OH255530   3.023   6.654  16.507  0.3554  0.4888 -0.7330
11372TIP3    H155531   2.982   6.707  16.438  2.8298 -0.4897 -3.1802
11372TIP3    H255532   3.079   6.715  16.554 -2.2156  1.4136  1.3470
11373TIP3   OH255533   1.057   6.317  16.471 -0.4983  0.8504 -0.2457
11373TIP3    H155534   1.087   6.234  16.508  0.1334  0.6528 -1.1642
11373TIP3    H255535   0.971   6.298  16.434  0.1671  0.2817 -1.5382
11374TIP3   OH255536   6.119   4.442  11.514 -0.3817 -0.7641 -0.1493
11374TIP3    H155537   6.109   4.520  11.460 -1.0980  0.5999  1.8173
11374TIP3    H255538   6.191   4.464  11.573 -0.0994 -1.9006 -0.0628
11375TIP3   OH255539   2.357   2.451  16.448 -0.1543 -0.3009  0.0726
11375TIP3    H155540   2.364   2.545  16.431  2.1228 -0.1827  1.3891
11375TIP3    H255541   2.361   2.411  16.361  1.3120  0.7174 -0.3586
11376TIP3   OH255542   0.367   6.300   3.856 -0.2770  0.0349 -0.3254
11376TIP3    H155543   0.338   6.260   3.938  0.4325 -0.1078 -0.1364
11376TIP3    H255544   0.378   6.393   3.877 -0.9622  0.1627 -0.5026
11377TIP3   OH255545   5.413   1.157  14.559 -0.3132  0.6354  0.2688
11377TIP3    H155546   5.415   1.242  14.604 -0.3013  1.5429 -1.3717
11377TIP3    H255547   5.492   1.156  14.505 -1.6921  0.8499 -1.8747
11378TIP3   OH255548   4.796   2.416   6.780  0.6245 -0.0994  0.9647
11378TIP3    H155549   4.790   2.320   6.785  0.3816 -0.0828  0.9852
11378TIP3    H255550   4.749   2.439   6.700  2.5584 -0.1765 -0.2559
11379TIP3   OH255551   4.060   3.969   5.228 -0.1832 -0.0016 -0.5435
11379TIP3    H155552   3.989   4.003   5.173  0.7212  0.6667 -1.3339
11379TIP3    H255553   4.030   3.883   5.256 -0.6659 -0.3853 -2.1475
11380TIP3   OH255554   0.409   3.658   4.550 -0.6147  0.1773  0.1942
11380TIP3    H155555   0.452   3.576   4.523 -1.7917 -0.7855  1.1267
11380TIP3    H255556   0.472   3.726   4.529  0.5691 -1.0126 -0.2463
11381TIP3   OH255557   5.138   1.518   5.963  0.4303  0.5515  0.2952
11381TIP3    H155558   5.099   1.440   5.923 -1.3245  1.2081  0.6429
11381TIP3    H255559   5.202   1.483   6.025  0.9065 -0.5567 -0.7790
11382TIP3   OH255560   5.473   0.585   6.305 -0.4553  0.1984 -0.1486
11382TIP3    H155561   5.496   0.677   6.293  0.7293 -0.0577  0.0341
11382TIP3    H255562   5.557   0.540   6.315 -0.9989 -0.9426 -0.4835
11383TIP3   OH255563   0.839   4.302  13.169 -0.3894  0.0027 -0.2537
11383TIP3    H155564   0.832   4.208  13.181  1.0773 -0.2685 -1.3020
11383TIP3    H255565   0.910   4.314  13.106 -0.2370  1.8302  0.1887
11384TIP3   OH255566   5.082   6.723   2.064 -0.1286 -0.3632  0.0576
11384TIP3    H155567   5.168   6.713   2.106 -0.3795  1.9855  1.2993
11384TIP3    H255568   5.029   6.768   2.130 -1.8565 -0.3912 -1.2608
11385TIP3   OH255569   4.675   2.161  15.566  0.5540 -0.1423  0.3342
11385TIP3    H155570   4.631   2.180  15.649  1.7273  0.7789  0.7786
11385TIP3    H255571   4.731   2.086  15.585  1.2087  0.3819  0.5501
11386TIP3   OH255572   2.627   6.709   4.704 -0.3642  0.5646  0.0134
11386TIP3    H155573   2.674   6.731   4.623 -2.5292  1.0833 -1.1706
11386TIP3    H255574   2.659   6.773   4.768  0.5827  0.8492 -0.7150
11387TIP3   OH255575   3.713   2.368   0.499 -0.0411  0.3694 -0.4086
11387TIP3    H155576   3.655   2.299   0.468  0.9745 -0.1306 -1.2757
11387TIP3    H255577   3.667   2.450   0.479 -1.2887 -0.0383  0.7048
11388TIP3   OH255578   6.721   5.391  16.863 -0.1906  0.1123 -0.3646
11388TIP3    H155579   6.769   5.389  16.946 -2.3336 -0.8059  0.9488
11388TIP3    H255580   6.758   5.465  16.815  1.3038  0.4928  1.2782
11389TIP3   OH255581   4.132   2.745  16.908 -0.1262 -1.1028  0.0156
11389TIP3    H155582   4.102   2.676  16.849 -0.2771 -0.3661 -0.7893
11389TIP3    H255583   4.061   2.756  16.971 -0.5041 -1.0535 -0.4142
11390TIP3   OH255584   4.423   1.838   2.988 -0.7255 -0.4982  0.1000
11390TIP3    H155585   4.418   1.783   3.066 -0.9050  0.0569  0.4877
11390TIP3    H255586   4.517   1.849   2.973 -0.6494  1.1251  1.5036
11391TIP3   OH255587   1.738   5.989  15.483  0.7974  0.1154 -0.6613
11391TIP3    H155588   1.737   6.038  15.566 -2.9948 -0.6827 -0.0434
11391TIP3    H255589   1.748   5.898  15.510 -0.6473 -0.1662 -1.0230
11392TIP3   OH255590   6.438   5.460   1.920 -0.2221 -0.1631  0.5534
11392TIP3    H155591   6.478   5.373   1.930  0.0791 -0.3083 -1.5160
11392TIP3    H255592   6.510   5.517   1.895 -0.5453  0.5654  1.2484
11393TIP3   OH255593   1.381   3.828   5.665 -0.3816  0.7421 -0.1218
11393TIP3    H155594   1.448   3.762   5.683 -0.3924  0.5698 -0.6868
11393TIP3    H255595   1.346   3.851   5.751 -0.1752  0.2238  0.1047
11394TIP3   OH255596   6.040   3.206  13.076 -0.1657  0.1525 -0.0722
11394TIP3    H155597   6.052   3.189  13.169 -1.2843  0.9703  0.2579
11394TIP3    H255598   5.969   3.148  13.050 -0.8141  0.9053 -0.0500
11395TIP3   OH255599   6.333   1.775   4.662 -0.0749 -0.6732  0.1933
11395TIP3    H155600   6.330   1.841   4.731 -1.0434 -1.3345  0.8191
11395TIP3    H255601   6.388   1.705   4.698 -2.6633 -2.2107  1.4812
11396TIP3   OH255602   4.046   5.089  14.134  0.0904  0.5695  0.2364
11396TIP3    H155603   4.078   5.174  14.103  0.8293  0.6010  1.0549
11396TIP3    H255604   4.056   5.092  14.229 -2.2773  0.5281  0.5512
11397TIP3   OH255605   6.613   0.876  15.085 -0.8508  0.4114 -0.0633
11397TIP3    H155606   6.599   0.786  15.114 -0.8746  0.3096 -0.3821
11397TIP3    H255607   6.534   0.923  15.111 -0.8696  0.3239  0.0380
11398TIP3   OH255608   0.445   2.138   1.681  0.1179  0.3383  0.4851
11398TIP3    H155609   0.411   2.103   1.763  0.3050 -0.8333  0.0840
11398TIP3    H255610   0.416   2.229   1.680  1.3413  0.8302  2.5292
11399TIP3   OH255611   1.615   2.120   2.491  0.4548 -0.0176 -0.5376
11399TIP3    H155612   1.634   2.048   2.431  0.4521 -1.6250  1.2765
11399TIP3    H255613   1.521   2.115   2.506  0.6126 -0.3768  0.4379
11400TIP3   OH255614   4.755   3.346   0.236 -0.0083  0.8958  0.2035
11400TIP3    H155615   4.747   3.387   0.150  0.3937  0.4202 -0.0585
11400TIP3    H255616   4.829   3.392   0.277  1.0283 -0.1539 -0.4335
11401TIP3   OH255617   0.472   4.105   0.869 -0.0049 -0.4075  0.0735
11401TIP3    H155618   0.480   4.173   0.936 -3.0496 -0.9545  1.1291
11401TIP3    H255619   0.409   4.140   0.806 -1.0187 -1.8748  0.2245
11402TIP3   OH255620   6.061   4.847   3.892 -0.1485 -0.4886  0.0041
11402TIP3    H155621   6.013   4.821   3.814  0.8764 -0.9948 -0.4734
11402TIP3    H255622   6.036   4.782   3.958  1.5921 -2.1491 -0.8915
11403TIP3   OH255623   5.128   0.324  11.665 -0.0510  0.3154 -0.3910
11403TIP3    H155624   5.118   0.419  11.657 -0.4993  0.2391 -0.7530
11403TIP3    H255625   5.223   0.310  11.665  0.0728  0.8959  1.3134
11404TIP3   OH255626   5.716   2.000  12.664  0.1903  0.1963 -0.1312
11404TIP3    H155627   5.704   1.955  12.580  1.4809 -0.9253  0.2480
11404TIP3    H255628   5.779   2.070  12.645  0.3923  0.0172 -0.1230
11405TIP3   OH255629   4.479   4.476   5.162 -0.3295  0.0556 -0.0567
11405TIP3    H155630   4.529   4.519   5.232  1.8941  0.0938 -1.5613
11405TIP3    H255631   4.436   4.548   5.116 -0.2743  0.2193  0.1453
11406TIP3   OH255632   3.198   3.008  16.681  0.3324 -0.0621 -0.1938
11406TIP3    H155633   3.172   3.004  16.773 -1.2218  0.0912 -0.6024
11406TIP3    H255634   3.139   3.072  16.642 -1.0061 -2.1395 -1.8674
11407TIP3   OH255635   0.680   2.396  16.183 -0.0741  0.3618 -0.2575
11407TIP3    H155636   0.606   2.394  16.123  0.0084 -1.5810 -0.3587
11407TIP3    H255637   0.677   2.311  16.227  0.8374  1.0930  1.2982
11408TIP3   OH255638   4.962   0.520  13.623  0.1317  0.0225  0.3197
11408TIP3    H155639   5.008   0.450  13.670 -0.4640  1.1710  2.7716
11408TIP3    H255640   5.030   0.559  13.568  1.2613 -0.5225  1.2631
11409TIP3   OH255641   2.361   3.146  14.440  0.5667 -0.1429 -0.2018
11409TIP3    H155642   2.405   3.061  14.439 -1.1656 -1.0731 -0.9244
11409TIP3    H255643   2.383   3.186  14.356  1.6167  0.2952  0.2538
11410TIP3   OH255644   3.774   4.073  16.239  0.0646  0.1680  0.3312
11410TIP3    H155645   3.781   4.070  16.334  0.2921  0.7382  0.3325
11410TIP3    H255646   3.698   4.017  16.219 -1.4487  1.8782  1.0109
11411TIP3   OH255647   6.601   0.481   2.622 -0.1558  0.0258 -0.3216
11411TIP3    H155648   6.627   0.463   2.532  0.5714  0.3052 -0.1728
11411TIP3    H255649   6.597   0.395   2.664  3.7388  0.0634  0.5040
11412TIP3   OH255650   2.062   4.075  17.027  0.1773 -0.6078 -0.2006
11412TIP3    H155651   1.973   4.048  17.007 -0.1720 -0.2278  0.8241
11412TIP3    H255652   2.057   4.118  17.112  1.4294 -1.0481  0.1216
11413TIP3   OH255653   4.395   1.148   4.501 -0.2083 -0.0330  0.1094
11413TIP3    H155654   4.354   1.221   4.455  0.3785  0.4928  0.3959
11413TIP3    H255655   4.381   1.169   4.594  1.4195  0.5947  0.2343
11414TIP3   OH255656   3.212   3.472  14.165  0.2128 -0.4238 -0.2471
11414TIP3    H155657   3.242   3.508  14.082  1.9488 -0.3098  0.3936
11414TIP3    H255658   3.260   3.389  14.175  0.2788 -0.2843  0.7827
11415TIP3   OH255659   6.155   0.274  13.234  0.6567 -0.5743 -0.1721
11415TIP3    H155660   6.124   0.329  13.306  1.5715  0.1266 -0.3029
11415TIP3    H255661   6.115   0.189  13.251  0.6451 -0.3494  1.0105
11416TIP3   OH255662   1.436   0.436  11.086 -0.1072  0.3424 -0.6165
11416TIP3    H155663   1.372   0.457  11.154 -0.9091 -0.7540 -1.0131
11416TIP3    H255664   1.520   0.443  11.130 -0.6612 -1.7267  0.9073
11417TIP3   OH255665   4.153   1.668   0.530 -0.4593  0.1131  0.1993
11417TIP3    H155666   4.066   1.630   0.525  0.4799 -2.4627  1.7225
11417TIP3    H255667   4.197   1.640   0.450  0.3919 -2.6663  1.5402
11418TIP3   OH255668   5.296   4.981   2.677 -0.0782  0.0744  0.0104
11418TIP3    H155669   5.388   4.954   2.678  0.7268  2.5729  0.5991
11418TIP3    H255670   5.291   5.052   2.742 -3.4227 -2.8202  3.3526
11419TIP3   OH255671   1.618   2.190   1.643 -0.1293  0.7261 -0.3288
11419TIP3    H155672   1.601   2.154   1.730 -0.1006  3.8793  1.1427
11419TIP3    H255673   1.532   2.198   1.602 -0.2853  0.4611 -0.0511
11420TIP3   OH255674   4.207   6.373  12.249  0.5807 -0.5514  0.6974
11420TIP3    H155675   4.114   6.353  12.239  0.0323  2.4554 -1.4075
11420TIP3    H255676   4.212   6.425  12.329 -0.1308  1.7503 -0.6580
11421TIP3   OH255677   4.095   2.204   5.870 -0.4669 -0.1417 -0.2721
11421TIP3    H155678   4.063   2.254   5.944 -2.0729 -2.1710  0.4946
11421TIP3    H255679   4.183   2.176   5.895 -1.4955 -1.9986  1.6005
11422TIP3   OH255680   1.534   1.619  13.330 -0.0291 -0.3733 -0.2379
11422TIP3    H155681   1.494   1.705  13.339  1.5245  0.2881  0.8244
11422TIP3    H255682   1.537   1.603  13.236 -1.7568  0.0021 -0.3892
11423TIP3   OH255683   5.369   4.270   2.799  0.5930  0.4992  0.3114
11423TIP3    H155684   5.353   4.178   2.821  0.4991  0.9009  2.1259
11423TIP3    H255685   5.283   4.302   2.771  0.3746  0.2833  0.7098
11424TIP3   OH255686   3.652   3.111   0.787 -0.1121  0.5454  0.5278
11424TIP3    H155687   3.665   3.085   0.879 -0.1044 -1.5875 -0.0321
11424TIP3    H255688   3.614   3.199   0.793 -0.8536  0.1565  2.5968
11425TIP3   OH255689   0.556   6.620  14.997  0.3346 -0.3321  0.4012
11425TIP3    H155690   0.556   6.592  15.088 -0.9607 -0.3969  0.4092
11425TIP3    H255691   0.465   6.606  14.968  0.5747  0.2777 -0.7060
11426TIP3   OH255692   5.436   0.153   2.529  0.2559  0.0393  0.3703
11426TIP3    H155693   5.351   0.176   2.491  0.4446  0.8824  0.4440
11426TIP3    H255694   5.436   0.057   2.530 -0.8572  0.0223  0.7439
11427TIP3   OH255695   0.410   1.960  15.634 -0.2264 -0.5490  0.1858
11427TIP3    H155696   0.439   1.901  15.565  0.1139  0.8679 -0.9226
11427TIP3    H255697   0.383   2.039  15.589 -0.0265  0.4147  1.6805
11428TIP3   OH255698   6.248   3.519   6.015  0.1854 -0.1110 -0.1564
11428TIP3    H155699   6.171   3.478   6.055  0.3457  0.0870  0.3643
11428TIP3    H255700   6.214   3.597   5.972 -0.0479 -0.5332 -0.7376
11429TIP3   OH255701   3.808   4.922   5.898  0.3959  0.0352  0.3833
11429TIP3    H155702   3.822   4.886   5.986 -0.7566  0.3733  0.7283
11429TIP3    H255703   3.888   4.972   5.880  0.0705  1.1978  1.8866
11430TIP3   OH255704   5.485   2.021  13.217 -0.3380 -0.1029 -0.2094
11430TIP3    H155705   5.421   2.032  13.147  0.4876  1.2875 -0.7768
11430TIP3    H255706   5.463   2.088  13.282  0.8480  0.7959 -0.6825
11431TIP3   OH255707   4.018   5.544   5.412  0.1625 -0.2785  0.0038
11431TIP3    H155708   4.072   5.467   5.427 -0.5302 -0.6983  0.4296
11431TIP3    H255709   4.064   5.615   5.456 -0.4409 -0.9531  1.8319
11432TIP3   OH255710   3.215   3.267   1.736  0.5569  0.0060 -0.9523
11432TIP3    H155711   3.217   3.178   1.772 -0.4000  0.7244  0.9932
11432TIP3    H255712   3.145   3.265   1.671  0.1838 -0.5279 -0.5466
11433TIP3   OH255713   4.400   0.689  11.199 -0.3207 -0.0341 -0.3120
11433TIP3    H155714   4.458   0.613  11.203  0.7314  0.7519 -0.2132
11433TIP3    H255715   4.347   0.683  11.278 -1.9635 -1.9540 -1.4477
11434TIP3   OH255716   3.729   1.566   5.327  0.4069 -0.3876 -0.7102
11434TIP3    H155717   3.813   1.609   5.345 -0.3134  2.1976 -2.7890
11434TIP3    H255718   3.743   1.521   5.244 -0.4558  0.9197 -1.6080
11435TIP3   OH255719   0.428   0.748   1.671  0.0613 -0.0700 -0.0185
11435TIP3    H155720   0.373   0.792   1.606 -1.7077  0.6583  1.8468
11435TIP3    H255721   0.386   0.663   1.685  1.1163 -0.7248 -0.6265
11436TIP3   OH255722   2.407   6.154  15.895  0.4212  0.2209 -0.3214
11436TIP3    H155723   2.353   6.143  15.816 -0.5232  3.1677 -0.2294
11436TIP3    H255724   2.477   6.214  15.868  0.1515  1.1833  1.0008
11437TIP3   OH255725   3.261   5.839   2.132  0.5577 -0.0952 -0.1510
11437TIP3    H155726   3.307   5.795   2.061  1.2564 -1.0200  0.8510
11437TIP3    H255727   3.254   5.930   2.103  0.3601 -0.5563 -1.6190
11438TIP3   OH255728   1.852   3.248  12.189  0.1125  0.5258 -0.2473
11438TIP3    H155729   1.854   3.162  12.232  0.0683  0.6515  0.0021
11438TIP3    H255730   1.942   3.263  12.160  0.0107  0.1367 -0.7991
11439TIP3   OH255731   6.671   6.491   5.110  0.3263  0.9470 -0.0479
11439TIP3    H155732   6.652   6.409   5.063  1.2391  1.1584 -0.8270
11439TIP3    H255733   6.611   6.555   5.071 -1.5363  0.3391  1.6756
11440TIP3   OH255734   4.953   1.884  12.384 -0.1044 -0.2165  0.0075
11440TIP3    H155735   4.973   1.967  12.426 -2.2584 -0.0875  0.8570
11440TIP3    H255736   4.859   1.873  12.394  0.1235 -2.8214  0.0214
11441TIP3   OH255737   6.666   5.957  11.620 -0.0413  0.0669  0.4856
11441TIP3    H155738   6.607   5.994  11.687 -0.6767 -1.2829  0.7149
11441TIP3    H255739   6.701   6.033  11.574  0.7149  1.0683  2.5977
11442TIP3   OH255740   1.728   4.133  13.051 -0.1848  0.2914 -0.1292
11442TIP3    H155741   1.660   4.067  13.041  0.0237 -0.3675  2.2000
11442TIP3    H255742   1.785   4.121  12.975 -1.5615 -0.4415 -1.0928
11443TIP3   OH255743   2.548   5.025  11.871 -0.4121  0.0050 -0.5061
11443TIP3    H155744   2.632   5.026  11.824  0.9035 -1.5299  1.6743
11443TIP3    H255745   2.552   5.101  11.929  0.3811 -1.1386  1.0018
11444TIP3   OH255746   6.008   3.585   1.485  0.2690  0.4208 -0.1206
11444TIP3    H155747   5.914   3.600   1.496  0.0452 -0.3505 -0.8600
11444TIP3    H255748   6.014   3.520   1.415  1.2745 -0.7909  1.0333
11445TIP3   OH255749   0.453   4.455  15.956  0.2628 -0.0340 -0.0249
11445TIP3    H155750   0.408   4.532  15.923  0.0681  0.1941  0.7397
11445TIP3    H255751   0.417   4.382  15.904 -2.5026 -0.1372  1.7903
11446TIP3   OH255752   1.791   1.361  13.229  0.9571  0.0247 -0.2712
11446TIP3    H155753   1.770   1.288  13.287 -0.4188 -0.0132 -0.7845
11446TIP3    H255754   1.847   1.322  13.162 -0.4154 -0.7753 -0.9961
11447TIP3   OH255755   6.341   6.339   6.730  0.5408 -0.4868  0.1423
11447TIP3    H155756   6.280   6.275   6.767 -0.3517 -0.8307 -1.7842
11447TIP3    H255757   6.381   6.294   6.656  1.2688  0.5840 -0.1395
11448TIP3   OH255758   4.747   0.269  14.260  0.0649 -0.0161 -0.4040
11448TIP3    H155759   4.715   0.241  14.346 -0.5081  0.7090 -0.3774
11448TIP3    H255760   4.814   0.204  14.237  0.2124 -0.2229  0.5803
11449TIP3   OH255761   4.701   0.053  13.034  0.1665 -0.4010  0.7541
11449TIP3    H155762   4.727   0.089  12.949 -1.8135 -2.1819 -0.7198
11449TIP3    H255763   4.675   0.130  13.085 -0.8262  0.5821 -1.1192
11450TIP3   OH255764   1.623   3.292   4.415 -0.6289 -0.3309  0.2165
11450TIP3    H155765   1.624   3.380   4.377 -0.5743 -1.2452 -2.0398
11450TIP3    H255766   1.537   3.285   4.457 -1.5446  0.0989 -1.4711
11451TIP3   OH255767   6.339   0.815   1.744  0.2050 -0.3181 -0.2438
11451TIP3    H155768   6.403   0.880   1.774  0.7536 -1.5170  1.3132
11451TIP3    H255769   6.338   0.826   1.649  0.8821  1.4032 -0.1066
11452TIP3   OH255770   5.724   3.533   3.711 -0.1146 -0.2389  0.4603
11452TIP3    H155771   5.814   3.504   3.721  0.1860  0.0478 -1.0565
11452TIP3    H255772   5.727   3.628   3.721 -0.1245 -0.1623 -0.1734
11453TIP3   OH255773   0.792   0.393   2.952 -0.1787 -0.1473 -0.7654
11453TIP3    H155774   0.825   0.479   2.979 -0.2552 -0.0450 -0.9978
11453TIP3    H255775   0.845   0.331   3.002  1.7199 -0.0472 -2.5410
11454TIP3   OH255776   2.166   6.306   3.656  0.2136  0.3656  0.0383
11454TIP3    H155777   2.092   6.288   3.599  0.0474 -0.0624  0.3903
11454TIP3    H255778   2.218   6.226   3.654  0.5101  0.5567  0.0315
11455TIP3   OH255779   2.398   4.944   0.151 -0.0463  0.1284  0.9994
11455TIP3    H155780   2.468   5.009   0.160  0.2264 -0.3399  2.4419
11455TIP3    H255781   2.331   4.989   0.098  1.3376  0.5573 -0.4417
11456TIP3   OH255782   6.681   2.646  15.977 -0.5473  0.3750  0.3759
11456TIP3    H155783   6.656   2.697  15.900 -2.2938 -1.0648 -0.0733
11456TIP3    H255784   6.601   2.643  16.030 -0.2407 -1.1880  0.7770
11457TIP3   OH255785   6.122   3.478  13.034  0.2521 -0.2116 -0.4550
11457TIP3    H155786   6.133   3.478  12.939 -0.8911 -2.7309 -0.6853
11457TIP3    H255787   6.100   3.387  13.055 -1.5889  0.6908  1.9687
11458TIP3   OH255788   4.778   3.567  14.053  0.2631  0.2261 -0.0733
11458TIP3    H155789   4.864   3.547  14.089  1.7191  0.4919 -3.0873
11458TIP3    H255790   4.775   3.519  13.970 -2.3585  0.5748 -0.2735
11459TIP3   OH255791   5.184   2.465  15.964  0.4756  0.0766 -0.0800
11459TIP3    H155792   5.132   2.544  15.978 -0.9081 -0.3891 -2.2062
11459TIP3    H255793   5.273   2.490  15.990 -0.2256  1.7751  0.9024
11460TIP3   OH255794   4.299   2.402  12.510  0.6776 -0.1848  0.2607
11460TIP3    H155795   4.350   2.466  12.460  2.0412 -2.2054 -1.0797
11460TIP3    H255796   4.365   2.349  12.556 -0.3908 -0.7219  1.2275
11461TIP3   OH255797   5.368   0.195  15.853 -0.1262  0.4191 -0.2511
11461TIP3    H155798   5.454   0.161  15.879  0.2410  0.6890 -1.0740
11461TIP3    H255799   5.323   0.212  15.936 -0.1162 -1.5127  0.2101
11462TIP3   OH255800   2.062   0.967   5.414  0.4169  0.3673 -0.2696
11462TIP3    H155801   2.145   0.993   5.373  0.9779  2.2072  1.8215
11462TIP3    H255802   2.034   1.045   5.462 -0.9422 -1.1458  1.5599
11463TIP3   OH255803   0.613   6.321   5.555 -0.3293 -0.0043 -0.0236
11463TIP3    H155804   0.518   6.307   5.548 -0.6752  0.3386  2.8097
11463TIP3    H255805   0.635   6.376   5.479 -2.8765  2.0543  0.5851
11464TIP3   OH255806   3.006   2.381  12.770 -0.0965  0.2170  0.4213
11464TIP3    H155807   3.023   2.466  12.811  1.1058  0.1798  0.0600
11464TIP3    H255808   2.965   2.329  12.839  1.1757  0.3992  1.3677
11465TIP3   OH255809   1.346   1.861   0.528  0.0262  0.0632 -0.5351
11465TIP3    H155810   1.403   1.784   0.530 -0.3982 -0.2516  0.8144
11465TIP3    H255811   1.400   1.931   0.492  1.2062 -0.2892  0.4882
11466TIP3   OH255812   0.370   1.204  14.907 -0.1507  0.0298 -0.2595
11466TIP3    H155813   0.396   1.294  14.888 -0.4930  0.0587 -0.6043
11466TIP3    H255814   0.452   1.157  14.920  0.0623  0.2009 -0.9749
11467TIP3   OH255815   2.991   1.137   1.508 -0.0204  0.2999 -0.0399
11467TIP3    H155816   3.021   1.225   1.485  1.8940  0.2293  1.9207
11467TIP3    H255817   2.916   1.151   1.565 -0.4466  0.5988 -0.6559
11468TIP3   OH255818   1.215   5.982   4.351 -0.2247  0.1713  0.2672
11468TIP3    H155819   1.134   5.955   4.395 -1.6296 -0.5648 -2.5001
11468TIP3    H255820   1.194   6.067   4.312 -0.5530 -0.9505 -2.2620
11469TIP3   OH255821   4.246   5.382  16.003 -0.1220  0.0981 -0.0644
11469TIP3    H155822   4.201   5.448  16.056 -0.9507 -0.5215  0.0206
11469TIP3    H255823   4.189   5.305  16.007  1.5529 -1.1702  1.1323
11470TIP3   OH255824   3.676   1.934  15.633 -0.0438 -0.4361  0.1212
11470TIP3    H155825   3.760   1.905  15.596  0.0138 -2.1125  1.4370
11470TIP3    H255826   3.678   2.029  15.625  0.0303 -0.5931 -3.9273
11471TIP3   OH255827   4.807   2.243  14.391  0.6062  0.1857  0.5251
11471TIP3    H155828   4.751   2.184  14.441  0.4041  0.5181  0.7006
11471TIP3    H255829   4.784   2.227  14.300  1.7144 -1.1657  0.4627
11472TIP3   OH255830   4.123   2.959   5.115  0.1800  0.5573 -0.2259
11472TIP3    H155831   4.050   2.905   5.145 -1.0703  1.7628 -0.9834
11472TIP3    H255832   4.154   3.002   5.195  1.3703 -1.3958  0.4373
11473TIP3   OH255833   2.936   0.918  13.197 -0.5096  0.0754  0.3842
11473TIP3    H155834   2.861   0.927  13.138  0.0003 -1.7983 -0.6500
11473TIP3    H255835   2.899   0.918  13.285 -1.7765 -1.0870 -0.1145
11474TIP3   OH255836   2.948   0.339   4.716 -0.2099  0.0542  0.2575
11474TIP3    H155837   3.017   0.296   4.666 -0.2265  1.9325 -1.4970
11474TIP3    H255838   2.989   0.420   4.748 -0.8839 -0.0299  1.3856
11475TIP3   OH255839   4.089   4.189   1.646 -0.3455  0.3584 -0.3240
11475TIP3    H155840   4.177   4.225   1.661 -0.1291 -0.1439 -0.3936
11475TIP3    H255841   4.072   4.206   1.553 -0.6986  1.2773 -0.1012
11476TIP3   OH255842   3.401   4.014  13.264 -0.5354  0.4212  0.3951
11476TIP3    H155843   3.416   3.984  13.354 -1.7177 -0.7683  0.2324
11476TIP3    H255844   3.480   4.063  13.241  0.2492 -0.1855  1.6988
11477TIP3   OH255845   5.276   6.227  13.779  0.4860  0.4437  0.0030
11477TIP3    H155846   5.322   6.165  13.722 -0.6703 -1.3547  0.9368
11477TIP3    H255847   5.318   6.216  13.865 -1.8346 -1.5497  0.9839
11478TIP3   OH255848   3.694   6.027   2.795  0.1766  0.1215 -0.5010
11478TIP3    H155849   3.654   6.072   2.721 -1.0391 -0.7205 -0.3902
11478TIP3    H255850   3.686   5.934   2.774 -0.3160 -0.1331  0.7252
11479TIP3   OH255851   6.308   2.019   2.362 -0.4747 -0.2432  0.0394
11479TIP3    H155852   6.380   1.970   2.322 -1.6210 -1.5421 -0.5290
11479TIP3    H255853   6.316   2.107   2.326 -0.0176 -0.7533 -1.1620
11480TIP3   OH255854   0.709   4.355   3.365 -0.0021  0.3915 -0.3573
11480TIP3    H155855   0.697   4.449   3.377  0.4793  0.6193 -1.5497
11480TIP3    H255856   0.689   4.339   3.273  2.0107 -0.3142 -0.7170
11481TIP3   OH255857   5.106   4.493  12.032 -0.6108 -0.0104 -0.0119
11481TIP3    H155858   5.023   4.446  12.030  0.6769 -2.4281  0.7712
11481TIP3    H255859   5.172   4.427  12.016  1.3292  1.5176  1.2242
11482TIP3   OH255860   3.482   6.203   2.918  0.3157  0.2307  0.4953
11482TIP3    H155861   3.487   6.140   2.845 -0.4108  0.5648  0.1555
11482TIP3    H255862   3.572   6.235   2.927  0.2531  0.8217 -0.8174
11483TIP3   OH255863   1.633   2.211  15.610  0.0243  0.1685 -0.9070
11483TIP3    H155864   1.626   2.306  15.613 -0.3511  0.1252 -0.2263
11483TIP3    H255865   1.543   2.180  15.602  0.1805 -0.1189 -1.6333
11484TIP3   OH255866   0.383   1.651   2.620  0.6247  0.4379  0.3341
11484TIP3    H155867   0.344   1.717   2.563  1.0206  1.0265  0.7267
11484TIP3    H255868   0.430   1.702   2.686 -1.0452 -0.1921  2.0957
11485TIP3   OH255869   4.862   0.183   5.541 -0.0494 -0.1900 -0.3055
11485TIP3    H155870   4.879   0.185   5.635  0.2152 -3.5717 -0.1777
11485TIP3    H255871   4.812   0.263   5.524 -1.2120 -0.1011  2.9073
11486TIP3   OH255872   3.080   3.277   3.583 -0.1100 -0.0171  0.1607
11486TIP3    H155873   3.013   3.288   3.516  0.0290 -0.6425 -0.0929
11486TIP3    H255874   3.149   3.226   3.540 -0.3389 -1.0486  0.9639
11487TIP3   OH255875   2.975   1.334  10.178  0.6251  0.5260  0.1726
11487TIP3    H155876   2.994   1.322  10.271 -2.5277 -1.0958  0.7610
11487TIP3    H255877   2.947   1.247  10.147  1.3112  1.0748 -2.2479
11488TIP3   OH255878   5.917   3.339   4.468 -0.3400  0.0330  0.2027
11488TIP3    H155879   5.871   3.391   4.535  0.3718  0.5812  0.2820
11488TIP3    H255880   5.848   3.286   4.428 -1.4315  2.2069 -1.0000
11489TIP3   OH255881   0.256   2.852   3.998 -0.1396 -0.2402  0.2492
11489TIP3    H155882   0.161   2.847   3.993 -0.0337 -1.6279 -1.2556
11489TIP3    H255883   0.280   2.919   3.934 -0.1754  2.1649  2.5705
11490TIP3   OH255884   4.070   5.762  12.949  0.8600  0.3813  0.8466
11490TIP3    H155885   4.099   5.750  12.859  3.1633 -2.5455  1.7824
11490TIP3    H255886   4.116   5.840  12.979  1.0822  0.6404 -0.1530
11491TIP3   OH255887   4.839   0.070  15.695  0.0855 -0.2294 -0.1502
11491TIP3    H155888   4.755   0.025  15.687  1.1960 -2.4091 -0.3850
11491TIP3    H255889   4.904  -0.000  15.688  1.9601  1.4973 -0.8352
11492TIP3   OH255890   0.202   4.425  12.028 -0.0226 -0.1302  0.6177
11492TIP3    H155891   0.239   4.508  11.997  0.9760 -0.9805 -0.5741
11492TIP3    H255892   0.211   4.429  12.123  0.3342  0.9869  0.5534
11493TIP3   OH255893   0.614   2.537  13.668  0.4895 -0.1016  0.7487
11493TIP3    H155894   0.699   2.580  13.676 -0.3957  1.4525  2.5886
11493TIP3    H255895   0.583   2.528  13.758 -1.8141  0.5287  0.0863
11494TIP3   OH255896   3.178   1.192   3.296  0.1543  0.0491  0.3098
11494TIP3    H155897   3.145   1.185   3.206  0.2997  1.0064  0.1755
11494TIP3    H255898   3.105   1.230   3.345  0.3736  0.3399  0.4144
11495TIP3   OH255899   3.216   2.946  15.684  0.5255  0.3225 -0.3471
11495TIP3    H155900   3.194   3.035  15.656 -0.2569  0.1119 -0.4318
11495TIP3    H255901   3.139   2.894  15.661  0.1381 -0.0052  1.5289
11496TIP3   OH255902   0.022   6.039  11.163 -0.1172 -0.3493  0.0243
11496TIP3    H155903   0.028   6.133  11.177 -0.6007 -0.2815 -0.2164
11496TIP3    H255904   0.059   6.024  11.076 -0.1029 -0.3748  0.0342
11497TIP3   OH255905   5.698   3.448   6.296  0.4357 -0.0408  0.5323
11497TIP3    H155906   5.708   3.356   6.320  0.7361 -0.5671 -1.4559
11497TIP3    H255907   5.604   3.460   6.282  0.5875 -0.6935 -1.3963
11498TIP3   OH255908   5.183   0.691   5.470  0.2450 -0.7549 -0.7052
11498TIP3    H155909   5.134   0.766   5.434 -1.0986 -0.8536  0.8103
11498TIP3    H255910   5.270   0.726   5.488 -0.8897  1.1060  1.8389
11499TIP3   OH255911   2.581   4.309   0.024 -0.7729 -0.0863 -0.1413
11499TIP3    H155912   2.617   4.379  -0.030  0.2709  0.2821  0.9742
11499TIP3    H255913   2.655   4.249   0.038 -1.4588 -1.0447 -0.4733
11500TIP3   OH255914   6.110   5.610  13.210  0.1685  0.0028  0.1267
11500TIP3    H155915   6.094   5.584  13.301 -2.5027 -1.4405 -0.6634
11500TIP3    H255916   6.044   5.562  13.159  0.1326  2.4513 -2.3504
11501TIP3   OH255917   0.769   5.437   4.884  0.1376 -0.0056 -0.2605
11501TIP3    H155918   0.840   5.436   4.948 -0.1563 -0.1609  0.0677
11501TIP3    H255919   0.699   5.488   4.927 -0.4912 -1.0737  0.0099
11502TIP3   OH255920   5.921   1.628  13.953  0.1906 -0.1686  0.5988
11502TIP3    H155921   5.851   1.564  13.964  1.1533 -1.0355  1.9672
11502TIP3    H255922   5.925   1.643  13.858  1.4607 -3.9036 -0.0796
11503TIP3   OH255923   2.554   5.333  11.756 -0.2929 -0.3589 -0.1948
11503TIP3    H155924   2.615   5.261  11.744  0.5018  0.4367 -1.0700
11503TIP3    H255925   2.507   5.339  11.673  0.5466  0.9250 -0.6049
11504TIP3   OH255926   6.654   5.143  16.415 -0.2333  0.3210 -0.1738
11504TIP3    H155927   6.697   5.227  16.431 -0.0469  0.5186 -1.6164
11504TIP3    H255928   6.682   5.117  16.328  0.1248 -1.5116  0.4420
11505TIP3   OH255929   5.192   3.874   3.273 -0.5012 -0.1131  0.4479
11505TIP3    H155930   5.166   3.811   3.340 -1.6435  0.7768  0.8821
11505TIP3    H255931   5.262   3.925   3.314  1.6168 -2.1122 -0.4970
11506TIP3   OH255932   1.077   6.007   3.192  0.0782 -0.1431 -1.0065
11506TIP3    H155933   1.087   5.916   3.165 -0.5852 -0.5357  0.0051
11506TIP3    H255934   0.991   6.033   3.158 -0.9048 -0.7384  0.8760
11507TIP3   OH255935   0.349   6.678  11.541 -0.2682  0.1863 -0.1780
11507TIP3    H155936   0.408   6.659  11.468  0.1188  0.4629  0.0632
11507TIP3    H255937   0.354   6.600  11.596  0.1081  0.3301 -0.0033
11508TIP3   OH255938   1.905   2.467  14.069 -0.2547  0.0377  0.4674
11508TIP3    H155939   1.985   2.427  14.105  0.3652  0.7479 -0.0910
11508TIP3    H255940   1.933   2.503  13.985 -1.7104 -1.7889 -0.8926
11509TIP3   OH255941   6.095   4.686  15.911 -0.6351 -0.2756 -0.0288
11509TIP3    H155942   6.138   4.609  15.949 -0.0438  0.0747  0.0121
11509TIP3    H255943   6.002   4.662  15.909 -0.2158 -2.1990 -2.6999
11510TIP3   OH255944   3.255   2.362  12.626 -0.3509  0.5029  0.3758
11510TIP3    H155945   3.318   2.421  12.668 -1.4166  1.4875  0.6510
11510TIP3    H255946   3.172   2.382  12.669 -0.9454 -0.4233 -0.3181
11511TIP3   OH255947   5.592   2.936   1.717  0.4033 -0.1243  0.0814
11511TIP3    H155948   5.644   2.886   1.654  1.4908  2.1135 -0.9477
11511TIP3    H255949   5.503   2.904   1.706  0.6632 -0.2683 -2.2060
11512TIP3   OH255950   1.071   5.717  12.484  0.1937 -0.3078  0.5368
11512TIP3    H155951   1.081   5.649  12.551  0.3407 -0.4114  0.4106
11512TIP3    H255952   1.027   5.673  12.412  0.7440 -0.4024  0.2539
11513TIP3   OH255953   2.907   6.435   1.737  0.2480  0.4195  0.1357
11513TIP3    H155954   2.924   6.472   1.651  0.8156 -3.0508 -1.4307
11513TIP3    H255955   2.980   6.464   1.791  0.3256  1.9651 -0.7420
11514TIP3   OH255956   0.182   1.525   2.285  0.1988 -0.2692 -0.1646
11514TIP3    H155957   0.116   1.500   2.349  0.4894  0.3541  0.3885
11514TIP3    H255958   0.175   1.621   2.279  0.8191 -0.2282 -0.3450
11515TIP3   OH255959   2.759   3.988   0.556 -0.1132 -0.2742  0.0656
11515TIP3    H155960   2.668   4.012   0.540 -0.2880 -0.8211  0.2202
11515TIP3    H255961   2.803   4.072   0.571 -0.6163 -0.0140  0.1363
11516TIP3   OH255962   6.549   2.518  12.017  0.3201  0.5897 -0.1497
11516TIP3    H155963   6.499   2.576  12.074  1.1701  1.0563  0.1490
11516TIP3    H255964   6.496   2.509  11.938 -0.4123  0.7380  0.3186
11517TIP3   OH255965   5.187   3.660  15.624  0.5302  0.0894 -0.1023
11517TIP3    H155966   5.116   3.725  15.627  0.4123 -0.0221 -0.4013
11517TIP3    H255967   5.180   3.621  15.537  0.9424  0.0544 -0.1232
11518TIP3   OH255968   3.307   1.557   1.980 -0.7402 -0.8412 -0.6241
11518TIP3    H155969   3.262   1.641   1.973 -0.4253 -0.6782 -0.6757
11518TIP3    H255970   3.387   1.567   1.929 -0.7325 -1.1936 -0.6873
11519TIP3   OH255971   6.464   5.834   2.821 -0.0016  0.1931  0.3988
11519TIP3    H155972   6.537   5.802   2.874  0.1756 -0.2669 -0.1289
11519TIP3    H255973   6.483   5.927   2.809  1.1695 -0.1840 -0.8212
11520TIP3   OH255974   2.712   5.051   0.381 -0.0446 -0.0974 -0.1552
11520TIP3    H155975   2.670   5.074   0.298 -0.8572  0.3529  0.3715
11520TIP3    H255976   2.644   5.065   0.447  0.0205 -2.1865  0.4028
11521TIP3   OH255977   2.752   4.294   0.466  0.4091 -0.0872  0.5395
11521TIP3    H155978   2.693   4.301   0.390 -0.1711 -0.2439  0.9709
11521TIP3    H255979   2.789   4.381   0.475 -0.6602  0.3450  0.9754
11522TIP3   OH255980   4.141   5.984  14.960  0.4262 -0.5195 -0.5762
11522TIP3    H155981   4.160   5.971  15.053 -0.9141 -0.2169 -0.2422
11522TIP3    H255982   4.226   6.003  14.921  0.8189  0.9546  0.8710
11523TIP3   OH255983   0.203   6.313   3.622 -0.1471 -0.0836 -0.0852
11523TIP3    H155984   0.151   6.238   3.593 -1.0236 -0.0417  1.2877
11523TIP3    H255985   0.253   6.279   3.697 -0.8102  0.7759  0.7631
11524TIP3   OH255986   2.946   3.697  12.572 -0.2756 -0.1454  0.3040
11524TIP3    H155987   2.935   3.786  12.538  1.2364  0.4965  1.3944
11524TIP3    H255988   3.025   3.664  12.529 -0.3995 -0.6795  0.4773
11525TIP3   OH255989   1.749   6.146   5.730 -0.1852 -0.2029  0.5082
11525TIP3    H155990   1.703   6.137   5.646 -0.1672  0.7091  0.3937
11525TIP3    H255991   1.797   6.228   5.723  0.7034 -0.6619  0.9999
11526TIP3   OH255992   3.128   6.522   3.249 -0.4438 -0.7054 -0.3110
11526TIP3    H155993   3.173   6.604   3.232 -1.6433 -0.4754 -2.7765
11526TIP3    H255994   3.059   6.518   3.183 -1.7858 -2.7039  1.0792
11527TIP3   OH255995   5.544   0.568   5.375 -0.0116 -0.0728  0.2850
11527TIP3    H155996   5.574   0.529   5.293 -0.6240  1.4289 -0.6964
11527TIP3    H255997   5.448   0.566   5.369 -0.0561  0.6447  0.6493
11528TIP3   OH255998   4.978   2.048  17.159  0.9751  0.2176 -0.1691
11528TIP3    H155999   4.888   2.037  17.190  1.2212 -0.8122  0.1957
11528TIP3    H256000   5.018   2.108  17.222  0.6870  0.2964 -0.0590
11529TIP3   OH256001   5.157   0.387   2.701 -0.7033 -0.5233  0.3822
11529TIP3    H156002   5.126   0.409   2.614 -1.6946  0.0567  0.8588
11529TIP3    H256003   5.115   0.304   2.721 -1.4221 -0.0776  0.7578
11530TIP3   OH256004   1.979   1.689  14.773 -0.7340  0.0812  0.1375
11530TIP3    H156005   2.014   1.741  14.846  1.2787 -3.1868  1.7500
11530TIP3    H256006   2.047   1.692  14.707  0.2888 -1.9170  1.0343
11531TIP3   OH256007   1.559   3.567   5.028  0.1272  0.3627  0.1777
11531TIP3    H156008   1.584   3.531   5.113 -1.2893  1.1518  0.9647
11531TIP3    H256009   1.510   3.497   4.986  2.2671 -0.6590 -0.7629
11532TIP3   OH256010   6.188   0.452   4.041  0.1165 -0.4735  0.4948
11532TIP3    H156011   6.211   0.370   4.085 -0.9831 -2.0722 -1.6864
11532TIP3    H256012   6.100   0.472   4.072 -0.4764 -1.3487 -0.5643
11533TIP3   OH256013   1.908   0.573   6.417 -0.4256  0.1310  0.6537
11533TIP3    H156014   1.865   0.592   6.500  1.7174  0.3543  1.7567
11533TIP3    H256015   1.937   0.658   6.385 -0.8075 -0.0149 -0.1155
11534TIP3   OH256016   1.027   3.625   0.111  0.1244  0.4055 -0.7920
11534TIP3    H156017   0.937   3.640   0.080 -0.6840 -2.4516 -0.1013
11534TIP3    H256018   1.072   3.707   0.091 -2.9129  2.4628 -0.0168
11535TIP3   OH256019   1.397   5.785   1.180 -0.1419 -0.5093 -0.7010
11535TIP3    H156020   1.419   5.811   1.091  0.1518  0.3158 -0.3944
11535TIP3    H256021   1.302   5.779   1.180 -0.3438  1.7955 -0.4852
11536TIP3   OH256022   2.580   1.143   1.118  0.2984  0.0218  0.3005
11536TIP3    H156023   2.671   1.173   1.114 -0.2122  1.8445  1.1156
11536TIP3    H256024   2.573   1.099   1.203  0.1922  0.8116  0.7155
11537TIP3   OH256025   6.065   6.512   2.892 -0.3981 -0.4686  0.5035
11537TIP3    H156026   6.087   6.578   2.826  1.3490 -2.5538 -1.1554
11537TIP3    H256027   6.134   6.520   2.958  0.7441 -1.5768 -0.4982
11538TIP3   OH256028   3.030   4.124  14.757 -0.4174 -0.1117  0.1861
11538TIP3    H156029   3.010   4.180  14.682 -0.7660  0.7174  0.8907
11538TIP3    H256030   3.011   4.178  14.834  0.2766 -0.8263  0.8782
11539TIP3   OH256031   1.441   3.896   2.500 -0.4758  0.2631 -0.1050
11539TIP3    H156032   1.423   3.962   2.433 -1.3966 -0.7993 -0.9523
11539TIP3    H256033   1.513   3.844   2.464 -0.4776  0.1431  0.0650
11540TIP3   OH256034   1.588   3.652   5.744 -0.1647  0.5077 -0.1808
11540TIP3    H156035   1.631   3.628   5.826 -0.0463 -0.5555 -0.5442
11540TIP3    H256036   1.658   3.656   5.679 -0.4300 -0.0143 -0.5119
11541TIP3   OH256037   3.212   4.131  17.143  0.2319 -0.1477 -0.2684
11541TIP3    H156038   3.285   4.114  17.202  0.9925  0.5348 -0.9863
11541TIP3    H256039   3.241   4.205  17.089 -1.7181  1.4001  0.6766
11542TIP3   OH256040   5.726   1.996  17.381  0.2765 -0.4461 -0.1150
11542TIP3    H156041   5.658   2.032  17.324  0.2206  1.5677  1.1505
11542TIP3    H256042   5.725   2.052  17.459  2.1381 -1.5054  0.7408
11543TIP3   OH256043   6.615   4.742  11.652  0.1520 -0.0840 -0.3754
11543TIP3    H156044   6.646   4.666  11.700 -1.1415 -0.4926 -0.1574
11543TIP3    H256045   6.566   4.794  11.716  2.2431  1.7404 -0.1293
11544TIP3   OH256046   1.636   1.572  14.392 -0.0381 -0.0445  0.4887
11544TIP3    H156047   1.633   1.508  14.463 -0.2204 -0.8744 -0.2489
11544TIP3    H256048   1.717   1.553  14.345  1.3447  2.0615  1.8497
11545TIP3   OH256049   5.676   5.986   4.270  0.0008  0.1112  0.4120
11545TIP3    H156050   5.762   5.946   4.262 -0.6365 -1.2342 -0.0303
11545TIP3    H256051   5.686   6.050   4.341  1.2758 -0.2205  0.5595
11546TIP3   OH256052   0.398   6.543  11.897 -0.0032 -0.8461  0.0030
11546TIP3    H156053   0.343   6.571  11.824  3.1860 -0.4783 -2.4861
11546TIP3    H256054   0.401   6.448  11.891  0.6559 -0.7858 -0.6959
11547TIP3   OH256055   2.689   4.246   0.753 -0.0119  0.0473 -0.2162
11547TIP3    H156056   2.677   4.244   0.658 -0.8344  0.8283 -0.1429
11547TIP3    H256057   2.748   4.319   0.768  0.8661 -0.6515 -0.1824
11548TIP3   OH256058   4.796   1.419  13.569 -0.5462 -0.0372 -0.5748
11548TIP3    H156059   4.827   1.403  13.658 -1.6724  1.1094  0.0581
11548TIP3    H256060   4.854   1.488  13.536  0.8079 -1.4735 -1.2989
11549TIP3   OH256061   3.007   4.550   1.312  0.4151  0.4431 -0.3068
11549TIP3    H156062   3.059   4.620   1.273 -1.6005  2.3747  0.2116
11549TIP3    H256063   2.968   4.504   1.237 -0.3808  1.6710 -0.6903
11550TIP3   OH256064   5.394   2.573   5.791 -0.7961  0.8095 -0.0872
11550TIP3    H156065   5.356   2.635   5.853  2.9078  0.7843  2.5368
11550TIP3    H256066   5.455   2.626   5.738 -0.2955  0.0162 -0.3193
11551TIP3   OH256067   5.347   0.112   5.382 -0.2226 -0.2958  0.3789
11551TIP3    H156068   5.281   0.070   5.437  0.1372 -1.2753  0.0891
11551TIP3    H256069   5.298   0.147   5.308 -0.2866 -2.4056 -0.6571
11552TIP3   OH256070   5.397   2.700  13.194 -0.4725  0.1923  0.3632
11552TIP3    H156071   5.465   2.686  13.128  1.4122 -1.8071  2.5569
11552TIP3    H256072   5.432   2.771  13.248 -0.8575  0.1753  0.6323
11553TIP3   OH256073   3.352   2.013   2.639 -0.1683  0.5606 -0.7239
11553TIP3    H156074   3.391   1.998   2.725 -1.4658  2.8207  0.3549
11553TIP3    H256075   3.418   2.064   2.591  0.9606 -1.5179 -1.5051
11554TIP3   OH256076   1.458   3.715   2.200  0.4856  0.1317  0.1407
11554TIP3    H156077   1.501   3.791   2.161 -0.0775  0.0950 -0.5707
11554TIP3    H256078   1.490   3.640   2.151  0.0722  0.0436 -0.0033
11555TIP3   OH256079   6.352   2.368  15.288  0.1652  0.5816 -0.0018
11555TIP3    H156080   6.423   2.363  15.224 -0.2008 -0.7011 -0.3516
11555TIP3    H256081   6.300   2.289  15.271 -1.1993  1.3578  0.4106
11556TIP3   OH256082   4.550   5.121  11.055  0.1337  0.0661 -0.5876
11556TIP3    H156083   4.609   5.193  11.076  0.2411  0.2407 -1.4346
11556TIP3    H256084   4.473   5.136  11.110  1.3668 -0.9121  1.5412
11557TIP3   OH256085   4.498   2.575   2.542  0.3903 -0.5454  0.1763
11557TIP3    H156086   4.441   2.646   2.574  0.6385 -0.9995  1.7156
11557TIP3    H256087   4.437   2.504   2.521  0.1073  0.1906 -1.7123
11558TIP3   OH256088   6.576   1.203   0.025  0.0480 -0.6805 -0.0711
11558TIP3    H156089   6.671   1.217   0.025 -0.2497  1.7635 -0.9989
11558TIP3    H256090   6.566   1.108   0.016  2.4087 -0.9432 -0.5310
11559TIP3   OH256091   4.669   3.251   3.097  0.2655 -0.7009  0.0658
11559TIP3    H156092   4.644   3.222   3.009  1.0950  1.2839 -0.9015
11559TIP3    H256093   4.594   3.303   3.127  0.3409 -0.6382  0.1435
11560TIP3   OH256094   3.632   3.951   0.843  0.4274 -0.7024 -0.4341
11560TIP3    H156095   3.589   3.929   0.761  0.0760  0.8670 -0.7102
11560TIP3    H256096   3.646   4.046   0.838  1.7148 -0.7948  0.6957
11561TIP3   OH256097   0.547   2.963   2.826  0.1820  1.1000 -0.2351
11561TIP3    H156098   0.522   2.988   2.915  1.2492 -0.6160  0.5964
11561TIP3    H256099   0.465   2.939   2.784 -0.0307 -1.8823  1.6023
11562TIP3   OH256100   4.325   5.538   5.439 -0.2710  0.0212  0.4578
11562TIP3    H156101   4.335   5.510   5.348  2.9092  0.9874  0.4144
11562TIP3    H256102   4.382   5.614   5.447 -1.3628  0.6682  3.0145
11563TIP3   OH256103   1.373   1.066   4.959  0.4300 -0.0906  0.1136
11563TIP3    H156104   1.345   1.152   4.928  1.4287  0.1465 -0.1668
11563TIP3    H256105   1.459   1.082   4.999  0.3111 -0.8405  0.6896
11564TIP3   OH256106   3.210   3.041   1.112 -0.1548  0.1249 -0.3093
11564TIP3    H156107   3.178   3.012   1.197 -2.1415  0.0769 -1.0093
11564TIP3    H256108   3.136   3.087   1.073  0.3275 -0.7427 -2.4160
11565TIP3   OH256109   1.233   0.685   1.422  0.8656 -0.0955  0.3781
11565TIP3    H156110   1.226   0.767   1.471 -0.4429  0.2063 -0.2601
11565TIP3    H256111   1.278   0.709   1.341  2.4680 -0.4711  1.1228
11566TIP3   OH256112   0.382   6.175   2.314 -0.5099 -0.4290 -0.7408
11566TIP3    H156113   0.370   6.098   2.370 -0.9507  0.4330  0.3912
11566TIP3    H256114   0.387   6.140   2.225  1.5562 -1.9580 -0.0892
11567TIP3   OH256115   2.529   2.789  15.904  0.6702  0.7239  0.8875
11567TIP3    H156116   2.451   2.741  15.877  1.2981 -0.6513  1.4304
11567TIP3    H256117   2.582   2.795  15.825 -0.9978  3.8649 -0.1437
11568TIP3   OH256118   2.367   2.311  10.912  0.0706 -0.0446  0.4133
11568TIP3    H156119   2.278   2.278  10.921 -0.0429  0.7269  2.7947
11568TIP3    H256120   2.358   2.390  10.859 -0.5742 -0.2804  0.1588
11569TIP3   OH256121   5.981   0.666   4.511  0.7670  0.2698  0.4635
11569TIP3    H156122   5.915   0.720   4.469  1.9783  0.8965 -0.7220
11569TIP3    H256123   6.029   0.727   4.568  0.7908 -0.0183  0.7567
11570TIP3   OH256124   2.603   2.723   1.137  0.1127  0.5922 -0.4644
11570TIP3    H156125   2.635   2.754   1.222  0.7579  1.2193 -0.9245
11570TIP3    H256126   2.638   2.634   1.129  0.2426  0.6158 -0.1780
11571TIP3   OH256127   2.037   5.097  13.798 -0.2172 -0.0103  0.1028
11571TIP3    H156128   2.083   5.017  13.773 -1.2607 -0.4869 -0.3244
11571TIP3    H256129   2.030   5.091  13.894 -0.8309 -0.7460  0.0259
11572TIP3   OH256130   2.477   5.129  16.833  0.0417 -0.2178  0.2948
11572TIP3    H156131   2.418   5.200  16.859  1.8754  1.1654  0.8903
11572TIP3    H256132   2.436   5.091  16.756 -1.0151  1.5138 -0.0533
11573TIP3   OH256133   4.010   0.489   3.574 -0.7445 -0.0343  0.0532
11573TIP3    H156134   3.964   0.422   3.625  0.9093 -0.6026  0.8549
11573TIP3    H256135   3.949   0.562   3.570 -1.9903 -1.0131  0.4799
11574TIP3   OH256136   5.049   2.620  11.490  0.2027  0.7052 -0.0590
11574TIP3    H156137   4.955   2.606  11.480  0.5630 -1.7319 -0.6875
11574TIP3    H256138   5.066   2.703  11.446 -1.6654  1.3164  0.2810
11575TIP3   OH256139   3.087   3.940   1.122 -0.0638  0.5279 -0.1867
11575TIP3    H156140   3.170   3.975   1.087 -0.7793  0.0855 -2.4591
11575TIP3    H256141   3.083   3.850   1.089 -1.3309  0.4609  0.1112
11576TIP3   OH256142   4.977   1.101  11.997 -0.9212  0.6647  0.6258
11576TIP3    H156143   5.054   1.058  11.959 -0.0358  1.3838  1.5623
11576TIP3    H256144   4.910   1.092  11.930 -0.1708 -0.3995 -0.0209
11577TIP3   OH256145   2.462   5.237   0.865  0.1178  0.2986 -0.1084
11577TIP3    H156146   2.503   5.157   0.831  1.8827  0.3540  1.7460
11577TIP3    H256147   2.507   5.255   0.947 -1.4539  2.2435  0.4173
11578TIP3   OH256148   6.496   2.917  13.238 -0.0928 -0.4528 -0.4386
11578TIP3    H156149   6.591   2.905  13.242 -0.0469 -0.1323 -0.4691
11578TIP3    H256150   6.463   2.838  13.196  0.0408 -1.0827  0.6179
11579TIP3   OH256151   4.613   6.260  10.557 -0.1624  0.8355  0.2848
11579TIP3    H156152   4.659   6.344  10.558  0.3937  0.5427  1.1157
11579TIP3    H256153   4.523   6.282  10.581  0.0095  1.1841  0.6338
11580TIP3   OH256154   6.143   1.900   3.946 -0.3304 -0.5242  0.8596
11580TIP3    H156155   6.205   1.906   4.019 -0.5603 -0.4894  1.0560
11580TIP3    H256156   6.058   1.919   3.986 -0.5010 -0.8346  0.6445
11581TIP3   OH256157   3.154   0.774   3.582 -0.3681  0.3919  0.4656
11581TIP3    H156158   3.146   0.726   3.665 -0.7029  1.4646  1.0779
11581TIP3    H256159   3.141   0.865   3.607 -0.2955  0.7443 -0.7574
11582TIP3   OH256160   4.075   2.157  12.089  0.7416  0.2932 -0.2594
11582TIP3    H156161   4.110   2.211  12.160  1.7040 -0.9896  0.2881
11582TIP3    H256162   4.115   2.071  12.102 -0.8599 -0.6213 -0.9984
11583TIP3   OH256163   5.085   1.777   5.373  0.6190  1.0695  0.1481
11583TIP3    H156164   5.163   1.748   5.420 -0.2360  2.2135  2.4877
11583TIP3    H256165   5.014   1.766   5.437 -0.5550  3.2310 -0.6800
11584TIP3   OH256166   4.700   5.801  14.428  0.0005  0.1742  0.3429
11584TIP3    H156167   4.722   5.767  14.515 -0.1056 -1.9948 -0.4230
11584TIP3    H256168   4.692   5.724  14.373 -1.1355  1.4137 -1.3538
11585TIP3   OH256169   5.551   6.522   5.916  0.4493  0.5294 -0.2078
11585TIP3    H156170   5.637   6.500   5.951  0.5009  0.6223 -0.2723
11585TIP3    H256171   5.493   6.455   5.950  0.7677 -0.2518 -1.1444
11586TIP3   OH256172   2.706   1.100  11.527  0.2799 -0.7028 -0.7080
11586TIP3    H156173   2.747   1.023  11.487  0.9930 -0.6097 -0.1922
11586TIP3    H256174   2.650   1.135  11.459 -0.5580 -2.0392 -0.7480
11587TIP3   OH256175   0.448   0.866  12.089  0.0401 -0.8588  0.4970
11587TIP3    H156176   0.417   0.950  12.122  2.3315  0.3076 -0.0864
11587TIP3    H256177   0.477   0.819  12.167  1.5202  0.1602  0.6015
11588TIP3   OH256178   5.489   4.461  14.345 -0.1014  0.3160  0.4327
11588TIP3    H156179   5.503   4.552  14.371  0.2089  0.2679  0.4364
11588TIP3    H256180   5.546   4.448  14.269  0.7213 -0.1951  1.1133
11589TIP3   OH256181   5.674   3.591   3.368 -0.2375 -0.5286  0.1806
11589TIP3    H156182   5.598   3.645   3.389  0.2787  0.9139 -1.4183
11589TIP3    H256183   5.642   3.528   3.304  0.0470  0.7068 -1.2516
11590TIP3   OH256184   1.589   4.746   1.913  0.0227 -0.4172  0.0943
11590TIP3    H156185   1.610   4.661   1.873 -0.0004  0.1543 -1.1774
11590TIP3    H256186   1.494   4.753   1.905  0.2128  0.7405 -2.0355
11591TIP3   OH256187   1.710   1.796   0.661 -0.7140 -0.6473  0.1085
11591TIP3    H156188   1.743   1.880   0.629 -0.8752 -0.1940  1.0758
11591TIP3    H256189   1.756   1.730   0.609  0.4458  0.0043  0.2762
11592TIP3   OH256190   1.798   0.024   2.141  0.0173 -0.1506 -0.1369
11592TIP3    H156191   1.817   0.066   2.057  0.7717 -0.2477 -0.0215
11592TIP3    H256192   1.855   0.067   2.204 -0.1325 -0.4649  0.2222
11593TIP3   OH256193   2.054   1.529   0.263  0.2358  0.1756  0.2120
11593TIP3    H156194   2.038   1.514   0.357 -2.1081 -2.1197 -0.4365
11593TIP3    H256195   2.076   1.622   0.257  1.4174  0.1953  3.1147
11594TIP3   OH256196   1.463   0.527  16.667  0.2989  0.0136  0.0528
11594TIP3    H156197   1.533   0.512  16.605  1.2262 -0.1540  1.1089
11594TIP3    H256198   1.416   0.444  16.673  0.0563  0.1038 -0.5968
11595TIP3   OH256199   4.384   0.833   2.198  0.1396  0.2059  0.3097
11595TIP3    H156200   4.364   0.762   2.138 -0.2682  1.5484 -1.1950
11595TIP3    H256201   4.347   0.911   2.157  1.4548  1.4638  1.3982
11596TIP3   OH256202   4.703   4.024   1.494 -0.3606  0.4458 -0.0079
11596TIP3    H156203   4.791   3.992   1.471 -0.9283 -1.4095  0.2644
11596TIP3    H256204   4.644   3.971   1.441 -1.4204  0.0073  1.5494
11597TIP3   OH256205   5.078   4.378  10.928  0.0455  0.2140 -0.5744
11597TIP3    H156206   4.987   4.380  10.900 -0.3860 -1.9349  0.4956
11597TIP3    H256207   5.128   4.380  10.846 -0.8977  1.7201 -1.1642
11598TIP3   OH256208   2.765   4.893   0.601  0.2744 -0.1029 -0.1034
11598TIP3    H156209   2.858   4.876   0.614 -0.0085 -1.6381  0.0665
11598TIP3    H256210   2.757   4.915   0.508  0.5762 -1.7526 -0.5397
11599TIP3   OH256211   2.804   0.820   0.594 -0.3368 -0.5322 -0.4433
11599TIP3    H156212   2.715   0.812   0.627 -0.2160 -1.5804 -0.3308
11599TIP3    H256213   2.798   0.794   0.502 -0.4637  1.2206 -0.9521
11600TIP3   OH256214   4.434   0.430   3.362  0.0988 -0.4000  0.8282
11600TIP3    H156215   4.364   0.482   3.402 -0.1634  0.2006 -0.3480
11600TIP3    H256216   4.416   0.340   3.389 -0.5791 -0.1293  1.3087
11601TIP3   OH256217   5.238   0.479   4.521  0.5588  0.0529  0.3159
11601TIP3    H156218   5.250   0.563   4.565  1.3378  0.8545 -1.3169
11601TIP3    H256219   5.210   0.503   4.432 -1.1910 -1.4875  0.3760
11602TIP3   OH256220   3.691   0.269  15.214  0.0259  0.0540 -0.1763
11602TIP3    H156221   3.656   0.314  15.290 -1.6532  0.4946 -1.1687
11602TIP3    H256222   3.686   0.176  15.236  1.2548  0.2182  0.9273
11603TIP3   OH256223   2.176   3.498   4.186  0.5180 -0.1320 -0.0917
11603TIP3    H156224   2.243   3.534   4.245 -0.1176  0.3343  0.3594
11603TIP3    H256225   2.093   3.526   4.225 -0.0215 -2.2325  0.3753
11604TIP3   OH256226   2.511   3.740  17.295  0.1197  0.1357  0.2785
11604TIP3    H156227   2.484   3.812  17.353 -0.4859  0.2257 -0.1127
11604TIP3    H256228   2.605   3.753  17.285  0.3094 -0.1011  1.5455
11605TIP3   OH256229   6.685   6.202   4.184 -0.0489  0.3532 -0.2644
11605TIP3    H156230   6.627   6.149   4.129  1.1270  0.1854 -1.3896
11605TIP3    H256231   6.718   6.270   4.125 -0.2453  1.3555  0.7471
11606TIP3   OH256232   1.844   6.026   2.878 -0.0572  0.1650  0.3184
11606TIP3    H156233   1.794   5.966   2.933 -0.0474  0.9207  1.1796
11606TIP3    H256234   1.783   6.096   2.856  0.5105  0.9338  1.1166
11607TIP3   OH256235   1.768   3.627   3.954 -0.0734  0.3391 -0.3870
11607TIP3    H156236   1.753   3.720   3.968 -1.2061  0.0186  0.7248
11607TIP3    H256237   1.687   3.585   3.985  0.7497 -1.0723 -0.0675
11608TIP3   OH256238   3.510   0.052  15.917  0.1045  0.0038  0.2091
11608TIP3    H156239   3.414   0.063  15.915 -0.1840 -2.1275  0.5035
11608TIP3    H256240   3.525  -0.015  15.984  1.7317 -0.3868 -0.5082
11609TIP3   OH256241   1.220   3.342   4.286 -0.5147 -0.0344  0.1344
11609TIP3    H156242   1.269   3.415   4.323  0.0457 -0.5051  0.3326
11609TIP3    H256243   1.200   3.369   4.196 -1.8516  1.0976  0.7321
11610TIP3   OH256244   6.646   0.701  14.280  0.4397  0.3057 -0.6773
11610TIP3    H156245   6.737   0.729  14.281  0.6451 -0.3415 -0.8175
11610TIP3    H256246   6.622   0.692  14.372  0.2542  1.2996 -0.6231
11611TIP3   OH256247   0.140   0.638  11.138 -0.1082  0.1129  0.1136
11611TIP3    H156248   0.076   0.706  11.117  0.3502  0.3970 -0.4004
11611TIP3    H256249   0.225   0.684  11.137  0.0730 -0.1719  1.1757
11612TIP3   OH256250   5.988   1.900   9.970  0.3587 -0.4455  0.1002
11612TIP3    H156251   5.969   1.895  10.063 -1.3679 -0.5764 -0.2262
11612TIP3    H256252   5.925   1.964   9.936  2.5268  1.4494 -0.6284
11613TIP3   OH256253   5.422   5.805   0.690  0.2357 -0.1514 -0.1571
11613TIP3    H156254   5.394   5.736   0.629 -2.2748  1.3045 -0.8105
11613TIP3    H256255   5.426   5.884   0.637 -1.1099  0.9938  1.3478
11614TIP3   OH256256   4.576   1.681   4.595 -0.0086  0.1174 -0.2910
11614TIP3    H156257   4.639   1.714   4.658 -1.3633 -0.4945  1.4883
11614TIP3    H256258   4.540   1.759   4.553 -0.1000  0.6409  0.7426
11615TIP3   OH256259   3.829   3.914   1.041 -0.0622 -0.3290  0.3703
11615TIP3    H156260   3.851   3.826   1.013  2.3321  0.0500  0.8501
11615TIP3    H256261   3.745   3.933   0.998  0.3300 -2.0937 -1.2851
11616TIP3   OH256262   5.602   6.258  16.729  0.5675 -0.2479  0.7589
11616TIP3    H156263   5.526   6.275  16.784 -0.9217 -1.7825 -0.6931
11616TIP3    H256264   5.676   6.261  16.789 -0.7238  0.2917  2.4162
11617TIP3   OH256265   2.246   0.823  13.633  0.1741 -0.1284  0.0997
11617TIP3    H156266   2.264   0.729  13.631 -0.0241 -0.1768  0.5340
11617TIP3    H256267   2.209   0.839  13.720 -2.1377 -0.0820 -0.8146
11618TIP3   OH256268   2.347   3.578  12.724  0.5831  0.4848 -1.0855
11618TIP3    H156269   2.286   3.637  12.680  2.5485  1.9083 -2.0266
11618TIP3    H256270   2.398   3.538  12.654  0.3018 -1.2297 -0.3686
11619TIP3   OH256271   1.955   2.977  12.045  0.0431  0.0580  0.8014
11619TIP3    H156272   2.030   3.029  12.074 -0.2157 -0.3317  2.2498
11619TIP3    H256273   1.891   2.984  12.116 -1.7419  1.1945 -0.8402
11620TIP3   OH256274   4.738   4.565  16.062  0.2670 -0.2127  0.0876
11620TIP3    H156275   4.785   4.482  16.053  0.5756 -0.0634  0.3330
11620TIP3    H256276   4.785   4.613  16.129 -0.3015 -0.1046  0.4146
11621TIP3   OH256277   2.255   0.216  16.084  0.6568 -0.0015  0.6351
11621TIP3    H156278   2.312   0.207  16.008 -1.2249  1.0392 -1.0156
11621TIP3    H256279   2.251   0.129  16.123  0.3359 -0.9922 -1.5084
11622TIP3   OH256280   2.986   5.390   0.080 -0.1348 -0.3028 -0.4992
11622TIP3    H156281   2.935   5.349   0.010  0.2784 -0.0436 -0.9590
11622TIP3    H256282   3.047   5.322   0.107 -0.0942 -0.3051 -0.5965
11623TIP3   OH256283   4.133   2.815  11.441  0.6154 -0.3579  0.3607
11623TIP3    H156284   4.203   2.802  11.377  0.9775 -0.8182  0.8377
11623TIP3    H256285   4.054   2.784  11.397  0.9849 -1.3945  0.3963
11624TIP3   OH256286   2.742   2.236   4.097  0.5023 -0.6206 -0.3461
11624TIP3    H156287   2.737   2.226   4.192  1.3534 -0.0900 -0.2451
11624TIP3    H256288   2.680   2.305   4.076 -2.4811 -3.1288 -0.6198
11625TIP3   OH256289   1.987   4.251   2.286 -0.3559 -0.0924  0.6813
11625TIP3    H156290   2.005   4.159   2.306  0.2944 -0.0426  0.3416
11625TIP3    H256291   2.032   4.299   2.355 -0.0627 -0.0029  0.4279
11626TIP3   OH256292   4.553   4.533  15.449 -0.2167  0.0216  0.0007
11626TIP3    H156293   4.482   4.578  15.495 -0.1224 -1.1408  1.3315
11626TIP3    H256294   4.545   4.441  15.475  1.7057 -0.1579  0.0948
11627TIP3   OH256295   1.560   4.966  16.362 -0.3206 -0.3371 -0.2288
11627TIP3    H156296   1.514   4.954  16.279 -0.0999 -0.4153 -0.3404
11627TIP3    H256297   1.525   5.048  16.398  0.0938  0.0680 -0.7375
11628TIP3   OH256298   6.582   3.347   5.029 -0.0578 -0.0938 -0.5554
11628TIP3    H156299   6.604   3.257   5.006 -0.5175 -0.6395  1.0489
11628TIP3    H256300   6.551   3.343   5.119 -1.8191  1.3988 -1.0124
11629TIP3   OH256301   5.298   0.432  13.107 -0.2500  0.1297  0.5035
11629TIP3    H156302   5.259   0.515  13.080 -0.9044 -0.4888 -0.5053
11629TIP3    H256303   5.355   0.407  13.034 -2.6750 -1.9775 -0.8536
11630TIP3   OH256304   3.235   0.146   5.647 -0.3722 -0.1674 -0.1032
11630TIP3    H156305   3.304   0.169   5.584  1.0575  0.8489  1.7070
11630TIP3    H256306   3.279   0.089   5.710 -1.1772  0.4768  1.0786
11631TIP3   OH256307   4.588   2.895   0.417 -0.6476 -0.5573 -0.3089
11631TIP3    H156308   4.678   2.862   0.419 -1.2013 -2.1565 -0.3175
11631TIP3    H256309   4.579   2.946   0.497 -0.2198 -1.7751  0.5458
11632TIP3   OH256310   3.260   1.834  11.131  0.7422  0.4050  0.7875
11632TIP3    H156311   3.325   1.825  11.062  0.6437  0.6108  0.6673
11632TIP3    H256312   3.260   1.749  11.176 -0.4604 -0.3532 -0.5798
11633TIP3   OH256313   1.124   3.016   4.746  0.2643 -0.0305 -0.3432
11633TIP3    H156314   1.215   2.987   4.753  0.5102  0.7482 -0.2467
11633TIP3    H256315   1.102   3.003   4.654 -0.5980 -3.2813  0.1919
11634TIP3   OH256316   4.841   4.472   2.353 -0.0810 -0.0723  0.8187
11634TIP3    H156317   4.827   4.457   2.259 -0.9449 -0.0837  0.9468
11634TIP3    H256318   4.767   4.430   2.396  0.5838 -0.5279  1.5505
11635TIP3   OH256319   2.041   0.951  16.777 -0.5163  0.1012  0.2231
11635TIP3    H156320   2.011   0.927  16.865 -1.0368 -0.3630 -0.0761
11635TIP3    H256321   2.061   0.868  16.735 -4.2321 -0.1458 -1.5190
11636TIP3   OH256322   4.088   3.295  14.362 -0.0449 -0.2536 -0.7401
11636TIP3    H156323   4.089   3.328  14.451 -0.4823  2.8203 -1.7382
11636TIP3    H256324   4.032   3.218  14.365 -1.4644  0.7728  1.3355
11637TIP3   OH256325   5.949   5.687   3.985 -0.6052  0.1579 -0.0094
11637TIP3    H156326   6.003   5.756   3.946  0.0013  0.2557  0.9954
11637TIP3    H256327   5.972   5.608   3.936  0.3467  0.2270  0.3082
11638TIP3   OH256328   2.809   3.692   5.873 -0.3583  0.4827 -0.0895
11638TIP3    H156329   2.739   3.639   5.836  0.6387 -1.1308  0.2476
11638TIP3    H256330   2.770   3.735   5.948 -0.6637 -1.5018  0.9430
11639TIP3   OH256331   2.074   4.967   3.239 -0.8411  0.2246  0.0424
11639TIP3    H156332   2.078   4.956   3.144 -1.0876  1.5829 -0.1545
11639TIP3    H256333   2.127   5.045   3.256 -1.1795  0.2674  0.9646
11640TIP3   OH256334   6.640   0.501  17.299 -0.1809  0.4822 -0.4477
11640TIP3    H156335   6.630   0.494  17.204  0.9073 -1.0806 -0.4994
11640TIP3    H256336   6.629   0.411  17.330  2.4130  0.4249  0.5508
11641TIP3   OH256337   0.993   4.693   1.729 -0.0846  0.3672 -0.3151
11641TIP3    H156338   0.976   4.735   1.813 -0.9791 -1.9983  0.7991
11641TIP3    H256339   1.087   4.676   1.729  0.1342  1.5125 -0.3955
11642TIP3   OH256340   6.264   6.595  16.558 -0.3993 -0.4833  0.1207
11642TIP3    H156341   6.187   6.650  16.542 -0.5316 -0.3858  1.0452
11642TIP3    H256342   6.240   6.541  16.634 -0.8787 -2.9744 -1.6769
11643TIP3   OH256343   4.996   0.436   3.949  0.0553 -0.3509 -0.0714
11643TIP3    H156344   5.061   0.385   3.900  0.3378  1.4042 -1.6729
11643TIP3    H256345   5.003   0.525   3.912 -2.9997  0.0087 -0.0746
11644TIP3   OH256346   5.843   5.784  13.958 -0.2050 -0.5874 -0.1638
11644TIP3    H156347   5.892   5.847  14.011 -0.6086  0.0002 -0.4730
11644TIP3    H256348   5.900   5.709  13.950  0.8440  0.2627 -0.9163
11645TIP3   OH256349   2.936   4.654   0.263 -0.6344  0.3342  0.6979
11645TIP3    H156350   3.014   4.612   0.226 -1.5016 -2.5492  1.8832
11645TIP3    H256351   2.864   4.623   0.208 -1.2571  0.6703  1.3109
11646TIP3   OH256352   1.099   3.750  14.501 -0.6943 -0.0882  0.0796
11646TIP3    H156353   1.033   3.814  14.475  0.8370  1.7141  0.4178
11646TIP3    H256354   1.070   3.720  14.588 -1.5027  0.0242 -0.1429
11647TIP3   OH256355   6.428   5.050   0.448 -0.1096  0.0316  0.3302
11647TIP3    H156356   6.508   5.019   0.405 -1.2907  0.2592 -2.2016
11647TIP3    H256357   6.422   5.142   0.422 -2.5404 -0.6349 -1.8973
11648TIP3   OH256358   4.777   1.811   1.070  0.2579 -0.5605  0.1147
11648TIP3    H156359   4.759   1.902   1.094 -0.6659 -0.4768 -0.8647
11648TIP3    H256360   4.778   1.764   1.154 -1.3760 -0.0122  0.4678
11649TIP3   OH256361   4.681   4.868  12.018 -0.1568 -0.2997  0.1288
11649TIP3    H156362   4.739   4.887  11.944 -0.2267 -0.4299  0.0410
11649TIP3    H256363   4.627   4.795  11.988  0.7385 -1.2714  0.8044
11650TIP3   OH256364   3.340   2.176  11.762  0.6656 -0.7684  0.5710
11650TIP3    H156365   3.355   2.083  11.778  0.8829 -0.7538  0.4553
11650TIP3    H256366   3.248   2.190  11.785  0.8611 -0.8275  1.4069
11651TIP3   OH256367   2.655   3.073  15.573 -0.0312  0.1382 -0.2787
11651TIP3    H156368   2.668   3.107  15.662  0.3483  0.3254 -0.4009
11651TIP3    H256369   2.611   3.145  15.527  0.0896  0.1751 -0.3359
11652TIP3   OH256370   0.113   3.666   3.510 -0.0456  0.2165 -0.4939
11652TIP3    H156371   0.135   3.745   3.560 -1.6342  1.0298 -1.0162
11652TIP3    H256372   0.020   3.675   3.491 -0.1570 -1.5854 -0.9564
11653TIP3   OH256373   0.130   0.064  16.187 -0.0769  0.3975 -0.1054
11653TIP3    H156374   0.036   0.079  16.181 -0.1342  0.7860  1.3493
11653TIP3    H256375   0.165   0.145  16.222  0.8709  0.4051 -1.0248
11654TIP3   OH256376   5.853   5.336  17.129  0.3297  0.0745 -0.0456
11654TIP3    H156377   5.794   5.286  17.186  0.1703  1.0744  0.7022
11654TIP3    H256378   5.930   5.280  17.120  0.1512 -0.3209  0.7520
11655TIP3   OH256379   6.614   6.699   5.410  0.0290  0.3971  0.4167
11655TIP3    H156380   6.551   6.647   5.360  0.5835 -0.8691  1.0059
11655TIP3    H256381   6.609   6.786   5.370 -3.5901  0.9868  1.7204
11656TIP3   OH256382   3.045   3.016   0.711  0.3478 -0.5787  0.2521
11656TIP3    H156383   3.042   2.958   0.786 -1.6814  0.3923  0.9931
11656TIP3    H256384   3.055   3.104   0.748  1.8237 -0.2515 -0.7721
11657TIP3   OH256385   0.416   6.024  14.579 -0.3599 -0.1964 -0.1756
11657TIP3    H156386   0.486   6.088  14.571  1.3799 -1.9381  0.3682
11657TIP3    H256387   0.435   5.957  14.514 -1.7784 -0.5076 -0.3185
11658TIP3   OH256388   0.702   5.724  14.203  0.3189  0.5318  0.5271
11658TIP3    H156389   0.621   5.674  14.212  1.1646 -1.1266 -0.4470
11658TIP3    H256390   0.677   5.801  14.153 -0.4966 -0.5223 -0.7768
11659TIP3   OH256391   0.267   3.144  16.701  0.1411  0.2924 -0.5213
11659TIP3    H156392   0.226   3.100  16.776  1.4476 -0.6068 -0.3081
11659TIP3    H256393   0.206   3.214  16.678 -1.1082 -0.5027  0.2890
11660TIP3   OH256394   6.251   1.534   1.267  0.2283 -0.2685 -0.5487
11660TIP3    H156395   6.343   1.534   1.243  0.2470  0.4951 -0.5097
11660TIP3    H256396   6.212   1.464   1.215  0.6109  0.1769 -1.4417
11661TIP3   OH256397   1.083   2.163  12.530 -0.0271 -0.0581 -0.4889
11661TIP3    H156398   1.178   2.176  12.522  0.1514 -0.4899  0.6815
11661TIP3    H256399   1.054   2.234  12.586 -0.1265 -0.8283  0.4521
11662TIP3   OH256400   2.402   2.077  15.133  0.2073  0.5009 -0.2316
11662TIP3    H156401   2.430   2.124  15.055 -0.4091  1.0738 -0.1157
11662TIP3    H256402   2.312   2.050  15.114  0.1002  0.5293  0.2251
11663TIP3   OH256403   6.030   2.334  16.296 -0.9126  0.1080  0.3677
11663TIP3    H156404   5.995   2.347  16.384  0.5604  0.8007  0.8873
11663TIP3    H256405   5.954   2.342  16.238 -1.4219  3.5926  1.2571
11664TIP3   OH256406   1.078   1.936   1.411  0.1812 -0.0441  0.7428
11664TIP3    H156407   1.069   2.029   1.431  1.4643  0.0214  1.0918
11664TIP3    H256408   0.989   1.901   1.420  0.1241  0.5655  3.6095
11665TIP3   OH256409   3.871   4.595   5.304  0.3092 -0.2093 -0.1628
11665TIP3    H156410   3.786   4.631   5.280  0.1561 -0.7227 -0.4058
11665TIP3    H256411   3.868   4.504   5.273  0.5426 -0.5480  0.7720
11666TIP3   OH256412   3.380   6.423  16.138 -0.3321 -0.3704  0.4630
11666TIP3    H156413   3.404   6.465  16.055  0.2996 -0.7843  0.4333
11666TIP3    H256414   3.333   6.490  16.186  2.8269  1.2988  1.5006
11667TIP3   OH256415   5.684   4.585   3.195 -0.1034 -0.2266  0.1079
11667TIP3    H156416   5.667   4.620   3.107  0.3756  0.3510  0.2401
11667TIP3    H256417   5.602   4.599   3.242 -0.6967 -1.4173 -0.5148
11668TIP3   OH256418   4.461   5.120  12.614 -0.5870  0.3563 -0.3441
11668TIP3    H156419   4.545   5.162  12.635  0.3982 -1.1547 -1.0784
11668TIP3    H256420   4.421   5.178  12.549  1.0385 -0.1007 -1.8311
11669TIP3   OH256421   5.376   6.384   2.332  0.3087 -0.1642 -0.1202
11669TIP3    H156422   5.315   6.378   2.406 -0.0954 -0.9430 -0.5121
11669TIP3    H256423   5.344   6.458   2.281  0.2032 -0.0311  0.1335
11670TIP3   OH256424   4.491   1.575   2.813 -0.6944 -0.4654 -0.6882
11670TIP3    H156425   4.573   1.552   2.769 -0.1635 -0.1280  0.1060
11670TIP3    H256426   4.518   1.620   2.893 -1.6736  1.1249 -1.1953
11671TIP3   OH256427   6.172   1.326   1.096  0.0945  0.0665  0.1309
11671TIP3    H156428   6.096   1.280   1.058  0.3918 -0.0019 -0.3876
11671TIP3    H256429   6.244   1.265   1.086  0.2980  0.2811  0.2874
11672TIP3   OH256430   6.473   6.059   4.064 -0.2783 -0.7696 -0.5364
11672TIP3    H156431   6.507   6.055   3.975 -2.2064 -1.1378 -1.3112
11672TIP3    H256432   6.441   5.971   4.082 -2.1837 -0.1113 -0.4715
11673TIP3   OH256433   1.317   3.958  17.399 -0.1238  0.2893  1.0247
11673TIP3    H156434   1.299   3.990  17.310  1.5847 -0.6945  0.2747
11673TIP3    H256435   1.356   4.033  17.444 -1.4352  0.9361  1.1209
11674TIP3   OH256436   6.358   0.653   0.395 -0.0719  0.1269  0.4738
11674TIP3    H156437   6.399   0.583   0.445  1.8797  0.2589 -0.8378
11674TIP3    H256438   6.414   0.730   0.411 -0.7240  0.7390 -0.1006
11675TIP3   OH256439   3.003   5.272   2.292  0.3666 -0.4600  0.8205
11675TIP3    H156440   3.000   5.365   2.316 -1.4185 -0.4784  0.7821
11675TIP3    H256441   3.075   5.266   2.230 -0.7576  1.3132 -0.7726
11676TIP3   OH256442   1.586   5.977   3.835  0.2664 -0.2575  0.6557
11676TIP3    H156443   1.567   6.015   3.921 -0.7924  2.2727 -0.5947
11676TIP3    H256444   1.501   5.973   3.791  0.6240 -2.4747  0.0295
11677TIP3   OH256445   2.510   5.259   1.358 -0.0268 -0.0668  0.2824
11677TIP3    H156446   2.567   5.283   1.431  1.5510 -1.6101 -0.3902
11677TIP3    H256447   2.430   5.310   1.373  0.8458  0.8454  2.2013
11678TIP3   OH256448   5.444   3.199   4.921 -0.4951 -0.1817  0.0516
11678TIP3    H156449   5.465   3.115   4.961  1.8923 -0.3088 -1.2978
11678TIP3    H256450   5.415   3.176   4.832 -1.2599  0.3470  0.1585
11679TIP3   OH256451   2.468   1.701   5.086  0.3614  0.0444 -0.0572
11679TIP3    H156452   2.430   1.702   5.174  0.9447  0.1043  0.2000
11679TIP3    H256453   2.392   1.704   5.027  0.0062  1.1956  0.4400
11680TIP3   OH256454   3.297   3.245   1.414  0.4232 -0.2536 -0.5510
11680TIP3    H156455   3.280   3.318   1.475  0.3563 -1.4642  0.9548
11680TIP3    H256456   3.270   3.278   1.329 -0.1675  1.2790  0.1871
11681TIP3   OH256457   4.483   0.818  10.616  0.1755  0.6774 -0.4525
11681TIP3    H156458   4.468   0.869  10.537 -1.6160 -1.4422 -1.5781
11681TIP3    H256459   4.479   0.727  10.588  0.3945 -0.1530  1.9345
11682TIP3   OH256460   3.726   2.947  15.107  0.0113 -0.1720  0.0342
11682TIP3    H156461   3.757   2.946  15.198 -0.4719 -1.6721  0.2057
11682TIP3    H256462   3.798   2.986  15.058  0.9308 -0.7908  0.8480
11683TIP3   OH256463   3.379   4.747   3.220 -0.3231 -0.6055  0.2999
11683TIP3    H156464   3.438   4.822   3.218  1.8369 -2.2224 -2.1082
11683TIP3    H256465   3.303   4.774   3.168  0.3213  0.0222 -0.3315
11684TIP3   OH256466   1.747   4.541   0.629  0.2246 -0.2863  0.4011
11684TIP3    H156467   1.732   4.542   0.724 -1.4197 -1.3858  0.2052
11684TIP3    H256468   1.667   4.503   0.593  1.7723 -2.2031 -1.2494
11685TIP3   OH256469   4.796   4.717  17.204 -0.0177  0.2050  0.2717
11685TIP3    H156470   4.736   4.738  17.275  0.8064 -0.4310  1.1720
11685TIP3    H256471   4.766   4.631  17.172  1.0378 -0.6224  1.4368
11686TIP3   OH256472   6.375   1.310  16.279 -0.1882 -0.4841 -0.1505
11686TIP3    H156473   6.435   1.239  16.302  1.3091  0.9825  0.6173
11686TIP3    H256474   6.420   1.358  16.209 -0.8770  0.1051 -0.1964
11687TIP3   OH256475   1.851   0.210   5.025  0.7720 -0.3882 -0.4367
11687TIP3    H156476   1.829   0.134   5.078  1.7185  0.5584  1.4062
11687TIP3    H256477   1.769   0.259   5.018  0.8985  0.1735  1.4185
11688TIP3   OH256478   1.618   4.567   1.717 -0.1980  0.1948 -0.0783
11688TIP3    H156479   1.676   4.596   1.647 -0.4500  0.2081 -0.2823
11688TIP3    H256480   1.584   4.483   1.687  1.8942 -1.2339  1.2750
11689TIP3   OH256481   5.357   2.194   0.082  0.9476  1.0509 -0.0634
11689TIP3    H156482   5.313   2.269   0.044  0.5335  0.3449 -1.0395
11689TIP3    H256483   5.436   2.230   0.123  1.5352  1.8476 -1.8030
11690TIP3   OH256484   1.827   2.481  11.343 -0.0955 -0.5876  0.2703
11690TIP3    H156485   1.802   2.571  11.360 -0.1759  0.1027 -2.9266
11690TIP3    H256486   1.750   2.429  11.368 -0.3297  0.2711  1.3936
11691TIP3   OH256487   0.428   3.028  16.032  0.1120 -0.1764 -0.2622
11691TIP3    H156488   0.485   2.977  16.090  0.0480  0.1404  0.0797
11691TIP3    H256489   0.482   3.103  16.005  0.5238 -0.8750 -1.4836
11692TIP3   OH256490   2.927   1.066   4.051 -0.2280  0.7475 -0.3062
11692TIP3    H156491   2.908   0.994   3.990 -3.6960 -0.3199  1.7201
11692TIP3    H256492   2.880   1.141   4.015 -1.4976  0.3646  0.4931
11693TIP3   OH256493   3.867   4.108   3.009  0.2202 -0.2554 -0.1524
11693TIP3    H156494   3.776   4.096   2.982 -0.6054  0.3228  2.0921
11693TIP3    H256495   3.917   4.103   2.928 -1.9460  0.7770 -1.6705
11694TIP3   OH256496   3.455   2.025   1.668 -0.0474  0.1019 -0.1593
11694TIP3    H156497   3.441   1.977   1.587 -0.0172 -0.4832  0.1724
11694TIP3    H256498   3.434   1.962   1.737  3.1867 -0.5780  0.3679
11695TIP3   OH256499   4.607   6.330  12.987  0.7445 -0.1558  0.2674
11695TIP3    H156500   4.571   6.418  12.997  0.4243 -0.3838  1.2511
11695TIP3    H256501   4.695   6.336  13.024  0.8375 -0.1782  0.0520
11696TIP3   OH256502   6.363   2.568  17.008  0.0890 -0.0876  0.0050
11696TIP3    H156503   6.432   2.507  16.979  1.0082  0.7402  0.4070
11696TIP3    H256504   6.281   2.526  16.980  0.7436 -1.1252 -0.4238
11697TIP3   OH256505   6.110   0.710   1.536 -0.4806 -0.2140  0.1248
11697TIP3    H156506   6.190   0.730   1.487 -1.1758 -0.4321 -1.1584
11697TIP3    H256507   6.064   0.794   1.541 -0.5460 -0.2509  0.1389
11698TIP3   OH256508   0.570   5.106   1.452  0.2036 -0.6033 -0.2118
11698TIP3    H156509   0.665   5.094   1.453  0.3440  0.4147  1.0446
11698TIP3    H256510   0.554   5.164   1.376  0.6144 -0.5638 -0.2712
11699TIP3   OH256511   2.173   0.356  11.835 -0.2212 -0.4472 -0.5648
11699TIP3    H156512   2.099   0.375  11.777 -0.8540  0.1892  0.4357
11699TIP3    H256513   2.156   0.268  11.868 -0.7674 -0.1353  0.0007
11700TIP3   OH256514   5.703   1.916   3.668 -0.5243  0.3819  0.4649
11700TIP3    H156515   5.702   1.871   3.753 -0.5709  1.5658  1.1146
11700TIP3    H256516   5.643   1.989   3.679 -0.3874  0.6575 -0.5375
11701TIP3   OH256517   4.752   0.929   0.527 -0.2920  0.2861  0.5966
11701TIP3    H156518   4.716   0.841   0.540  2.1834 -1.0617 -0.8524
11701TIP3    H256519   4.839   0.926   0.566 -0.6605  2.6189  1.7952
11702TIP3   OH256520   6.664   5.225   3.732 -0.2714 -0.2711 -0.1942
11702TIP3    H156521   6.677   5.319   3.725 -1.4526  0.0005  0.9617
11702TIP3    H256522   6.615   5.213   3.813 -2.0703 -1.6815 -1.4069
11703TIP3   OH256523   0.747   5.903   4.046  0.0449  0.1835  0.4563
11703TIP3    H156524   0.724   5.993   4.026  1.5466  0.6674  0.7230
11703TIP3    H256525   0.797   5.873   3.970  1.4729  0.3534  1.2916
11704TIP3   OH256526   5.975   6.142   2.359 -0.3399  0.5515 -0.3489
11704TIP3    H156527   5.905   6.095   2.405  0.7813  0.2183  1.0712
11704TIP3    H256528   6.047   6.080   2.355 -0.5484  0.3827 -3.0799
11705TIP3   OH256529   4.622   0.002   4.760  0.1659  0.6873  0.0383
11705TIP3    H156530   4.631  -0.092   4.747 -0.9974  0.7397 -1.4337
11705TIP3    H256531   4.624   0.039   4.671 -1.8282  1.7874  0.3899
11706TIP3   OH256532   2.584   5.396   3.072 -0.1419  0.0730  0.1846
11706TIP3    H156533   2.550   5.398   2.982 -0.3094 -0.7988  0.2166
11706TIP3    H256534   2.646   5.468   3.075 -1.2411  1.0791 -0.1773
11707TIP3   OH256535   0.973   2.697   3.738  0.2772  0.3022  0.2934
11707TIP3    H156536   0.892   2.739   3.768  0.6732  0.5020  1.0799
11707TIP3    H256537   0.953   2.671   3.647 -0.2931  1.3174  0.1128
11708TIP3   OH256538   2.363   1.307   1.824 -0.2078 -0.2985  0.5456
11708TIP3    H156539   2.274   1.342   1.824 -0.1534 -0.1015 -0.9359
11708TIP3    H256540   2.352   1.213   1.838 -0.5731 -0.1497  1.3111
11709TIP3   OH256541   6.466   3.232   2.735 -0.1872 -0.2405 -0.2848
11709TIP3    H156542   6.453   3.138   2.736 -2.0449 -0.0889 -2.4337
11709TIP3    H256543   6.494   3.254   2.824  1.3378 -2.9047 -0.0108
11710TIP3   OH256544   3.146   2.607   1.755 -0.5846 -0.8175 -0.1321
11710TIP3    H156545   3.240   2.609   1.738 -0.8375 -0.7286 -1.7201
11710TIP3    H256546   3.137   2.627   1.848  1.0073 -1.7510  0.2471
11711TIP3   OH256547   3.553   4.676   6.079  0.4945 -0.2545  0.2688
11711TIP3    H156548   3.567   4.660   5.986  2.2712 -0.1041  0.4639
11711TIP3    H256549   3.553   4.589   6.118 -1.8282 -0.4320 -0.0118
11712TIP3   OH256550   3.518   6.378   1.450  0.3636  0.2214 -0.3534
11712TIP3    H156551   3.503   6.388   1.544  1.5261 -1.6225  0.0917
11712TIP3    H256552   3.605   6.415   1.436 -0.5508  2.1951 -1.0953
11713TIP3   OH256553   0.311   4.615  16.632 -0.4105 -0.3187 -0.3943
11713TIP3    H156554   0.275   4.578  16.712  0.5743  0.6710  0.5409
11713TIP3    H256555   0.380   4.553  16.606  0.1505  0.0100  0.2691
11714TIP3   OH256556   4.822   2.910   1.428 -0.3402 -0.0857 -0.4959
11714TIP3    H156557   4.905   2.865   1.440 -0.4544 -0.1754 -0.0196
11714TIP3    H256558   4.831   2.991   1.478 -0.8568 -0.5049  0.2928
11715TIP3   OH256559   1.180   3.508  16.831  0.1842  0.3079  0.2564
11715TIP3    H156560   1.264   3.487  16.790  0.0045  1.5166 -0.7827
11715TIP3    H256561   1.119   3.516  16.758 -0.5573  0.6675  0.9051
11716TIP3   OH256562   3.056   5.360  13.467  0.2108 -0.0589  0.5261
11716TIP3    H156563   3.067   5.390  13.557 -1.8895  0.9220  0.5192
11716TIP3    H256564   2.990   5.291  13.472 -1.9704  1.8304 -0.4936
11717TIP3   OH256565   0.905   4.665   2.893  0.4334 -0.0367 -0.1580
11717TIP3    H156566   0.870   4.694   2.808  0.1706  0.6235  0.1660
11717TIP3    H256567   0.903   4.570   2.888  2.2145 -0.0495 -1.6247
11718TIP3   OH256568   4.192   5.470   6.387  0.1109  0.9062 -0.8222
11718TIP3    H156569   4.243   5.537   6.433  0.6784 -0.3722  0.4934
11718TIP3    H256570   4.105   5.475   6.426  0.0601  1.0895 -0.9573
11719TIP3   OH256571   5.754   2.606  17.317 -0.4174  0.0385 -0.5130
11719TIP3    H156572   5.821   2.646  17.374  0.4796  0.5287 -1.8700
11719TIP3    H256573   5.671   2.638  17.352  0.1092  0.3874  0.4758
11720TIP3   OH256574   6.107   2.394  15.485 -0.1662  0.5564 -0.2259
11720TIP3    H156575   6.032   2.341  15.513  0.1017  0.7664  0.9508
11720TIP3    H256576   6.165   2.333  15.440 -0.5110  0.1447 -0.1208
11721TIP3   OH256577   4.725   5.559   2.819  0.5328  0.1642  0.3500
11721TIP3    H156578   4.636   5.529   2.803  0.6994 -0.6802  0.9654
11721TIP3    H256579   4.720   5.655   2.812 -0.3584  0.1028  0.1160
11722TIP3   OH256580   3.553   1.620  15.276  0.0048 -0.1337 -0.3342
11722TIP3    H156581   3.460   1.620  15.253 -0.3737  2.9258  0.7132
11722TIP3    H256582   3.571   1.711  15.302  3.7820 -0.0595 -2.4225
11723TIP3   OH256583   2.791   1.381  14.155 -0.4010 -0.4587  0.4821
11723TIP3    H156584   2.880   1.413  14.143 -1.0744  0.9223 -1.4526
11723TIP3    H256585   2.766   1.412  14.242  0.6853 -0.0697  0.6746
11724TIP3   OH256586   1.908   4.798   0.087 -0.2559  0.2895 -0.4307
11724TIP3    H156587   1.897   4.887   0.117 -0.6044  0.5317 -1.2453
11724TIP3    H256588   1.992   4.769   0.125  0.5892  1.4621 -1.3292
11725TIP3   OH256589   2.164   1.040   3.305  0.1966  0.2340  0.5233
11725TIP3    H156590   2.191   0.948   3.301  2.0454  0.7922 -0.6692
11725TIP3    H256591   2.071   1.037   3.282  0.2836 -1.3109  0.2079
11726TIP3   OH256592   0.652   3.271   0.068 -0.2843  0.6316 -0.4764
11726TIP3    H156593   0.683   3.270  -0.022  0.6029  1.4727 -0.2050
11726TIP3    H256594   0.644   3.364   0.090 -0.1821  0.4438  0.4075
11727TIP3   OH256595   6.314   0.049  13.156 -0.1725 -0.0073 -0.0803
11727TIP3    H156596   6.326   0.128  13.209  2.4491  0.1040 -0.7156
11727TIP3    H256597   6.300  -0.020  13.220  0.0288  0.5687  0.6016
11728TIP3   OH256598   6.625   1.927   5.534 -0.1098 -0.2996 -0.4309
11728TIP3    H156599   6.659   2.011   5.501 -2.9683  1.0464 -0.2660
11728TIP3    H256600   6.640   1.931   5.628  0.4990 -0.3792 -0.5156
11729TIP3   OH256601   4.282   2.484  13.135  0.0321  0.0005  0.1212
11729TIP3    H156602   4.246   2.572  13.123  0.3018  0.1874  0.6771
11729TIP3    H256603   4.332   2.468  13.055  1.1053  0.8894  0.5922
11730TIP3   OH256604   3.207   2.739   0.916  0.0848  0.8006  0.4411
11730TIP3    H156605   3.277   2.800   0.894  1.6997 -1.1794 -0.3182
11730TIP3    H256606   3.129   2.793   0.922  1.5971  3.0891  1.0312
11731TIP3   OH256607   2.505   0.875   4.761 -0.2345  0.3686 -0.5310
11731TIP3    H156608   2.451   0.813   4.712  0.8441  0.0202 -1.3155
11731TIP3    H256609   2.519   0.948   4.701  0.4864  0.2713 -0.4978
11732TIP3   OH256610   5.240   4.794   0.579  0.1674  0.4407  0.1915
11732TIP3    H156611   5.227   4.704   0.610  0.0121  0.1526 -0.6715
11732TIP3    H256612   5.295   4.835   0.646  0.7971 -0.4996  0.2655
11733TIP3   OH256613   6.381   2.743  16.791  0.3021 -0.0160  0.0900
11733TIP3    H156614   6.368   2.698  16.875  0.4451  0.4403  0.3596
11733TIP3    H256615   6.293   2.754  16.756  0.2694 -0.5648 -0.0117
11734TIP3   OH256616   5.855   1.819  11.901 -0.3000  0.5732 -0.1380
11734TIP3    H156617   5.865   1.724  11.907  1.9480  0.6870 -0.9688
11734TIP3    H256618   5.795   1.831  11.827  1.2690 -0.2262 -1.6227
11735TIP3   OH256619   5.803   2.902   0.709 -0.2515  0.5006 -0.4633
11735TIP3    H156620   5.839   2.817   0.734 -0.8598  0.4704  0.3540
11735TIP3    H256621   5.744   2.883   0.637  1.4550  0.5727 -1.9320
11736TIP3   OH256622   6.431   2.360   5.513 -0.2411  0.2388 -0.1526
11736TIP3    H156623   6.442   2.268   5.540 -2.3997 -0.1354 -0.3559
11736TIP3    H256624   6.486   2.369   5.435 -0.7392 -1.1766 -0.6991
11737TIP3   OH256625   5.278   0.301  14.036 -0.3645  0.5592 -0.3216
11737TIP3    H156626   5.367   0.335  14.038 -1.0034  2.3050 -0.1658
11737TIP3    H256627   5.282   0.225  13.977  1.0252  1.1805 -1.0594
11738TIP3   OH256628   2.147   3.360   1.843 -0.0555  0.6243  0.7997
11738TIP3    H156629   2.211   3.290   1.856  1.1440  1.4172 -0.5160
11738TIP3    H256630   2.155   3.383   1.750 -4.1176 -0.9968 -0.2027
11739TIP3   OH256631   4.571   6.637   0.015  0.9510  0.5246  0.2066
11739TIP3    H156632   4.607   6.726   0.018  0.1488  0.8670 -0.0646
11739TIP3    H256633   4.498   6.643  -0.046  0.2188 -0.0810  1.0003
11740TIP3   OH256634   0.673   0.191  15.214  0.3515 -0.0443  0.2651
11740TIP3    H156635   0.759   0.168  15.179 -0.1433 -0.3206 -0.8171
11740TIP3    H256636   0.685   0.277  15.254  0.9129  0.3551 -0.7369
11741TIP3   OH256637   1.901   5.901   4.134 -0.0051 -0.1319  0.3738
11741TIP3    H156638   1.853   5.980   4.159 -0.3467  0.3275 -1.5891
11741TIP3    H256639   1.963   5.931   4.067  0.0438 -1.4795 -0.2039
11742TIP3   OH256640   3.691   5.739   6.869  0.5754  0.2894 -0.4012
11742TIP3    H156641   3.747   5.668   6.838  0.0348  0.1757 -1.1359
11742TIP3    H256642   3.687   5.727   6.964 -0.9086 -1.7168 -0.6513
11743TIP3   OH256643   1.584   1.016  12.724  0.4003  0.8185  0.1348
11743TIP3    H156644   1.567   0.969  12.806 -0.8785  0.6085 -0.2268
11743TIP3    H256645   1.614   0.949  12.663 -1.5560  0.3859 -0.4211
11744TIP3   OH256646   6.640   4.988   3.283  0.4944  0.2044  0.1243
11744TIP3    H156647   6.597   5.074   3.283 -1.0135 -0.5178  0.9603
11744TIP3    H256648   6.611   4.948   3.201 -1.2187 -0.6242  1.0878
11745TIP3   OH256649   0.848   3.361   3.554  0.7829  0.0898  0.7941
11745TIP3    H156650   0.891   3.442   3.526 -0.7522  0.7363  0.1864
11745TIP3    H256651   0.823   3.318   3.472 -0.1313 -0.0369  1.1378
11746TIP3   OH256652   2.979   2.644  13.657 -0.6558 -0.0465 -0.4784
11746TIP3    H156653   3.057   2.700  13.653 -0.8255  0.5617  2.4393
11746TIP3    H256654   2.968   2.613  13.567  3.1356 -0.4771 -0.9924
11747TIP3   OH256655   0.267   4.116  16.339  0.1271 -0.0562 -0.3125
11747TIP3    H156656   0.323   4.193  16.351 -1.1345  0.7831  0.5080
11747TIP3    H256657   0.298   4.075  16.258  1.8569  0.4013  0.0885
11748TIP3   OH256658   4.285   5.224   4.022  0.1137  0.4519 -0.2661
11748TIP3    H156659   4.323   5.138   4.041 -0.6097  0.0487 -0.6377
11748TIP3    H256660   4.246   5.215   3.935  0.3935  1.2794 -0.4814
11749TIP3   OH256661   2.515   0.714  11.102 -0.1069 -0.2443 -0.2309
11749TIP3    H156662   2.563   0.638  11.069  0.1174  0.2682 -1.1164
11749TIP3    H256663   2.424   0.697  11.077  0.3913  1.4154 -3.7840
11750TIP3   OH256664   1.379   2.553  13.676 -0.1869  0.4002  0.2383
11750TIP3    H156665   1.410   2.637  13.642  1.3765 -0.9441 -1.9255
11750TIP3    H256666   1.424   2.542  13.759 -0.4539  1.6931  0.5777
11751TIP3   OH256667   2.049   4.954   2.397 -0.5173 -0.0238  0.3250
11751TIP3    H156668   2.078   4.899   2.470  1.8705  0.1928 -0.3665
11751TIP3    H256669   2.058   5.043   2.429 -0.8110  0.0433  0.2230
11752TIP3   OH256670   2.192   0.275   3.951 -0.2230 -0.0391  0.0090
11752TIP3    H156671   2.123   0.329   3.911 -1.1831  0.7662  2.5681
11752TIP3    H256672   2.264   0.337   3.966  0.2109 -0.3831 -0.6108
11753TIP3   OH256673   5.382   6.349  16.930 -0.2847 -0.2979 -0.0761
11753TIP3    H156674   5.309   6.382  16.982  1.0403  1.3091  0.8554
11753TIP3    H256675   5.436   6.301  16.993 -0.7405 -1.8823 -0.8503
11754TIP3   OH256676   3.203   0.359  16.060 -0.1193  0.8366  0.3722
11754TIP3    H156677   3.130   0.335  16.117 -0.4939  0.3390 -0.2971
11754TIP3    H256678   3.227   0.278  16.016 -0.3966  1.3553 -0.7993
11755TIP3   OH256679   5.907   0.631  16.179  0.3136 -0.4210 -0.5132
11755TIP3    H156680   5.863   0.583  16.249 -0.2449  1.6046  0.6150
11755TIP3    H256681   5.862   0.605  16.099 -0.9755 -0.6081  0.2567
11756TIP3   OH256682   6.220   1.058  14.128  0.2410  0.0061  0.3010
11756TIP3    H156683   6.206   1.145  14.089  2.6244 -1.0462 -3.4254
11756TIP3    H256684   6.157   1.001  14.083  1.9984 -0.9772 -1.0324
11757TIP3   OH256685   1.488   1.658   0.426 -1.2529 -0.7643  0.1540
11757TIP3    H156686   1.557   1.594   0.447 -1.1028 -0.9218 -0.7775
11757TIP3    H256687   1.428   1.610   0.369 -2.4325 -0.7883  1.3808
11758TIP3   OH256688   6.183   3.659  14.860 -0.1704  1.0327 -0.3279
11758TIP3    H156689   6.163   3.749  14.885 -0.6756  0.5303  1.1630
11758TIP3    H256690   6.111   3.607  14.896 -0.2100  0.0832 -1.6863
11759TIP3   OH256691   2.039   0.032  16.869 -0.2444 -0.1297 -0.1174
11759TIP3    H156692   2.039  -0.016  16.953  0.9648 -0.7517 -0.4464
11759TIP3    H256693   2.125   0.074  16.866 -1.0159  1.5216 -0.1771
11760TIP3   OH256694   3.549   0.060  17.079 -0.2494 -0.1270 -0.0858
11760TIP3    H156695   3.530   0.147  17.114 -0.4062 -0.9782  2.1331
11760TIP3    H256696   3.464   0.026  17.052 -0.7748 -0.7664  2.1088
11761TIP3   OH256697   4.462   0.153   1.274  0.1008 -0.2391 -0.0303
11761TIP3    H156698   4.379   0.201   1.268 -0.7542 -1.6541  0.1544
11761TIP3    H256699   4.458   0.108   1.358  1.3043  0.0908  0.2205
11762TIP3   OH256700   5.537   5.133  11.027  0.6668  0.1019 -0.5215
11762TIP3    H156701   5.483   5.202  10.988 -1.1595 -1.0382 -0.1167
11762TIP3    H256702   5.528   5.059  10.967 -0.0301 -0.8118  0.6801
11763TIP3   OH256703   2.870   0.757   2.727 -0.1380  0.0100 -0.4554
11763TIP3    H156704   2.854   0.847   2.755  0.8640  0.7285 -2.0283
11763TIP3    H256705   2.934   0.723   2.790  1.0856  1.1342 -1.0437
11764TIP3   OH256706   2.857   2.762  16.070 -0.2375  0.3355  0.2796
11764TIP3    H156707   2.926   2.700  16.046 -0.4362 -0.4214  1.5329
11764TIP3    H256708   2.901   2.827  16.124 -0.5889 -0.5715  1.7283
11765TIP3   OH256709   4.160   0.226  15.288  0.0599 -0.3977 -0.2827
11765TIP3    H156710   4.128   0.138  15.307 -0.5394  0.3431  2.6887
11765TIP3    H256711   4.081   0.277  15.267  0.2413 -0.2578 -0.6382
11766TIP3   OH256712   2.334   4.994   0.651 -0.4218 -0.4391 -0.0347
11766TIP3    H156713   2.270   5.040   0.706  1.0414  0.5477  0.8975
11766TIP3    H256714   2.366   4.923   0.706  0.0114 -0.3238 -0.1372
11767TIP3   OH256715   1.046   5.725   3.172  0.5393 -0.4491 -0.4852
11767TIP3    H156716   1.031   5.673   3.093  0.0478 -1.6253  0.3608
11767TIP3    H256717   0.971   5.707   3.228  0.2245  1.3859 -0.2545
11768TIP3   OH256718   0.799   3.280  12.721 -0.4183  0.3497  0.2545
11768TIP3    H156719   0.871   3.278  12.658 -0.7378 -0.2049 -0.1062
11768TIP3    H256720   0.833   3.329  12.796  0.6323 -0.6296  0.4439
11769TIP3   OH256721   5.725   4.141   0.478  0.6513  0.4437 -0.4088
11769TIP3    H156722   5.802   4.163   0.425  0.3909  1.7689 -0.2718
11769TIP3    H256723   5.678   4.224   0.486 -0.3672 -0.1837  0.1981
11770TIP3   OH256724   1.731   4.583  13.862 -0.1755  0.0108  0.0684
11770TIP3    H156725   1.710   4.676  13.873  3.2005  1.0270 -0.7917
11770TIP3    H256726   1.719   4.567  13.769  2.0630  0.4908 -0.3530
11771TIP3   OH256727   4.177   4.267   5.382  0.5901 -0.4284 -0.0224
11771TIP3    H156728   4.138   4.236   5.463 -0.7756 -3.2823 -1.6087
11771TIP3    H256729   4.155   4.360   5.379 -0.0904 -0.4531  2.4094
11772TIP3   OH256730   5.613   0.298  14.413  0.3156 -0.5616 -0.5883
11772TIP3    H156731   5.582   0.365  14.353  0.6862 -0.2639 -0.4508
11772TIP3    H256732   5.533   0.255  14.444  0.1589 -1.2315 -1.8744
11773TIP3   OH256733   0.870   1.831  11.883  0.1759  0.9347  0.1123
11773TIP3    H156734   0.943   1.769  11.893  0.7600  1.8328  1.8797
11773TIP3    H256735   0.869   1.851  11.790  1.1914 -0.2740 -0.1994
11774TIP3   OH256736   4.569   5.473   2.209 -0.3559 -0.3796  0.1822
11774TIP3    H156737   4.654   5.439   2.237  0.1997  0.9163  0.1613
11774TIP3    H256738   4.571   5.565   2.234 -1.5828 -0.2283 -0.2227
11775TIP3   OH256739   0.252   0.665  13.579 -0.6810  0.1308  0.1370
11775TIP3    H156740   0.189   0.598  13.553 -0.2635  0.7056 -2.7361
11775TIP3    H256741   0.329   0.648  13.525 -0.5082  2.7879 -0.6011
11776TIP3   OH256742   2.940   2.075   5.071  0.1939  0.8974  0.1911
11776TIP3    H156743   2.945   2.000   5.012 -0.5029 -0.0382  1.2919
11776TIP3    H256744   3.025   2.076   5.115  0.8961  1.8796 -1.1159
11777TIP3   OH256745   4.435   3.791  12.265 -0.4203  0.0652  0.5332
11777TIP3    H156746   4.383   3.833  12.334 -2.1448  0.0111 -0.6592
11777TIP3    H256747   4.392   3.707  12.250 -0.4068  0.2969 -0.9471
11778TIP3   OH256748   1.111   6.464   4.159  0.1253 -0.1547  0.3887
11778TIP3    H156749   1.198   6.473   4.198  1.5863 -2.2995 -2.0443
11778TIP3    H256750   1.057   6.424   4.228  2.1620 -2.3785  0.8086
11779TIP3   OH256751   0.047   0.758  12.364 -0.0068 -0.4373 -0.0424
11779TIP3    H156752  -0.032   0.791  12.321 -0.1542 -0.3143  0.3148
11779TIP3    H256753   0.091   0.837  12.397 -0.7952 -0.6135  1.5651
11780TIP3   OH256754   2.404   0.025   3.576  0.2533 -0.1282 -0.4972
11780TIP3    H156755   2.316  -0.006   3.599  0.4079 -0.9630 -0.9924
11780TIP3    H256756   2.391   0.074   3.494  0.1643  0.2760 -0.2461
11781TIP3   OH256757   4.435   1.054  16.001 -0.1125  0.1233 -0.0066
11781TIP3    H156758   4.428   0.958  16.002  0.5868  0.0474  1.7309
11781TIP3    H256759   4.440   1.076  15.908 -0.8631 -1.4690 -0.4747
11782TIP3   OH256760   3.281   3.768  16.665 -0.5929 -0.2129 -0.7113
11782TIP3    H156761   3.342   3.840  16.679 -0.5706 -0.5821  1.5070
11782TIP3    H256762   3.201   3.795  16.710 -1.0672 -0.9524 -1.0891
11783TIP3   OH256763   6.631   3.102  11.274  0.0479  0.6492  0.0641
11783TIP3    H156764   6.638   3.023  11.219 -1.4972  1.2279 -1.0237
11783TIP3    H256765   6.653   3.174  11.214  2.2413  1.0600  1.2390
11784TIP3   OH256766   0.165   3.050   3.572 -0.3855  0.3785 -0.0541
11784TIP3    H156767   0.092   3.089   3.621 -1.1569 -0.0106 -0.8758
11784TIP3    H256768   0.162   3.092   3.486  0.0190 -0.0499 -0.2822
11785TIP3   OH256769   6.185   5.890  15.352  0.2953 -0.7390 -0.0027
11785TIP3    H156770   6.143   5.859  15.433 -2.0159  2.2778  0.1673
11785TIP3    H256771   6.144   5.839  15.283 -1.2779 -0.1793  0.4562
11786TIP3   OH256772   2.553   1.599   3.281 -0.5119  0.0137 -0.7021
11786TIP3    H156773   2.643   1.615   3.251  0.2601 -4.0629 -1.0920
11786TIP3    H256774   2.501   1.664   3.235  1.9051  0.7446 -2.6387
11787TIP3   OH256775   5.079   4.418  11.321  0.2549  0.3643  0.2402
11787TIP3    H156776   5.006   4.448  11.266  0.2012  1.0453  0.6661
11787TIP3    H256777   5.051   4.333  11.354 -0.6784  0.9408  0.9860
11788TIP3   OH256778   1.964   4.413  15.991  0.0468 -0.2558  0.1227
11788TIP3    H156779   1.977   4.318  15.999  1.5929 -0.0114  1.0886
11788TIP3    H256780   1.994   4.448  16.075 -0.6757  1.0820 -0.1537
11789TIP3   OH256781   5.027   5.080   1.627  0.1310 -0.1358  0.0324
11789TIP3    H156782   5.104   5.032   1.658  0.6179 -0.1964 -1.2135
11789TIP3    H256783   4.993   5.124   1.705  1.7784  0.3929  0.4864
11790TIP3   OH256784   0.894   4.179   4.140 -0.6845 -0.2566 -0.6775
11790TIP3    H156785   0.970   4.170   4.197 -1.1285  0.0488 -0.0306
11790TIP3    H256786   0.926   4.229   4.065  0.4071 -2.3097 -1.6686
11791TIP3   OH256787   6.746   5.107   2.681 -0.7079 -0.1787 -0.2958
11791TIP3    H156788   6.746   5.099   2.585 -0.8420  2.7465 -0.6365
11791TIP3    H256789   6.654   5.112   2.705 -0.6619 -0.3984 -0.0716
11792TIP3   OH256790   1.441   5.308   6.623  0.7644  0.6054 -0.2729
11792TIP3    H156791   1.514   5.296   6.563  0.4405  1.3813 -0.8317
11792TIP3    H256792   1.444   5.231   6.680 -0.0377 -1.1419 -2.4396
11793TIP3   OH256793   5.646   5.962   0.120  0.3574  0.4004 -0.4615
11793TIP3    H156794   5.669   5.918   0.038  1.7364  2.0996 -1.0616
11793TIP3    H256795   5.635   5.891   0.183  0.3243 -0.8942 -1.8678
11794TIP3   OH256796   0.777   3.466  11.037 -0.3460 -0.2307 -0.6125
11794TIP3    H156797   0.723   3.532  10.994  0.0746 -0.0256 -0.8310
11794TIP3    H256798   0.832   3.431  10.967 -0.2035 -0.4465 -0.3930
11795TIP3   OH256799   0.988   3.645  15.575 -0.7178 -0.3538 -0.0496
11795TIP3    H156800   1.014   3.618  15.663  0.8381 -0.0939 -0.3926
11795TIP3    H256801   0.964   3.564  15.531  1.4183 -0.9309 -0.2768
11796TIP3   OH256802   2.817   6.448   3.580  0.2772 -0.2296 -0.0410
11796TIP3    H156803   2.905   6.433   3.545 -0.2504 -1.1993 -1.0000
11796TIP3    H256804   2.832   6.474   3.671  1.5659 -0.0258 -0.2806
11797TIP3   OH256805   0.506   6.711   3.459  0.2678  0.9970  0.3267
11797TIP3    H156806   0.592   6.683   3.490 -0.0258 -0.1972  0.0916
11797TIP3    H256807   0.448   6.697   3.534 -0.2072 -0.7134 -0.3229
11798TIP3   OH256808   3.060   4.445   5.742  0.1841 -0.4492 -0.4392
11798TIP3    H156809   3.081   4.407   5.828 -0.6123 -1.5761 -0.7219
11798TIP3    H256810   2.972   4.413   5.723 -0.3974  1.2925 -0.8643
11799TIP3   OH256811   4.623   4.199  14.337 -0.3679 -0.8283 -0.2546
11799TIP3    H156812   4.561   4.128  14.354 -0.0633 -1.1148 -0.3306
11799TIP3    H256813   4.612   4.218  14.244  0.1099 -1.3190 -0.4188
11800TIP3   OH256814   1.569   0.165  16.539  0.2298 -0.1441 -0.1522
11800TIP3    H156815   1.551   0.239  16.481  0.7481  0.1948  0.1158
11800TIP3    H256816   1.509   0.178  16.613  1.3938  0.8800  0.6473
11801TIP3   OH256817   5.061   4.437  11.617  0.5507  0.2213 -0.0226
11801TIP3    H156818   5.046   4.393  11.533  2.2140  0.7393 -0.6351
11801TIP3    H256819   5.057   4.367  11.682 -0.3832 -0.2456 -0.5720
11802TIP3   OH256820   2.308   5.624  16.346 -0.3535 -0.1189  0.0176
11802TIP3    H156821   2.268   5.540  16.324 -0.3143 -0.2092  0.2873
11802TIP3    H256822   2.239   5.688  16.329 -0.4335 -0.2197 -0.0421
11803TIP3   OH256823   5.053   1.644   5.711 -0.0490 -0.2302  0.0093
11803TIP3    H156824   5.112   1.611   5.779  0.4701  1.0291  0.2046
11803TIP3    H256825   5.063   1.583   5.638  0.3832 -0.8542  0.5794
11804TIP3   OH256826   4.041   6.735  10.462  0.5177 -0.3649  0.5088
11804TIP3    H156827   4.093   6.814  10.471  0.0835  0.2551 -1.8125
11804TIP3    H256828   4.104   6.668  10.435  0.3742  0.0584 -0.9518
11805TIP3   OH256829   3.952   5.377   3.805 -0.1042 -0.0867  0.1988
11805TIP3    H156830   3.914   5.381   3.717 -0.6781  0.2743  0.4594
11805TIP3    H256831   3.901   5.309   3.850  0.4585 -0.5646  0.1361
11806TIP3   OH256832   1.792   0.828   5.075 -0.0078 -0.3121  0.0371
11806TIP3    H156833   1.777   0.810   4.983  0.6238  0.4031 -0.2161
11806TIP3    H256834   1.886   0.847   5.081 -0.1224  0.0846  0.7534
11807TIP3   OH256835   5.819   3.067   0.957  0.4247  0.0145  0.0547
11807TIP3    H156836   5.727   3.093   0.952  0.1164 -0.9089  0.5794
11807TIP3    H256837   5.828   2.999   0.890  0.6678 -0.0398  0.1404
11808TIP3   OH256838   3.684   0.011  15.257 -0.3921 -0.0431 -0.7694
11808TIP3    H156839   3.637  -0.032  15.186  0.1562  0.1524 -1.2505
11808TIP3    H256840   3.637  -0.017  15.336  0.5880 -2.4637 -0.9398
11809TIP3   OH256841   6.020   4.262   6.276 -0.1596  0.2741 -0.7449
11809TIP3    H156842   6.078   4.316   6.330  0.5205  0.3045 -1.4849
11809TIP3    H256843   5.943   4.247   6.330  0.4295  0.4579  0.1577
11810TIP3   OH256844   4.896   6.359   0.794 -0.8501 -0.6687  0.1960
11810TIP3    H156845   4.962   6.311   0.745 -1.4982 -1.6635  0.2681
11810TIP3    H256846   4.900   6.322   0.882 -0.7811  0.0040  0.4809
11811TIP3   OH256847   4.100   3.399  11.192  0.5710 -0.3472 -0.5210
11811TIP3    H156848   4.028   3.342  11.167  0.6795 -0.4641 -0.5648
11811TIP3    H256849   4.137   3.428  11.108  0.8056 -0.5764 -0.4955
11812TIP3   OH256850   4.380   1.582  12.323 -0.3107  0.1248 -0.1757
11812TIP3    H156851   4.346   1.513  12.380 -0.3084  0.1475 -0.1468
11812TIP3    H256852   4.357   1.663  12.368  2.6218  0.1456  1.5197
11813TIP3   OH256853   6.419   3.478  16.578  0.2154  0.3578 -0.0798
11813TIP3    H156854   6.344   3.500  16.634  0.0439 -1.2521  0.3710
11813TIP3    H256855   6.380   3.442  16.498  0.4868 -0.2218  0.0422
11814TIP3   OH256856   6.427   4.894   1.161  0.1346  0.4061 -0.5221
11814TIP3    H156857   6.336   4.868   1.170  0.1427  0.6610  0.3427
11814TIP3    H256858   6.451   4.928   1.246  1.7537 -1.8723  0.0352
11815TIP3   OH256859   0.014   1.912  14.083  0.2636 -0.2195  0.1363
11815TIP3    H156860   0.037   1.906  13.990 -0.6388 -0.9781 -0.0553
11815TIP3    H256861  -0.018   1.825  14.106  0.3650 -0.0122  1.1350
11816TIP3   OH256862   4.342   1.640   4.168 -0.8921 -0.1616 -0.0081
11816TIP3    H156863   4.304   1.641   4.256 -1.4720  1.6288 -0.2407
11816TIP3    H256864   4.274   1.603   4.112 -0.1257 -2.3573  0.4001
11817TIP3   OH256865   5.361   2.112   2.529 -0.1392 -0.7478  0.4258
11817TIP3    H156866   5.324   2.026   2.510 -0.3651 -0.4894 -0.3243
11817TIP3    H256867   5.437   2.119   2.471  0.0181 -0.5343  0.6548
11818TIP3   OH256868   3.760   5.823   5.385 -0.0261  0.4656  0.2746
11818TIP3    H156869   3.854   5.808   5.400 -0.2453 -3.6518 -1.0174
11818TIP3    H256870   3.717   5.779   5.458 -0.9593  1.1917  0.1675
11819TIP3   OH256871   3.982   5.524   1.343  0.0595  0.0397 -0.1343
11819TIP3    H156872   3.952   5.449   1.292  1.2304 -0.5994  0.0853
11819TIP3    H256873   4.064   5.551   1.300 -0.8909  1.9152 -0.8990
11820TIP3   OH256874   5.074   2.119   0.118  0.5084  0.3847  0.3480
11820TIP3    H156875   5.075   2.187   0.051 -1.2045 -0.5959 -0.7718
11820TIP3    H256876   4.986   2.081   0.112  1.0936 -1.3029  1.5593
11821TIP3   OH256877   3.754   3.992   2.170 -0.0967 -0.2221  0.0098
11821TIP3    H156878   3.669   3.986   2.127 -0.9727  0.4305  1.5792
11821TIP3    H256879   3.812   3.937   2.116 -1.6328 -1.1820 -0.7361
11822TIP3   OH256880   0.250   0.227  13.402 -0.4077  0.3201 -0.2317
11822TIP3    H156881   0.342   0.254  13.404 -0.0398 -0.8631  0.2601
11822TIP3    H256882   0.243   0.173  13.323 -0.4236 -0.3582  0.2202
11823TIP3   OH256883   3.155   0.693  12.616 -0.3969 -0.1925 -0.0088
11823TIP3    H156884   3.113   0.607  12.625  2.4754 -1.5729  1.5709
11823TIP3    H256885   3.139   0.736  12.700 -3.1186  1.6238 -1.2938
11824TIP3   OH256886   4.910   3.688   3.387 -0.8302 -0.1043 -0.2043
11824TIP3    H156887   4.854   3.708   3.312 -0.8510  0.0794 -0.1418
11824TIP3    H256888   4.926   3.594   3.382  1.3973  0.2888 -2.0088
11825TIP3   OH256889   0.192   1.996  11.651  0.2446 -0.5017  0.2585
11825TIP3    H156890   0.119   2.058  11.649  1.1311  0.5538 -0.0748
11825TIP3    H256891   0.187   1.951  11.567  0.1919 -0.1728  0.0805
11826TIP3   OH256892   4.297   2.024   3.260 -0.0515  0.1476 -0.3118
11826TIP3    H156893   4.390   2.013   3.281  0.3876  2.2012 -0.9390
11826TIP3    H256894   4.291   2.007   3.166 -0.4795 -0.8500 -0.1077
11827TIP3   OH256895   6.265   5.760  16.810  0.8041 -0.0441  0.1759
11827TIP3    H156896   6.304   5.742  16.896  0.1467 -1.0965  0.2818
11827TIP3    H256897   6.257   5.673  16.770  1.4616  0.4787 -1.1155
11828TIP3   OH256898   6.333   2.301  17.352 -0.1494  0.3579 -0.1119
11828TIP3    H156899   6.369   2.390  17.352 -0.2921  0.4234  1.1938
11828TIP3    H256900   6.358   2.266  17.266  1.8005  0.8844  0.2027
11829TIP3   OH256901   6.487   3.162   2.471  0.2985  0.6766  0.5436
11829TIP3    H156902   6.457   3.225   2.405  1.1281 -0.9633 -1.4990
11829TIP3    H256903   6.453   3.196   2.553 -1.1145  2.6225 -0.7520
11830TIP3   OH256904   6.539   1.818  16.024  0.4409 -0.3228 -0.1513
11830TIP3    H156905   6.509   1.805  15.933  0.7695  0.5573 -0.3886
11830TIP3    H256906   6.626   1.857  16.015  0.7646 -0.8742  0.5491
11831TIP3   OH256907   1.447   6.323   5.671 -0.5366 -0.1626  0.3107
11831TIP3    H156908   1.472   6.277   5.591  0.8364  1.3284 -0.1591
11831TIP3    H256909   1.526   6.323   5.725 -1.2068 -0.4111  1.3157
11832TIP3   OH256910   1.245   5.109   5.696 -0.5161 -0.1930  0.1279
11832TIP3    H156911   1.312   5.176   5.713 -1.3206  0.9128 -0.9031
11832TIP3    H256912   1.224   5.074   5.783 -0.3560  1.1852  0.7479
11833TIP3   OH256913   4.330   2.614   3.160  0.1366  0.2675  0.1583
11833TIP3    H156914   4.300   2.559   3.089 -1.3148  0.0852  0.8810
11833TIP3    H256915   4.254   2.624   3.218  0.2466  3.1579 -0.0128
11834TIP3   OH256916   4.632   4.829  12.573  0.6823  0.1442  0.1373
11834TIP3    H156917   4.655   4.900  12.513  0.5321 -0.5181 -0.7293
11834TIP3    H256918   4.539   4.841  12.590  0.5046 -0.1878 -0.5204
11835TIP3   OH256919   1.417   4.803   0.614  0.1872 -0.0467  0.0705
11835TIP3    H156920   1.394   4.711   0.620 -1.8811  0.4674  0.7994
11835TIP3    H256921   1.370   4.835   0.537 -0.5051  0.7627  0.8145
11836TIP3   OH256922   5.529   5.883  15.674  0.1773  0.6295 -0.2143
11836TIP3    H156923   5.575   5.825  15.734  0.8674  0.8031 -0.5696
11836TIP3    H256924   5.578   5.878  15.592 -0.9337  0.1411 -0.8832
11837TIP3   OH256925   2.742   1.556  13.420  0.9867  0.0128 -0.4756
11837TIP3    H156926   2.744   1.499  13.344  2.3627 -0.5899 -0.0189
11837TIP3    H256927   2.656   1.597  13.417 -1.0217 -3.6740  0.3446
11838TIP3   OH256928   2.480   3.887   3.159 -0.3029  0.1202  0.2073
11838TIP3    H156929   2.385   3.878   3.169 -0.1154 -2.7425  0.1478
11838TIP3    H256930   2.492   3.921   3.071 -1.2635  1.9630  0.7364
11839TIP3   OH256931   2.596   3.557   5.103 -0.2037  0.4090  0.3672
11839TIP3    H156932   2.501   3.544   5.103 -0.1880  0.1811  1.6127
11839TIP3    H256933   2.632   3.473   5.131  0.2562  0.9862  1.6302
11840TIP3   OH256934   2.331   6.465  17.329 -0.6993 -0.0406 -0.0385
11840TIP3    H156935   2.256   6.444  17.385 -0.0737  0.8064  1.1781
11840TIP3    H256936   2.366   6.381  17.302 -1.7771 -0.4495 -0.2009
11841TIP3   OH256937   1.188   3.020   3.000  0.7541  0.1596  0.2102
11841TIP3    H156938   1.162   3.059   2.917 -1.2969 -0.1327  0.6690
11841TIP3    H256939   1.184   2.925   2.984  1.8651  0.0930  0.2270
11842TIP3   OH256940   5.756   5.537   4.096 -0.2705  0.0307  0.2774
11842TIP3    H156941   5.686   5.542   4.030 -2.1330  0.6001  2.1879
11842TIP3    H256942   5.829   5.586   4.056 -1.5271  0.8755 -1.1307
11843TIP3   OH256943   3.184   5.765   3.188 -0.1772  0.1957 -0.0294
11843TIP3    H156944   3.238   5.844   3.177 -2.2254  1.6531 -0.1217
11843TIP3    H256945   3.147   5.749   3.101  0.0293 -0.7655  0.0445
11844TIP3   OH256946   3.521   4.189   3.982  0.0240  0.2335 -0.0145
11844TIP3    H156947   3.612   4.215   3.971  0.9412 -2.8984 -1.0213
11844TIP3    H256948   3.500   4.212   4.073  2.1042  0.2821  0.4898
11845TIP3   OH256949   2.587   0.970  12.274 -0.0319 -0.2787  0.2115
11845TIP3    H156950   2.535   1.050  12.284  2.4001  1.2492  1.5880
11845TIP3    H256951   2.536   0.904  12.320 -1.6599  0.6634 -0.1298
11846TIP3   OH256952   1.097   1.387   4.464  0.0156 -0.6228 -0.0674
11846TIP3    H156953   1.100   1.456   4.397  0.6573  1.7547  2.2352
11846TIP3    H256954   1.009   1.349   4.455 -0.1874  0.1328 -1.7283
11847TIP3   OH256955   6.076   5.862  13.136  0.9909 -0.0707  0.1047
11847TIP3    H156956   6.032   5.886  13.217  0.3762 -0.6664 -0.0417
11847TIP3    H256957   6.105   5.772  13.150  2.8588  0.5541  0.4770
11848TIP3   OH256958   5.154   1.570  10.989 -0.0457 -0.2908  0.1313
11848TIP3    H156959   5.098   1.569  11.067 -0.3714 -0.9200 -0.1063
11848TIP3    H256960   5.214   1.643  11.004 -0.1423 -0.3710  0.9438
11849TIP3   OH256961   2.051   1.987  16.134 -0.4276 -0.2946 -0.0295
11849TIP3    H156962   2.138   2.015  16.108 -0.7668 -0.5810 -1.5857
11849TIP3    H256963   2.062   1.896  16.163 -0.1997 -0.3130 -0.1761
11850TIP3   OH256964   6.584   0.524   0.684 -0.8402  0.2283  0.1688
11850TIP3    H156965   6.520   0.595   0.693 -1.8407 -0.5648 -0.4517
11850TIP3    H256966   6.649   0.557   0.622 -1.3557  0.5622 -0.1979
11851TIP3   OH256967   3.131   1.054  11.734  0.3692  0.1935 -0.3584
11851TIP3    H156968   3.047   1.014  11.756  1.0070  0.0175  2.0733
11851TIP3    H256969   3.117   1.148  11.745  0.6313  0.1191  0.7768
11852TIP3   OH256970   5.827   3.069  15.838  0.3592  0.7070  0.9865
11852TIP3    H156971   5.847   3.127  15.763 -1.8662  1.2068  0.7098
11852TIP3    H256972   5.763   3.007  15.803  2.0455 -1.4657  1.5318
11853TIP3   OH256973   0.975   6.334  15.078 -0.5487 -0.1814  0.4913
11853TIP3    H156974   1.005   6.302  14.992  0.9145 -3.2346  1.9576
11853TIP3    H256975   1.037   6.403  15.101 -1.7609  1.6449 -1.3835
11854TIP3   OH256976   2.175   6.023   6.121 -0.0449 -0.5675 -0.0842
11854TIP3    H156977   2.259   5.986   6.094  1.5411  3.0016 -0.5738
11854TIP3    H256978   2.198   6.098   6.176 -2.9629  0.0810  0.4295
11855TIP3   OH256979   2.626   2.486  11.415  0.3815  0.4231  0.1954
11855TIP3    H156980   2.533   2.491  11.435  0.4733 -2.1582  1.6537
11855TIP3    H256981   2.631   2.500  11.320 -1.4112  1.0633  0.1635
11856TIP3   OH256982   5.998   5.157  13.114 -0.0973 -0.2974  0.2353
11856TIP3    H156983   6.032   5.246  13.108 -1.3177  0.1831  0.0581
11856TIP3    H256984   5.959   5.153  13.201 -0.5512 -0.4516  0.0310
11857TIP3   OH256985   2.676   5.369  11.387 -0.2904  0.4054 -0.0528
11857TIP3    H156986   2.605   5.309  11.407 -1.2081  1.1778 -0.8932
11857TIP3    H256987   2.749   5.313  11.360 -0.9122 -0.3442 -0.1900
11858TIP3   OH256988   1.724   4.472   0.174 -0.1284  0.2981 -0.3300
11858TIP3    H156989   1.785   4.544   0.185 -0.2058  0.1023  2.0016
11858TIP3    H256990   1.661   4.483   0.246 -0.5681 -1.6548 -0.3476
11859TIP3   OH256991   5.617   6.332   0.060 -0.6356 -0.0026 -0.5149
11859TIP3    H156992   5.577   6.249   0.083 -0.7880  0.7066  2.2060
11859TIP3    H256993   5.549   6.381   0.015 -1.6394 -0.2007  0.7339
11860TIP3   OH256994   4.708   0.133  15.937 -0.3143 -0.1172 -0.4791
11860TIP3    H156995   4.729   0.046  15.972  1.3213  0.6304  0.5629
11860TIP3    H256996   4.763   0.141  15.859 -0.5086 -0.0430 -0.6082
11861TIP3   OH256997   2.245   5.316  15.843  0.1035  0.7609  0.0795
11861TIP3    H156998   2.299   5.351  15.914  1.2126 -1.6279  0.4993
11861TIP3    H256999   2.309   5.286  15.778 -0.6727 -1.6860  0.3651
11862TIP3   OH257000   4.327   6.441  11.887  0.0029  0.1288 -0.5019
11862TIP3    H157001   4.386   6.489  11.945  1.7099 -0.8694 -1.3311
11862TIP3    H257002   4.269   6.508  11.852 -0.2775  0.9449  1.3590
11863TIP3   OH257003   5.416   3.824   4.205 -0.1349  0.8839 -0.5162
11863TIP3    H157004   5.483   3.893   4.208 -0.0468  0.9228 -2.2238
11863TIP3    H257005   5.372   3.830   4.290  2.4553  0.3728  0.9627
11864TIP3   OH257006   0.452   4.164  17.328 -0.2359 -0.0690  0.1209
11864TIP3    H157007   0.546   4.181  17.333 -0.6460  2.2388  1.1585
11864TIP3    H257008   0.446   4.070  17.315  2.1876 -0.6557  2.3066
11865TIP3   OH257009   3.264   6.333  11.801  0.3464  0.1976 -0.5186
11865TIP3    H157010   3.169   6.337  11.809  0.4978 -0.0045  2.0193
11865TIP3    H257011   3.286   6.406  11.744 -1.2675  0.7491 -0.4822
11866TIP3   OH257012   3.590   6.284   3.649 -0.7167  0.2773 -0.0597
11866TIP3    H157013   3.524   6.302   3.582 -1.7658  1.4840  1.2205
11866TIP3    H257014   3.542   6.289   3.732  0.5250 -1.1951  0.8048
11867TIP3   OH257015   1.812   1.300  11.997  0.2303  0.1762  0.3495
11867TIP3    H157016   1.821   1.206  11.981  0.5048  0.5752 -2.2738
11867TIP3    H257017   1.739   1.307  12.058 -2.0015 -1.6331 -1.9003
11868TIP3   OH257018   2.485   2.003  11.772 -0.9576  0.4847  0.9052
11868TIP3    H157019   2.483   1.915  11.811  0.3706 -1.4032 -2.7861
11868TIP3    H257020   2.575   2.031  11.784 -0.6900  0.1356 -0.1855
11869TIP3   OH257021   5.048   0.331   3.172 -0.0801  0.7341  0.2463
11869TIP3    H157022   5.117   0.279   3.212 -0.8896 -1.0338 -0.5262
11869TIP3    H257023   5.012   0.384   3.244 -0.1665 -0.8411  1.4030
11870TIP3   OH257024   4.519   3.700  10.719  0.5865 -0.1698  0.4616
11870TIP3    H157025   4.572   3.675  10.644  0.0221 -1.1132  0.3707
11870TIP3    H257026   4.429   3.678  10.694  0.4154 -0.7042  1.4897
11871TIP3   OH257027   3.421   0.257  10.955  0.6863 -0.3449 -0.8356
11871TIP3    H157028   3.389   0.331  11.005 -0.6060 -1.8370  0.6626
11871TIP3    H257029   3.386   0.270  10.867 -0.2039  0.4139 -0.3854
11872TIP3   OH257030   2.394   2.165  16.493 -0.4305 -0.2454  0.6626
11872TIP3    H157031   2.399   2.249  16.447 -0.6838 -0.1304  0.8425
11872TIP3    H257032   2.450   2.107  16.442  0.7767  0.3702  1.2638
11873TIP3   OH257033   6.071   0.596   1.250 -0.4888  0.0103 -0.9212
11873TIP3    H157034   6.119   0.556   1.322 -1.0207 -0.0288 -0.5788
11873TIP3    H257035   6.012   0.526   1.220 -0.8240  0.2677 -0.8701
11874TIP3   OH257036   1.134   2.612  15.293  0.3457 -0.7234 -0.1636
11874TIP3    H157037   1.191   2.539  15.274  1.2618  0.0465 -0.4588
11874TIP3    H257038   1.184   2.667  15.354  0.4420  0.5514 -1.3315
11875TIP3   OH257039   4.546   4.271   4.548  0.3004  0.5003  0.3922
11875TIP3    H157040   4.593   4.215   4.610  0.8977  1.0373  0.4260
11875TIP3    H257041   4.569   4.360   4.572  0.5831  0.7194 -0.6270
11876TIP3   OH257042   1.818   6.091   6.023  0.1976 -0.5933 -0.1727
11876TIP3    H157043   1.803   6.097   5.929  2.2810 -0.7855 -0.5453
11876TIP3    H257044   1.878   6.162   6.044  0.9760 -1.4678  0.7237
11877TIP3   OH257045   5.259   3.991  17.213  0.4593 -0.0097  0.0114
11877TIP3    H157046   5.270   4.084  17.195  2.0585 -0.1360  0.1574
11877TIP3    H257047   5.320   3.973  17.285 -0.2994 -1.0422  0.4252
11878TIP3   OH257048   0.143   0.481  14.432  0.1019 -0.1913 -0.3784
11878TIP3    H157049   0.063   0.429  14.443  0.0872 -0.5505 -1.8702
11878TIP3    H257050   0.132   0.555  14.491 -0.1040 -1.6076  1.4492
11879TIP3   OH257051   5.026   1.947  11.355  0.1142  0.1137  0.0671
11879TIP3    H157052   4.991   2.035  11.340  0.2831  0.1039 -0.3898
11879TIP3    H257053   5.118   1.961  11.377  0.2801  0.0186 -0.5478
11880TIP3   OH257054   6.536   4.039   2.973  0.3031 -0.1515 -0.2367
11880TIP3    H157055   6.609   4.015   3.030 -0.3945 -0.4993  0.5498
11880TIP3    H257056   6.458   4.030   3.029 -0.3098  0.5667 -0.9409
11881TIP3   OH257057   5.256   5.432   5.310  0.2641  0.6351 -0.8075
11881TIP3    H157058   5.215   5.365   5.255 -2.3212  0.7810  0.7478
11881TIP3    H257059   5.191   5.502   5.314  0.9093  1.1854  1.3521
11882TIP3   OH257060   1.565   6.217  17.184  0.0067  0.0215  0.0436
11882TIP3    H157061   1.508   6.155  17.139 -0.4828  0.7760 -0.3894
11882TIP3    H257062   1.614   6.163  17.247  0.8316 -1.0809 -1.4908
11883TIP3   OH257063   3.040   6.541  16.085 -0.2456 -0.3115 -0.1815
11883TIP3    H157064   2.988   6.621  16.081 -0.4999 -0.4696 -0.0170
11883TIP3    H257065   3.116   6.565  16.138 -0.5556 -0.3111  0.2665
11884TIP3   OH257066   3.596   4.524   1.687  0.1237  0.1174  0.9225
11884TIP3    H157067   3.569   4.433   1.704  0.0361  0.2426  1.5007
11884TIP3    H257068   3.687   4.528   1.717 -0.2966  0.5609  2.2366
11885TIP3   OH257069   6.000   4.181   4.305  0.0769  0.6886 -0.0682
11885TIP3    H157070   6.039   4.198   4.219 -1.8619  1.5447 -0.8333
11885TIP3    H257071   6.072   4.193   4.367  1.2747  1.0908 -1.4822
11886TIP3   OH257072   5.644   4.147  12.707  0.6403  0.1825  0.2390
11886TIP3    H157073   5.556   4.137  12.670  0.2945  1.7078  0.5828
11886TIP3    H257074   5.668   4.059  12.737 -0.0549 -0.5959 -1.3954
11887TIP3   OH257075   5.482   2.927  12.806 -0.4504  0.0511  0.5491
11887TIP3    H157076   5.409   2.906  12.747 -0.9417 -1.5119  1.6384
11887TIP3    H257077   5.546   2.857  12.790 -0.1386  0.2026  1.1255
11888TIP3   OH257078   0.842   4.476  13.891 -0.0798  0.0845 -0.4533
11888TIP3    H157079   0.792   4.546  13.849 -0.3681  0.1833  0.0481
11888TIP3    H257080   0.888   4.434  13.819 -0.3902  0.3957 -0.8436
11889TIP3   OH257081   2.182   5.089  15.523  0.6268 -0.1028  0.0380
11889TIP3    H157082   2.115   5.110  15.589 -1.7846 -1.0770 -1.9435
11889TIP3    H257083   2.236   5.168  15.517 -0.9166  1.0882  1.0755
11890TIP3   OH257084   4.031   6.690   1.929  0.5356  0.3194 -1.1526
11890TIP3    H157085   4.064   6.634   2.000 -1.0737  0.8235  0.0887
11890TIP3    H257086   4.084   6.769   1.934  0.4931  0.3191 -0.5195
11891TIP3   OH257087   2.399   5.477  16.068 -0.2293 -1.1143  0.2283
11891TIP3    H157088   2.464   5.523  16.122 -0.6108  0.2302 -0.4058
11891TIP3    H257089   2.326   5.460  16.128 -1.1429  1.4037 -0.0300
11892TIP3   OH257090   4.894   5.233   3.551  0.5824  0.2085  0.2313
11892TIP3    H157091   4.894   5.169   3.479  2.8641  1.0871 -0.6404
11892TIP3    H257092   4.801   5.252   3.565  0.0038 -0.7882 -1.7751
11893TIP3   OH257093   6.730   2.256   3.919  0.1133 -0.1592  0.4276
11893TIP3    H157094   6.740   2.203   3.840 -0.3176  0.3332  0.0299
11893TIP3    H257095   6.811   2.242   3.968  0.1262 -0.9520  0.1959
11894TIP3   OH257096   0.756   2.830  17.022  0.1823  0.1189 -0.3779
11894TIP3    H157097   0.823   2.766  17.048  0.0416 -0.1375 -0.6379
11894TIP3    H257098   0.802   2.890  16.963  0.4502  0.5816  0.2799
11895TIP3   OH257099   0.333   2.588  11.790 -0.2849 -0.6664 -0.2354
11895TIP3    H157100   0.357   2.681  11.793  1.2534 -1.0399  0.3261
11895TIP3    H257101   0.240   2.587  11.767 -0.3739  1.0149 -0.0525
11896TIP3   OH257102   3.108   2.991  10.657  0.1208  0.0500 -0.3718
11896TIP3    H157103   3.044   2.948  10.600 -0.2898  0.1532  0.0101
11896TIP3    H257104   3.098   3.084  10.639  2.0073 -0.0215 -2.2797
11897TIP3   OH257105   1.284   0.490   2.050 -0.2036 -0.0893  0.5667
11897TIP3    H157106   1.274   0.575   2.008 -0.9942 -0.4777 -0.0735
11897TIP3    H257107   1.202   0.444   2.030 -0.1642 -0.6671  1.6748
11898TIP3   OH257108   1.133   2.546  13.810 -0.1241  0.5586  0.3924
11898TIP3    H157109   1.215   2.564  13.763 -0.3432  0.8287  0.1070
11898TIP3    H257110   1.105   2.461  13.775  1.0535 -0.5267  1.9443
11899TIP3   OH257111   0.637   1.275  11.592  0.8047  0.7511  0.9570
11899TIP3    H157112   0.721   1.320  11.593  0.6160  1.2381 -1.0435
11899TIP3    H257113   0.656   1.190  11.552  0.0608  1.5873 -1.2644
11900TIP3   OH257114   3.855   5.657  12.577  0.1242 -0.0924  0.3002
11900TIP3    H157115   3.856   5.575  12.526  1.2813 -1.5746  2.5158
11900TIP3    H257116   3.775   5.701  12.551  0.2564 -1.1520 -2.1386
11901TIP3   OH257117   6.115   0.854   5.322 -0.0021  0.5074 -0.4851
11901TIP3    H157118   6.022   0.855   5.301 -0.1918  1.3803  0.3642
11901TIP3    H257119   6.149   0.776   5.277 -1.1155  0.2295 -0.8637
11902TIP3   OH257120   3.621   5.599   4.699  0.7575  0.1832  0.0587
11902TIP3    H157121   3.576   5.600   4.784 -1.0505 -0.0788 -0.8560
11902TIP3    H257122   3.667   5.515   4.697 -0.5682 -0.5655  0.1026
11903TIP3   OH257123   4.988   1.940  12.999  0.5037  0.1559  0.1545
11903TIP3    H157124   4.959   2.010  12.940  0.6018  0.9435  1.0160
11903TIP3    H257125   4.929   1.945  13.074  1.5581  0.4476  0.9997
11904TIP3   OH257126   5.996   5.134   2.149  0.2455  0.1024  0.6174
11904TIP3    H157127   6.075   5.135   2.095 -0.2761  1.0572 -0.1613
11904TIP3    H257128   5.927   5.163   2.090 -0.9509 -1.9698  0.9173
11905TIP3   OH257129   2.771   1.922  15.316 -0.1541  0.5547  0.0054
11905TIP3    H157130   2.720   1.929  15.396  1.9952  0.7054  1.4322
11905TIP3    H257131   2.853   1.967  15.336  0.9336 -0.5027 -1.8563
11906TIP3   OH257132   4.221   5.480  16.765  0.2140  0.2778 -0.4931
11906TIP3    H157133   4.244   5.400  16.718 -0.1816 -1.1600  1.5906
11906TIP3    H257134   4.140   5.510  16.723 -0.0792 -0.8932 -0.8027
11907TIP3   OH257135   2.740   5.796  12.914 -0.3324  0.0258 -0.9636
11907TIP3    H157136   2.789   5.780  12.995  0.0541  1.8164 -0.8069
11907TIP3    H257137   2.658   5.835  12.944 -0.5598 -0.1131 -1.3991
11908TIP3   OH257138   5.646   2.841  16.338 -0.2322 -0.2346 -0.5681
11908TIP3    H157139   5.737   2.859  16.315  0.0372 -0.6428  0.1600
11908TIP3    H257140   5.625   2.905  16.405  0.5882 -2.1752  1.6999
11909TIP3   OH257141   3.256   4.647   6.528  0.5913 -0.1956 -0.1074
11909TIP3    H157142   3.293   4.676   6.445 -1.2715  1.1916 -0.4896
11909TIP3    H257143   3.162   4.646   6.514  0.1475  1.0637  2.2641
11910TIP3   OH257144   6.287   6.559   3.436  0.1666  0.0884 -0.2987
11910TIP3    H157145   6.367   6.610   3.453 -0.0615  0.1968  0.5210
11910TIP3    H257146   6.313   6.493   3.372  1.1558 -0.4379  0.6066
11911TIP3   OH257147   0.886   5.844   4.275 -0.0717 -0.0760 -0.0461
11911TIP3    H157148   0.974   5.821   4.245  0.2034  0.8281  0.0223
11911TIP3    H257149   0.833   5.844   4.196  0.2082  0.3309 -0.2379
11912TIP3   OH257150   1.660   4.354  13.202  0.0456  0.3611 -0.2172
11912TIP3    H157151   1.751   4.377  13.223  0.0608  0.1323 -0.0237
11912TIP3    H257152   1.668   4.273  13.151  0.1155  1.6936 -2.4852
11913TIP3   OH257153   0.883   3.455   4.063 -0.1705  0.6220 -0.2251
11913TIP3    H157154   0.945   3.520   4.094 -0.6914  0.4882  1.1339
11913TIP3    H257155   0.816   3.506   4.017  0.9534  0.7582 -1.8083
11914TIP3   OH257156   0.956   6.422  15.590 -0.1875  0.4437  0.2186
11914TIP3    H157157   0.992   6.341  15.553  0.6204  0.4853  0.8857
11914TIP3    H257158   0.897   6.391  15.659 -0.4186  0.4104  0.0081
11915TIP3   OH257159   2.667   3.229  14.548 -0.0813 -0.3681  0.7971
11915TIP3    H157160   2.760   3.239  14.527  0.0681 -1.9005  0.5543
11915TIP3    H257161   2.656   3.134  14.560 -1.5885 -0.1959  0.9505
11916TIP3   OH257162   5.341   5.153   4.658  0.5043  0.1253  0.8532
11916TIP3    H157163   5.305   5.241   4.652  0.6255  0.1670  0.7328
11916TIP3    H257164   5.270   5.100   4.694  0.1209  0.0927  0.0759
11917TIP3   OH257165   4.760   5.822   1.135  0.3970 -0.0883 -0.1676
11917TIP3    H157166   4.712   5.902   1.114  0.1730 -0.2295 -0.2006
11917TIP3    H257167   4.702   5.774   1.194  2.0241  1.4296  2.9239
11918TIP3   OH257168   5.352   2.979  14.431  0.1263 -0.3866  0.1143
11918TIP3    H157169   5.289   2.978  14.503  0.6482 -2.4820  0.6128
11918TIP3    H257170   5.298   2.988  14.352 -0.7131 -0.9873  0.5981
11919TIP3   OH257171   5.469   5.929   5.536 -0.2190 -0.4584  0.4380
11919TIP3    H157172   5.476   5.955   5.444 -0.1624  0.6902  0.7420
11919TIP3    H257173   5.377   5.903   5.547 -0.4369  0.1849  0.2316
11920TIP3   OH257174   2.363   1.202  13.115 -0.1373  0.4754 -0.5225
11920TIP3    H157175   2.356   1.107  13.124 -1.0486  0.4682 -1.0977
11920TIP3    H257176   2.437   1.226  13.170 -2.0334 -0.1314  2.5799
11921TIP3   OH257177   1.733   2.619  12.826 -0.1566 -0.3585  0.0672
11921TIP3    H157178   1.823   2.649  12.820  0.2308 -1.7117 -1.4985
11921TIP3    H257179   1.737   2.540  12.880 -0.1878 -1.0615 -0.9186
11922TIP3   OH257180   2.223   6.315  14.815 -0.1105 -0.3595 -0.0364
11922TIP3    H157181   2.311   6.336  14.848 -0.5184 -0.0693  0.9053
11922TIP3    H257182   2.239   6.272  14.731  0.8774  0.8910 -0.5121
11923TIP3   OH257183   0.012   4.987   1.680 -0.4684 -0.1701 -0.2684
11923TIP3    H157184   0.008   4.925   1.753  0.1398 -0.1658 -0.2325
11923TIP3    H257185  -0.026   4.938   1.606 -0.7759 -0.2871 -0.0382
11924TIP3   OH257186   0.589   5.287   3.946 -0.2531 -0.1377  0.1422
11924TIP3    H157187   0.671   5.270   3.900  1.0384 -2.5104  2.9340
11924TIP3    H257188   0.611   5.357   4.008 -1.0228  0.7824 -0.6071
11925TIP3   OH257189   1.529   1.303   6.220  0.5508 -0.3319  0.3032
11925TIP3    H157190   1.500   1.317   6.130  1.5372 -0.7048 -0.0888
11925TIP3    H257191   1.453   1.267   6.264 -0.1531  0.4966 -0.2081
11926TIP3   OH257192   0.656   2.321   1.798 -0.1655 -0.2517 -0.2911
11926TIP3    H157193   0.639   2.374   1.876 -0.0442 -0.9843  0.2493
11926TIP3    H257194   0.589   2.347   1.735 -0.5486  0.0188  0.2255
11927TIP3   OH257195   6.003   4.624   0.177  0.3341  0.2708  0.5362
11927TIP3    H157196   5.930   4.615   0.115 -1.0059 -2.8406  2.3074
11927TIP3    H257197   6.074   4.573   0.138  0.9216  1.6007 -0.2120
11928TIP3   OH257198   0.536   5.984  11.152 -0.4903 -0.8962  0.4063
11928TIP3    H157199   0.530   5.986  11.247  0.1964  0.1478  0.4450
11928TIP3    H257200   0.521   5.893  11.129 -0.6953 -1.1571  1.5116
11929TIP3   OH257201   1.648   1.469   1.836  0.2612  0.2876 -0.1817
11929TIP3    H157202   1.656   1.393   1.893 -1.4673  2.0717  2.6762
11929TIP3    H257203   1.725   1.465   1.780  1.7268 -1.9825  1.7973
11930TIP3   OH257204   4.279   3.537  16.487  0.6584 -0.0216  0.6116
11930TIP3    H157205   4.367   3.575  16.499  0.3553  0.7524  0.4233
11930TIP3    H257206   4.294   3.457  16.437  1.4026 -0.6016  1.7156
11931TIP3   OH257207   1.086   4.421   4.573 -0.0928 -0.1110 -0.1434
11931TIP3    H157208   1.054   4.414   4.663  0.4633  1.1184  0.1787
11931TIP3    H257209   1.180   4.407   4.580 -0.1821 -1.0699 -0.7029
11932TIP3   OH257210   5.677   1.948   2.466  0.2199  0.5151  0.3708
11932TIP3    H157211   5.643   1.894   2.537 -1.8519  0.9679 -0.2106
11932TIP3    H257212   5.659   1.897   2.386 -0.4564  1.4240 -0.0706
11933TIP3   OH257213   6.154   0.919   3.707 -0.3811  0.4331 -0.3226
11933TIP3    H157214   6.080   0.861   3.687  1.6805 -2.2186 -0.8061
11933TIP3    H257215   6.194   0.879   3.785  2.2669 -0.0359 -1.8282
11934TIP3   OH257216   2.238   3.020   2.586 -0.6016 -0.0977  0.0806
11934TIP3    H157217   2.219   3.086   2.653 -0.4815 -1.5172  1.5845
11934TIP3    H257218   2.160   3.019   2.531 -0.7865  0.9683  0.2928
11935TIP3   OH257219   4.043   6.374  17.300  0.0899  0.0309 -0.7098
11935TIP3    H157220   4.106   6.306  17.322  0.9032  0.5794 -1.2599
11935TIP3    H257221   4.029   6.421  17.382  0.7430  0.1630 -0.6615
11936TIP3   OH257222   1.986   0.939   2.443 -0.4244 -0.4346  0.1495
11936TIP3    H157223   1.923   0.870   2.464 -1.0402 -0.2310 -0.9477
11936TIP3    H257224   2.043   0.899   2.377  1.1110 -0.8789  1.6812
11937TIP3   OH257225   1.680   3.621  16.019 -1.1391  0.3074  0.0671
11937TIP3    H157226   1.765   3.662  16.004 -0.8579 -0.0303  0.6795
11937TIP3    H257227   1.618   3.673  15.968 -0.4520  0.0716 -1.0350
11938TIP3   OH257228   1.194   0.538   2.881  0.1729  0.5236 -0.6739
11938TIP3    H157229   1.224   0.458   2.924 -0.7280  1.5379  2.0328
11938TIP3    H257230   1.118   0.510   2.830 -0.1519 -0.3777  0.2585
11939TIP3   OH257231   0.032   4.878   2.860  0.0806  0.4435  0.1927
11939TIP3    H157232   0.120   4.868   2.895 -0.2336  0.7169  1.1008
11939TIP3    H257233   0.040   4.945   2.792  0.5051  0.7619  0.5537
11940TIP3   OH257234   1.977   2.113  13.905 -0.0892  0.2391  0.1160
11940TIP3    H157235   2.053   2.170  13.910  0.8890 -0.8062 -1.7657
11940TIP3    H257236   1.911   2.156  13.959  1.8077  1.1715  1.8247
11941TIP3   OH257237   0.301   4.642   3.886 -0.1562 -0.6181 -0.0795
11941TIP3    H157238   0.365   4.572   3.898 -1.6217 -2.0083  0.0641
11941TIP3    H257239   0.225   4.598   3.848 -0.8473  1.0644 -0.7629
11942TIP3   OH257240   1.675   6.604   6.538  0.3781  0.1117  0.0575
11942TIP3    H157241   1.722   6.541   6.594  1.0031  0.9166  0.4687
11942TIP3    H257242   1.584   6.576   6.541  0.6158 -0.6463  0.4063
11943TIP3   OH257243   0.815   1.906  13.578  0.1420  0.3980  0.2889
11943TIP3    H157244   0.755   1.952  13.520  0.1472  0.3467  0.2434
11943TIP3    H257245   0.760   1.873  13.649  0.1934  0.7923  0.5150
11944TIP3   OH257246   4.091   4.163  16.246 -0.0564 -0.3982 -0.0697
11944TIP3    H157247   4.037   4.159  16.167 -0.8861 -0.1777  0.4668
11944TIP3    H257248   4.068   4.084  16.294 -0.2224 -0.0895  0.3647
11945TIP3   OH257249   1.389   1.006   3.428  0.0526  1.2168  0.1095
11945TIP3    H157250   1.348   0.962   3.502 -1.6829 -0.0465 -1.5155
11945TIP3    H257251   1.421   1.089   3.464 -1.7764  1.1762  2.0077
11946TIP3   OH257252   3.715   0.309  16.691  0.5010  0.0211  0.4360
11946TIP3    H157253   3.658   0.362  16.636  0.1832 -0.4417  0.3188
11946TIP3    H257254   3.782   0.371  16.722 -0.0557  0.5629  0.5755
11947TIP3   OH257255   4.276   4.399   0.306  0.1693  0.0907 -0.6414
11947TIP3    H157256   4.221   4.433   0.235 -0.7579  0.9882  0.4623
11947TIP3    H257257   4.250   4.307   0.315 -0.3201  0.1962 -0.9206
11948TIP3   OH257258   3.504   0.010   3.707 -0.0652 -0.2258  0.4291
11948TIP3    H157259   3.409   0.026   3.701 -0.0021  0.2357  0.6206
11948TIP3    H257260   3.529  -0.015   3.618 -0.4719 -0.9658  0.5108
11949TIP3   OH257261   3.608   1.287  15.726  0.2457 -0.4327  0.2689
11949TIP3    H157262   3.686   1.232  15.726 -0.2053 -1.0876 -0.8296
11949TIP3    H257263   3.635   1.367  15.772  0.8008 -1.6896  2.2596
11950TIP3   OH257264   1.144   6.745  12.703  0.8870 -0.4722  0.4110
11950TIP3    H157265   1.221   6.802  12.710  0.4726  0.0095  1.3591
11950TIP3    H257266   1.073   6.804  12.678  0.5672 -0.6652  0.8431
11951TIP3   OH257267   3.044   4.352  13.922 -0.0383  0.0784 -0.2170
11951TIP3    H157268   3.004   4.267  13.902 -1.6027  0.5256  0.8247
11951TIP3    H257269   2.971   4.414  13.916  0.3111  0.8394  2.3228
11952TIP3   OH257270   6.549   4.639   0.023 -0.5732  0.2651  0.0736
11952TIP3    H157271   6.637   4.611   0.050 -1.2217 -0.9879  1.0029
11952TIP3    H257272   6.554   4.645  -0.073  0.4883  0.0745  0.1037
11953TIP3   OH257273   5.136   1.507  11.481 -0.3645  0.6126  0.7703
11953TIP3    H157274   5.053   1.508  11.434  0.0518  1.1311  0.0042
11953TIP3    H257275   5.187   1.437  11.440 -0.2049  0.6932  0.8277
11954TIP3   OH257276   3.615   1.437  16.112 -0.0967  0.4482 -0.1699
11954TIP3    H157277   3.670   1.439  16.034  2.2750 -0.0041  1.3596
11954TIP3    H257278   3.534   1.480  16.086  1.1080  1.4990 -2.4943
11955TIP3   OH257279   2.509   3.795  14.247  0.7856 -0.3854  0.9374
11955TIP3    H157280   2.450   3.720  14.249  1.3995 -0.8664  2.2446
11955TIP3    H257281   2.510   3.827  14.337  1.5725  0.3618  0.6807
11956TIP3   OH257282   5.800   6.261  13.750 -0.5329  0.3783 -0.7052
11956TIP3    H157283   5.749   6.219  13.819  1.2777  0.0019  0.4793
11956TIP3    H257284   5.855   6.324  13.797  0.7211  0.1401 -1.8056
11957TIP3   OH257285   6.100   6.674   2.059 -0.3287 -0.3546  0.0204
11957TIP3    H157286   6.187   6.698   2.092  0.4070 -3.2804  0.4362
11957TIP3    H257287   6.077   6.745   1.999  1.9298  0.9475  0.5792
11958TIP3   OH257288   3.533   4.739  12.122 -0.1738  0.2681 -0.1572
11958TIP3    H157289   3.496   4.653  12.104 -2.7752  1.5347 -1.4437
11958TIP3    H257290   3.509   4.792  12.046  0.6304  2.3475  0.9465
11959TIP3   OH257291   3.964   5.937   2.157  0.4737 -0.4792  0.3747
11959TIP3    H157292   3.961   5.851   2.199  0.9075 -0.2944  0.7894
11959TIP3    H257293   4.036   5.930   2.093  0.7776 -0.3033  0.6912
11960TIP3   OH257294   1.510   5.241   1.379  0.0274 -0.4636  0.2753
11960TIP3    H157295   1.469   5.156   1.364 -2.0668  0.6951 -0.9707
11960TIP3    H257296   1.451   5.286   1.439  2.5345 -0.8066  3.3042
11961TIP3   OH257297   4.183   1.001   1.117  0.2844 -0.1071 -0.2519
11961TIP3    H157298   4.112   1.065   1.113  0.9566  0.6341 -0.3452
11961TIP3    H257299   4.244   1.036   1.182  1.1197 -0.1670 -0.9816
11962TIP3   OH257300   2.987   5.792   0.073  0.0763 -0.2063 -0.1819
11962TIP3    H157301   3.038   5.744   0.007  0.2648  1.4852 -1.3250
11962TIP3    H257302   3.037   5.873   0.086 -0.6084  0.0134  1.1561
11963TIP3   OH257303   1.994   6.723   4.135 -0.1412  0.1998  0.1905
11963TIP3    H157304   2.045   6.742   4.057 -0.8870  1.8396  0.0690
11963TIP3    H257305   1.909   6.765   4.120 -0.6205 -0.2454  1.4815
11964TIP3   OH257306   2.194   4.038   5.493  0.0554 -0.1391 -0.2546
11964TIP3    H157307   2.272   4.017   5.545  0.2511  0.8373 -0.1335
11964TIP3    H257308   2.121   4.023   5.553  0.1702 -0.6929 -0.2493
11965TIP3   OH257309   2.458   6.597   4.206  0.3926 -0.2984 -0.1993
11965TIP3    H157310   2.425   6.599   4.116 -0.2272  0.2815  0.0286
11965TIP3    H257311   2.483   6.688   4.225  0.8750 -0.4865  0.0886
11966TIP3   OH257312   1.463   4.658   5.082  0.2578 -0.4541  0.3168
11966TIP3    H157313   1.454   4.753   5.080 -1.5111 -0.5721  0.9433
11966TIP3    H257314   1.555   4.643   5.106  0.2266  1.1062  1.5726
11967TIP3   OH257315   5.695   5.374  16.236 -0.3765  0.0849 -0.5204
11967TIP3    H157316   5.762   5.353  16.170  1.5310  2.7146  0.3720
11967TIP3    H257317   5.637   5.436  16.192  1.1604  2.1996  0.2307
11968TIP3   OH257318   0.665   2.420  12.801  0.0295  0.0101  0.1686
11968TIP3    H157319   0.572   2.417  12.820  0.2115 -1.1405  0.9881
11968TIP3    H257320   0.678   2.356  12.732  0.1581  0.4743 -0.2442
11969TIP3   OH257321   6.147   6.270  15.376  0.1037  0.2893 -0.0794
11969TIP3    H157322   6.055   6.283  15.354  0.5281  2.0149 -1.0500
11969TIP3    H257323   6.188   6.354  15.356  1.7480 -0.1891  1.1236
11970TIP3   OH257324   6.137   5.810  11.736  0.1962 -0.0481  0.7617
11970TIP3    H157325   6.183   5.893  11.718 -1.4616  1.1547  1.7524
11970TIP3    H257326   6.207   5.747  11.752  1.5217  1.0674 -0.3053
11971TIP3   OH257327   4.481   0.895   4.482  0.2007 -0.1598 -0.1612
11971TIP3    H157328   4.446   0.983   4.468 -2.1143 -1.3543 -2.6714
11971TIP3    H257329   4.555   0.909   4.541 -0.8006  3.2945  0.5400
11972TIP3   OH257330   1.845   3.147   0.059 -0.5565 -0.1490 -0.3408
11972TIP3    H157331   1.765   3.197   0.049 -0.5702 -0.4613 -2.2747
11972TIP3    H257332   1.847   3.089  -0.018  0.8710 -1.0640  0.3290
11973TIP3   OH257333   3.231   1.353  13.299  0.1904  0.1445 -0.1979
11973TIP3    H157334   3.187   1.272  13.325 -0.9900  0.0998 -2.1588
11973TIP3    H257335   3.324   1.337  13.319 -0.1910 -1.1610  0.6654
11974TIP3   OH257336   2.385   0.069   0.992  0.1201 -0.2918  0.0882
11974TIP3    H157337   2.479   0.087   0.997 -0.0069  0.3486  0.1630
11974TIP3    H257338   2.357   0.062   1.083 -0.1723  0.9152  0.0977
11975TIP3   OH257339   1.533   6.072  15.023 -0.3417  0.1994  0.7784
11975TIP3    H157340   1.582   6.135  15.076  0.7046  2.0843 -2.2072
11975TIP3    H257341   1.597   6.005  15.000 -0.0370  0.8562 -0.3297
11976TIP3   OH257342   4.510   6.533   0.446  0.5871 -0.3713 -0.1684
11976TIP3    H157343   4.587   6.498   0.491 -0.0774 -0.9050  0.5758
11976TIP3    H257344   4.511   6.491   0.361  2.1709  1.0643 -0.9248
11977TIP3   OH257345   2.547   2.011  11.004 -0.7750 -0.3954 -0.4727
11977TIP3    H157346   2.501   2.006  10.920 -2.1803 -1.9380  0.3108
11977TIP3    H257347   2.614   1.943  10.999 -1.3372 -0.9914 -0.1103
11978TIP3   OH257348   5.871   2.084  16.405 -0.3449  0.6082 -0.3448
11978TIP3    H157349   5.845   2.175  16.411 -2.2525  0.0652  0.4096
11978TIP3    H257350   5.965   2.086  16.389 -0.3574  2.6849 -0.3398
11979TIP3   OH257351   2.307   2.059  16.741 -0.1071  0.1959  0.6332
11979TIP3    H157352   2.378   2.046  16.677 -1.4335 -1.1614 -0.6385
11979TIP3    H257353   2.343   2.027  16.823  0.7018 -0.6352 -0.0248
11980TIP3   OH257354   2.491   0.708  12.388 -0.3474 -1.0902  0.0574
11980TIP3    H157355   2.585   0.721  12.392 -0.5945  1.4910 -0.4576
11980TIP3    H257356   2.474   0.633  12.446  1.7506 -0.0652  2.1768
11981TIP3   OH257357   1.404   0.622  14.113  0.7727  0.3474  0.1159
11981TIP3    H157358   1.357   0.547  14.148 -1.0739  1.2287 -0.3498
11981TIP3    H257359   1.466   0.646  14.182 -0.4052 -0.0384  1.3566
11982TIP3   OH257360   5.574   6.436   1.619  0.4267 -0.0645 -0.0849
11982TIP3    H157361   5.570   6.372   1.548 -1.0774  0.8235 -0.8487
11982TIP3    H257362   5.639   6.499   1.590 -1.2950  1.1517 -1.4823
11983TIP3   OH257363   2.491   0.167  11.704 -0.2896 -0.0552 -0.0939
11983TIP3    H157364   2.437   0.136  11.632 -0.8686 -1.7680  1.0111
11983TIP3    H257365   2.580   0.137  11.683 -0.1237  0.9123 -0.8684
11984TIP3   OH257366   5.585   1.568   4.950 -0.0164  0.3704 -0.5220
11984TIP3    H157367   5.630   1.495   4.907  1.3503  0.0455  1.3335
11984TIP3    H257368   5.640   1.644   4.932  0.3850  0.2926  0.2965
11985TIP3   OH257369   3.458   0.880  15.484  0.4338  0.0434 -0.0638
11985TIP3    H157370   3.407   0.901  15.562 -1.3817  0.5437 -1.3433
11985TIP3    H257371   3.443   0.787  15.470 -1.9295  0.5762 -1.6061
11986TIP3   OH257372   1.220   0.642  16.590 -0.4007  0.3830 -0.0796
11986TIP3    H157373   1.279   0.592  16.647  1.2039  3.1496  0.8738
11986TIP3    H257374   1.245   0.616  16.501  0.2928 -0.5564  0.3718
11987TIP3   OH257375   3.164   6.129   3.344 -0.0515  0.1208  0.0860
11987TIP3    H157376   3.157   6.039   3.375 -0.5723  0.2257  0.2904
11987TIP3    H257377   3.213   6.123   3.262  1.1273 -0.1873  0.8037
11988TIP3   OH257378   3.034   3.167   1.983 -0.6653  0.3716  0.6091
11988TIP3    H157379   3.001   3.077   1.983  1.6250 -0.5463 -0.4880
11988TIP3    H257380   3.004   3.205   1.901  1.3306 -0.6340 -0.6378
11989TIP3   OH257381   3.802   1.578   6.374  0.1554 -0.5299 -0.7518
11989TIP3    H157382   3.885   1.569   6.421 -0.0073 -0.0360 -0.3684
11989TIP3    H257383   3.821   1.545   6.286  0.7877 -0.3036 -0.7038
11990TIP3   OH257384   3.170   1.373   4.438 -0.4311 -0.6491  1.0246
11990TIP3    H157385   3.264   1.360   4.448 -0.2001  0.3230  0.2347
11990TIP3    H257386   3.143   1.301   4.380 -0.1163 -0.7164  0.9555
11991TIP3   OH257387   0.384   5.321   1.653  0.1771 -0.1976 -0.2295
11991TIP3    H157388   0.296   5.304   1.685 -0.2262  0.7528 -0.8116
11991TIP3    H257389   0.374   5.330   1.558  0.7334  0.8990 -0.1940
11992TIP3   OH257390   5.209   4.853  12.613 -0.1841  0.6034  0.3500
11992TIP3    H157391   5.215   4.900  12.530  0.8671 -0.1621 -0.0207
11992TIP3    H257392   5.258   4.907  12.675  1.0435  0.0166 -0.0808
11993TIP3   OH257393   6.516   2.220  12.946 -0.2490  0.7119  0.3973
11993TIP3    H157394   6.518   2.259  12.859 -1.1829  1.0569  0.5225
11993TIP3    H257395   6.446   2.155  12.942  0.6606 -0.3025  0.4731
11994TIP3   OH257396   1.556   1.546  13.849 -0.1778  0.4014 -0.3208
11994TIP3    H157397   1.496   1.487  13.803  0.1987 -1.9089  1.9524
11994TIP3    H257398   1.502   1.587  13.917  0.2258  0.4678 -0.0420
11995TIP3   OH257399   2.640   2.829  12.836 -0.0351  0.0292  0.1825
11995TIP3    H157400   2.563   2.802  12.886 -1.9003 -0.3170 -2.6498
11995TIP3    H257401   2.710   2.773  12.868 -1.7890 -2.1419  0.4611
11996TIP3   OH257402   1.276   4.960   3.335  0.1691  0.4523  0.4446
11996TIP3    H157403   1.262   4.884   3.391  0.9011 -0.0220 -0.0015
11996TIP3    H257404   1.360   4.944   3.293 -0.3045  0.8660 -0.6978
11997TIP3   OH257405   5.977   4.905  14.397  0.8745 -0.0206 -0.6128
11997TIP3    H157406   6.015   4.949  14.473  0.9823  1.2137 -1.3438
11997TIP3    H257407   6.049   4.903  14.333  1.0200 -1.7399 -0.4372
11998TIP3   OH257408   5.498   5.330   0.536 -0.8143 -0.1841 -0.2922
11998TIP3    H157409   5.464   5.413   0.570 -0.0079 -0.3146  0.8855
11998TIP3    H257410   5.592   5.333   0.554 -0.4053 -0.4554 -2.1837
11999TIP3   OH257411   6.239   3.744  13.434  0.0473  0.0773 -0.0389
11999TIP3    H157412   6.257   3.665  13.382  0.3189 -1.6256  2.4434
11999TIP3    H257413   6.164   3.720  13.488 -0.3876  1.8594  0.2050
12000TIP3   OH257414   4.762   3.479   5.443 -0.7134  0.4058 -0.7406
12000TIP3    H157415   4.674   3.442   5.455 -0.3648 -0.2413 -0.0316
12000TIP3    H257416   4.768   3.546   5.512 -1.2953  1.7374 -1.9400
12001TIP3   OH257417   4.241   1.836  14.577 -0.0460  0.1283 -0.1080
12001TIP3    H157418   4.185   1.893  14.629 -0.8496 -0.6803 -0.0648
12001TIP3    H257419   4.199   1.833  14.491 -0.3899 -0.9146  0.0839
12002TIP3   OH257420   2.622   5.523  12.295  0.4869  0.3667 -0.2546
12002TIP3    H157421   2.544   5.576  12.281 -0.8929 -1.5957 -0.5409
12002TIP3    H257422   2.667   5.524  12.211  0.7682  1.4962 -0.0956
12003TIP3   OH257423   4.368   6.131   6.459 -0.0860 -0.1291  0.3614
12003TIP3    H157424   4.290   6.164   6.416 -0.1348 -1.1301 -0.3659
12003TIP3    H257425   4.440   6.155   6.400  0.2929  1.4366  1.3734
12004TIP3   OH257426   2.506   1.966   4.137 -0.0368  0.7446 -0.2384
12004TIP3    H157427   2.541   1.998   4.054  1.1474  0.3579  0.0976
12004TIP3    H257428   2.475   2.045   4.182  0.1067  1.0572 -0.6804
12005TIP3   OH257429   5.715   0.760  13.433  0.4284  0.2717  0.0720
12005TIP3    H157430   5.638   0.727  13.480  1.4119 -0.7308  1.0273
12005TIP3    H257431   5.692   0.748  13.340 -0.7716  0.4882  0.3246
12006TIP3   OH257432   3.766   0.049  14.673 -0.3836 -0.2643  0.2284
12006TIP3    H157433   3.674   0.066  14.654  0.2426  1.6125 -1.4575
12006TIP3    H257434   3.781   0.089  14.758 -1.0097 -0.1551  0.2899
12007TIP3   OH257435   2.222   4.491   1.785  0.0622 -0.2903 -0.4453
12007TIP3    H157436   2.206   4.416   1.843 -2.2467 -1.5328 -2.4840
12007TIP3    H257437   2.278   4.456   1.716 -1.6063 -0.4500 -1.7947
12008TIP3   OH257438   1.976   5.232   3.838 -0.4912  0.6211  0.2808
12008TIP3    H157439   1.991   5.138   3.821 -0.1564  0.3609  1.8422
12008TIP3    H257440   1.883   5.238   3.858 -0.5413  0.6458  0.0407
12009TIP3   OH257441   2.842   6.260   2.400  0.1463  0.5200  0.4055
12009TIP3    H157442   2.936   6.275   2.395  0.0939  0.8351  0.3228
12009TIP3    H257443   2.817   6.295   2.485  0.1342  0.2691  0.5044
12010TIP3   OH257444   0.180   0.868  14.026  0.7420  0.3188  0.1098
12010TIP3    H157445   0.089   0.860  13.997  0.7084  1.3722 -0.1175
12010TIP3    H257446   0.229   0.884  13.946  1.1272 -0.1804  0.2402
12011TIP3   OH257447   0.991   2.601   2.987  0.2118  0.2727 -0.3949
12011TIP3    H157448   0.977   2.552   2.906 -0.4328 -1.2091  0.5718
12011TIP3    H257449   1.070   2.562   3.024 -1.8262 -2.1686  1.7911
12012TIP3   OH257450   4.376   3.559  11.527 -0.8606 -0.1414 -0.0385
12012TIP3    H157451   4.324   3.480  11.511 -0.5842 -0.1662 -0.8441
12012TIP3    H257452   4.312   3.624  11.556 -1.0654 -0.6990  0.8200
12013TIP3   OH257453   3.268   5.277   2.980 -0.0985 -0.2392 -0.0783
12013TIP3    H157454   3.342   5.334   2.996 -0.9358  1.3953 -1.6801
12013TIP3    H257455   3.210   5.291   3.054 -0.5350  1.4820 -0.6925
12014TIP3   OH257456   1.445   1.659  11.902  0.2063  0.0688 -0.1382
12014TIP3    H157457   1.452   1.589  11.836 -1.3478 -0.1297 -0.1346
12014TIP3    H257458   1.427   1.613  11.984 -2.4841  0.4886 -0.4180
12015TIP3   OH257459   1.443   3.901   6.087 -0.6282 -0.4754 -0.1612
12015TIP3    H157460   1.483   3.987   6.095  0.1860 -0.6637 -1.8412
12015TIP3    H257461   1.370   3.914   6.025 -0.6220 -0.9439 -0.2716
12016TIP3   OH257462   0.754   3.595  12.660 -0.2200 -0.4921 -0.0399
12016TIP3    H157463   0.793   3.675  12.622 -1.9135  0.2975 -0.1864
12016TIP3    H257464   0.743   3.536  12.585  0.4044 -0.6175 -0.0417
12017TIP3   OH257465   1.421   2.207  15.391 -0.1339 -0.1868 -0.1336
12017TIP3    H157466   1.513   2.209  15.365 -0.0859 -0.0041  0.0502
12017TIP3    H257467   1.397   2.300  15.398  0.1229 -0.2204  1.4555
12018TIP3   OH257468   2.604   0.264  12.158  0.1142  0.0590 -0.6105
12018TIP3    H157469   2.581   0.295  12.245 -0.4435 -0.1214 -0.6928
12018TIP3    H257470   2.601   0.169  12.164  1.9630 -0.0242 -0.3218
12019TIP3   OH257471   4.499   6.547  15.538 -0.1028 -0.1509  0.1271
12019TIP3    H157472   4.542   6.594  15.466 -1.7632  1.8704  0.3529
12019TIP3    H257473   4.481   6.460  15.503  2.3564 -0.4413 -0.6024
12020TIP3   OH257474   0.931   2.548   4.198 -0.3713 -0.7331  0.3051
12020TIP3    H157475   0.897   2.634   4.221 -1.0244 -0.2215 -2.3187
12020TIP3    H257476   1.007   2.537   4.255 -0.1123  1.6924  0.5440
12021TIP3   OH257477   4.762   0.570  14.302 -0.3436 -0.3206 -0.4205
12021TIP3    H157478   4.742   0.616  14.221  1.4817 -0.8999 -1.2361
12021TIP3    H257479   4.717   0.486  14.293 -0.7116 -0.1199 -0.5012
12022TIP3   OH257480   2.221   6.000  12.832  0.2711  0.2641 -0.0912
12022TIP3    H157481   2.151   6.061  12.812  0.6486  0.3827 -1.1230
12022TIP3    H257482   2.278   6.004  12.755  1.5389  0.3590  0.8301
12023TIP3   OH257483   1.096   2.640  16.341  0.4496  0.2378  0.0738
12023TIP3    H157484   1.090   2.627  16.436  1.4025  0.6199  0.1990
12023TIP3    H257485   1.056   2.562  16.304 -0.3499  0.2923  0.7874
12024TIP3   OH257486   6.144   4.946   3.573  0.2345 -0.6424 -0.4906
12024TIP3    H157487   6.103   4.860   3.586  0.4037 -1.1622 -2.8861
12024TIP3    H257488   6.142   4.959   3.478  0.5485  1.8654 -0.2093
12025TIP3   OH257489   4.256   2.751  16.571 -0.1591  0.0723  0.0298
12025TIP3    H157490   4.314   2.824  16.549  0.4174  0.5133  2.6753
12025TIP3    H257491   4.304   2.673  16.545  0.1526  0.5367 -0.8424
12026TIP3   OH257492   0.732   0.052  12.319 -0.0975 -0.3683 -0.1711
12026TIP3    H157493   0.738   0.021  12.229 -1.2472 -0.6780 -0.1546
12026TIP3    H257494   0.773  -0.017  12.371 -0.5202 -0.7604 -0.3498
12027TIP3   OH257495   3.740   2.135  12.442 -0.9732  0.4002  0.0349
12027TIP3    H157496   3.776   2.049  12.462  1.4413  1.5023  0.8825
12027TIP3    H257497   3.699   2.125  12.357 -0.7754 -1.5923  0.1318
12028TIP3   OH257498   2.273   5.403   1.379  0.1895 -1.1297 -0.0703
12028TIP3    H157499   2.179   5.390   1.383  0.0219 -0.5559 -1.4623
12028TIP3    H257500   2.287   5.453   1.298  1.2061  3.2403  2.5172
12029TIP3   OH257501   4.483   1.373  16.502 -0.0201 -0.4206  0.7703
12029TIP3    H157502   4.461   1.288  16.462 -0.2230 -0.6650  1.3907
12029TIP3    H257503   4.553   1.352  16.564 -0.4126 -0.2214  1.2881
12030TIP3   OH257504   1.767   3.558  12.144 -0.0014  0.0463  0.1668
12030TIP3    H157505   1.815   3.477  12.127  1.0529 -0.1666  3.4983
12030TIP3    H257506   1.832   3.616  12.185 -1.3936  1.6045  0.2569
12031TIP3   OH257507   2.016   6.161  16.153 -0.7832  0.1707 -0.2932
12031TIP3    H157508   1.944   6.106  16.123 -1.7582  0.7861  0.8167
12031TIP3    H257509   2.000   6.173  16.246  0.7744  0.3368 -0.0178
12032TIP3   OH257510   2.483   1.432  14.643 -0.0155  0.5004 -0.6067
12032TIP3    H157511   2.427   1.465  14.573 -0.0976  1.0719 -0.2795
12032TIP3    H257512   2.571   1.437  14.607 -0.1071  0.2391 -0.8768
12033TIP3   OH257513   3.785   1.568  17.078  0.3864 -0.9260 -0.0943
12033TIP3    H157514   3.852   1.580  17.010  1.6295 -3.0580  0.6599
12033TIP3    H257515   3.728   1.500  17.043  0.1377 -0.9536  0.3702
12034TIP3   OH257516   2.983   2.001   2.935  0.2787 -0.1503  0.1971
12034TIP3    H157517   3.027   1.942   2.996  0.2979  0.6649  1.0040
12034TIP3    H257518   2.892   2.005   2.967  0.5976  1.3064  1.0085
12035TIP3   OH257519   1.951   6.355   0.883  0.2594  0.2192 -0.3057
12035TIP3    H157520   2.030   6.362   0.937 -0.0590  0.2577  0.1571
12035TIP3    H257521   1.879   6.357   0.945 -0.1529  1.0844 -0.7922
12036TIP3   OH257522   3.798   2.503   2.465  0.3076 -0.2338 -0.2438
12036TIP3    H157523   3.758   2.567   2.406 -3.0850 -2.2466 -0.3687
12036TIP3    H257524   3.835   2.437   2.407 -0.6600 -0.8572 -0.1785
12037TIP3   OH257525   6.740   0.807   1.186 -0.3906 -0.4337 -0.2905
12037TIP3    H157526   6.798   0.737   1.154 -1.5601 -1.2651 -0.6673
12037TIP3    H257527   6.792   0.853   1.252  0.6121 -1.3008 -0.4457
12038TIP3   OH257528   0.234   0.553   1.741  0.9372 -0.0914 -0.0840
12038TIP3    H157529   0.203   0.523   1.826 -1.1203  1.0764 -0.3614
12038TIP3    H257530   0.255   0.472   1.694  0.4043 -0.8375  0.9207
12039TIP3   OH257531   4.501   2.723  14.908 -0.2790  0.1267 -0.2584
12039TIP3    H157532   4.556   2.650  14.935  0.7149  0.6759 -0.7493
12039TIP3    H257533   4.496   2.780  14.984 -0.5753 -0.1578 -0.0619
12040TIP3   OH257534   4.144   0.746  13.736 -0.8867  0.0946  0.4196
12040TIP3    H157535   4.067   0.796  13.711 -1.4334  0.3818  2.5200
12040TIP3    H257536   4.127   0.657  13.705  0.1471  1.0673 -3.4647
12041TIP3   OH257537   4.265   5.269   2.620 -0.0170  0.2030 -0.1856
12041TIP3    H157538   4.226   5.258   2.533  0.1365  0.0342 -0.2347
12041TIP3    H257539   4.197   5.241   2.681  0.6152 -1.7710 -0.3317
12042TIP3   OH257540   2.239   1.485  14.834 -0.4309 -0.1942 -0.3189
12042TIP3    H157541   2.275   1.567  14.800  0.1516 -0.0731  0.5472
12042TIP3    H257542   2.283   1.416  14.783  0.1076 -0.0060 -0.1144
12043TIP3   OH257543   2.575   5.512   1.291  0.0791  0.4835 -0.6967
12043TIP3    H157544   2.570   5.533   1.384  1.9191  1.8351 -0.8359
12043TIP3    H257545   2.562   5.418   1.286  0.8177  0.2492  1.0400
12044TIP3   OH257546   5.118   6.693   5.695  0.5176 -0.3885  0.1572
12044TIP3    H157547   5.134   6.631   5.766 -0.6451 -0.0052  0.7825
12044TIP3    H257548   5.055   6.755   5.732  0.6509  0.3896 -0.8963
12045TIP3   OH257549   4.783   2.586  11.494 -0.4975  1.2910 -0.1901
12045TIP3    H157550   4.735   2.569  11.575 -0.1733  1.0733 -0.0459
12045TIP3    H257551   4.770   2.507  11.442 -0.0127  1.0962 -0.0146
12046TIP3   OH257552   5.106   4.794  17.378  0.0502 -0.2837  0.1224
12046TIP3    H157553   5.069   4.882  17.376 -0.5582 -0.5427 -0.2482
12046TIP3    H257554   5.200   4.808  17.378 -0.0247  0.3974  1.3760
12047TIP3   OH257555   3.189   5.543   3.379  0.5082 -0.2096  0.4183
12047TIP3    H157556   3.123   5.579   3.438  0.2148 -0.8588  0.4986
12047TIP3    H257557   3.215   5.617   3.325 -1.0186 -0.1474 -0.2927
12048TIP3   OH257558   0.172   0.522   5.127  0.7455  0.1494 -0.1547
12048TIP3    H157559   0.173   0.450   5.190 -0.1631 -0.1148 -0.4215
12048TIP3    H257560   0.169   0.601   5.181 -0.5436 -0.0880  0.1566
12049TIP3   OH257561   3.051   0.405   2.674  0.0426  0.1837 -0.0489
12049TIP3    H157562   3.081   0.492   2.697 -0.7847  0.5774 -0.4038
12049TIP3    H257563   3.027   0.411   2.581  2.7055 -1.1909 -0.9254
12050TIP3   OH257564   5.839   1.643  12.565 -0.1597 -0.4227 -0.4416
12050TIP3    H157565   5.933   1.653  12.554 -0.0279  1.4434  1.6199
12050TIP3    H257566   5.801   1.712  12.511 -0.1665  0.5771  0.8056
12051TIP3   OH257567   2.665   2.135  14.560 -0.0794  0.0250  0.3586
12051TIP3    H157568   2.590   2.082  14.535 -0.9668  0.9520  0.9710
12051TIP3    H257569   2.665   2.134  14.656  2.2507 -2.0635  0.4399
12052TIP3   OH257570   2.106   0.084  15.551  0.3770 -0.4083 -0.6416
12052TIP3    H157571   2.020   0.093  15.512  1.0270 -0.8145 -2.2444
12052TIP3    H257572   2.133  -0.005  15.529  0.9560 -0.4994  0.3782
12053TIP3   OH257573   5.208   0.002  12.031  0.3922  0.1383 -0.1269
12053TIP3    H157574   5.265   0.079  12.024  0.0703  0.8415  3.3516
12053TIP3    H257575   5.119   0.036  12.019  0.2740  0.2914  1.0808
12054TIP3   OH257576   2.437   0.836   2.671  0.1459  0.4112  0.3014
12054TIP3    H157577   2.508   0.882   2.627 -0.4420  1.7024  0.6714
12054TIP3    H257578   2.373   0.819   2.602  0.7286 -0.6584 -0.0099
12055TIP3   OH257579   4.866   3.563  16.850  0.0920 -0.4819  0.4003
12055TIP3    H157580   4.855   3.481  16.899  0.9279 -0.8384 -0.0025
12055TIP3    H257581   4.798   3.559  16.783 -0.0829 -0.6882  0.5825
12056TIP3   OH257582   2.837   3.854   1.063  0.0042 -0.5368 -0.2465
12056TIP3    H157583   2.847   3.766   1.026  1.7284 -0.1817 -0.7036
12056TIP3    H257584   2.776   3.897   1.003  2.8508  0.0752 -2.9536
12057TIP3   OH257585   3.998   1.224  15.745  0.9461  0.3325  0.3860
12057TIP3    H157586   3.983   1.316  15.725  1.4748  0.9780  2.6442
12057TIP3    H257587   4.087   1.221  15.782  0.0216 -0.5980  2.7525
12058TIP3   OH257588   1.858   6.085  17.193  0.2706  0.1101 -0.5933
12058TIP3    H157589   1.797   6.062  17.264 -0.6545  0.7549 -1.1641
12058TIP3    H257590   1.938   6.112  17.239  0.1368 -0.7239  0.1697
12059TIP3   OH257591   2.779   4.777   3.860 -0.2809 -0.5447 -0.0680
12059TIP3    H157592   2.849   4.818   3.809  0.7220  0.3188  1.8847
12059TIP3    H257593   2.699   4.820   3.831 -0.0487 -1.4031 -2.1978
12060TIP3   OH257594   4.719   1.382  15.237  0.6546 -0.1606  0.0697
12060TIP3    H157595   4.645   1.434  15.206  1.0149  0.0290 -0.4956
12060TIP3    H257596   4.765   1.356  15.157 -1.1728 -3.9240  0.0518
12061TIP3   OH257597   6.102   0.999  11.775 -0.3939 -0.3575 -0.1096
12061TIP3    H157598   6.127   1.080  11.820  0.2616 -0.9500  0.6360
12061TIP3    H257599   6.134   1.009  11.686 -0.1149  0.1128  0.0439
12062TIP3   OH257600   4.581   3.735   2.236 -0.7832  0.2626 -0.8313
12062TIP3    H157601   4.674   3.711   2.234 -0.3959  0.9562  3.0209
12062TIP3    H257602   4.576   3.814   2.181  1.0443  0.6456 -0.5192
12063TIP3   OH257603   2.150   2.184   3.004 -0.3977 -0.7428  0.2785
12063TIP3    H157604   2.122   2.106   2.957 -0.7112 -0.0988 -0.6514
12063TIP3    H257605   2.217   2.223   2.947  0.4142 -0.8136  1.1639
12064TIP3   OH257606   5.788   4.593  17.283  0.0957  0.4377  0.2232
12064TIP3    H157607   5.823   4.520  17.335  2.0984 -0.0922 -1.7096
12064TIP3    H257608   5.861   4.655  17.276 -0.0138  0.3855 -2.0532
12065TIP3   OH257609   6.099   1.731   1.129  0.1983 -0.3102  0.0589
12065TIP3    H157610   6.156   1.796   1.088  0.3033 -0.7166 -0.4530
12065TIP3    H257611   6.153   1.691   1.197  0.8105 -1.2412 -0.9372
12066TIP3   OH257612   2.588   0.493   4.299 -0.3937 -0.2626 -0.4610
12066TIP3    H157613   2.652   0.558   4.269 -0.6366  0.5476  0.6833
12066TIP3    H257614   2.639   0.430   4.349 -0.1860 -0.8517 -1.4015
12067TIP3   OH257615   5.990   0.296   5.323 -0.7092  0.1143  0.1532
12067TIP3    H157616   6.002   0.321   5.231 -3.4504  0.3326 -0.2536
12067TIP3    H257617   5.939   0.215   5.319 -1.5186  0.5236  1.4633
12068TIP3   OH257618   1.993   1.760  11.616  0.4602  0.1393 -0.4650
12068TIP3    H157619   1.981   1.705  11.693  3.0889  0.2961  0.1311
12068TIP3    H257620   1.971   1.848  11.646 -1.3463 -0.1771 -0.7484
12069TIP3   OH257621   3.530   3.943   4.915 -0.0813  0.0458  0.4084
12069TIP3    H157622   3.487   3.937   5.000 -0.6616 -0.0310  0.1197
12069TIP3    H257623   3.581   4.024   4.919 -0.2573  0.1403  0.7600
12070TIP3   OH257624   2.810   0.450   1.961 -0.0103  0.0788  0.1357
12070TIP3    H157625   2.892   0.449   2.010  0.6082 -1.6069 -0.8696
12070TIP3    H257626   2.821   0.520   1.897 -0.3910  1.5516  1.5944
12071TIP3   OH257627   5.048   3.556  15.865  0.0012  0.4650 -0.1072
12071TIP3    H157628   5.133   3.535  15.904 -1.1411 -0.5506  2.0226
12071TIP3    H257629   5.046   3.652  15.863  0.5312  0.5560  1.5618
12072TIP3   OH257630   1.121   0.059  14.366 -0.1094 -0.5993  0.6059
12072TIP3    H157631   1.192   0.001  14.339  1.7957  0.9748  2.0273
12072TIP3    H257632   1.099   0.031  14.454  1.4742  1.3217  1.6777
12073TIP3   OH257633   0.474   0.383   2.315 -0.1653 -0.5331 -1.0328
12073TIP3    H157634   0.535   0.316   2.283 -0.3529 -2.2252  1.7793
12073TIP3    H257635   0.392   0.365   2.268  0.1597 -1.4413 -1.2776
12074TIP3   OH257636   2.884   0.012  16.289 -0.4147  0.2624 -0.1078
12074TIP3    H157637   2.843  -0.051  16.229 -0.1603 -1.4837  1.4751
12074TIP3    H257638   2.923   0.078  16.231  0.6932 -1.8825 -1.9572
12075TIP3   OH257639   4.020   4.579  11.100  0.1638 -0.2627 -0.5560
12075TIP3    H157640   4.095   4.520  11.105 -0.2675 -0.7828 -0.1487
12075TIP3    H257641   4.058   4.664  11.081  0.8876 -0.4663 -0.0624
12076TIP3   OH257642   6.271   5.136   4.329  0.1132 -0.3391 -0.6625
12076TIP3    H157643   6.329   5.186   4.387  1.5386 -0.2168 -2.1322
12076TIP3    H257644   6.315   5.052   4.318 -0.4459 -0.5804 -1.0949
12077TIP3   OH257645   0.959   2.281   3.186 -0.4209  0.6204 -0.0027
12077TIP3    H157646   0.887   2.340   3.163 -0.7564 -0.4421 -1.9141
12077TIP3    H257647   0.917   2.197   3.201  0.2564  0.3964  0.7015
12078TIP3   OH257648   6.577   5.397   2.397  0.2526  0.5894  0.0239
12078TIP3    H157649   6.576   5.304   2.420 -0.6476  0.8366  1.0910
12078TIP3    H257650   6.513   5.405   2.326  0.6793  0.3257 -0.3951
12079TIP3   OH257651   5.204   1.336  17.110  0.4728 -0.0801 -0.3367
12079TIP3    H157652   5.231   1.322  17.201 -0.0786  3.9341  0.6286
12079TIP3    H257653   5.286   1.343  17.062  0.8624  0.2286  0.3476
12080TIP3   OH257654   3.506   1.886   0.390 -0.3828 -0.0683  0.8912
12080TIP3    H157655   3.530   1.793   0.391 -0.6418 -0.1538  2.9588
12080TIP3    H257656   3.413   1.887   0.410 -0.4143  0.6341  0.7286
12081TIP3   OH257657   0.077   3.933  17.295 -0.1238  0.4527  0.2808
12081TIP3    H157658  -0.014   3.952  17.318 -0.2722  1.1725 -0.8363
12081TIP3    H257659   0.125   3.938  17.378 -1.0676  0.2490  0.8476
12082TIP3   OH257660   0.864   4.414   2.744 -0.9337  0.3485 -0.1443
12082TIP3    H157661   0.780   4.429   2.702 -0.7915 -1.1202 -1.0392
12082TIP3    H257662   0.929   4.449   2.684 -0.8948  1.7318  0.6732
12083TIP3   OH257663   2.558   1.213   4.046  0.6013 -0.1542 -0.2626
12083TIP3    H157664   2.568   1.137   4.104  2.2026  0.4236  0.2605
12083TIP3    H257665   2.481   1.259   4.081  0.9634 -0.3357  0.8189
12084TIP3   OH257666   6.287   5.471   5.738  0.1763  0.1935  0.3221
12084TIP3    H157667   6.350   5.403   5.763 -0.2369 -0.9650 -1.6297
12084TIP3    H257668   6.202   5.426   5.736 -0.0230  0.5798 -1.5674
12085TIP3   OH257669   4.643   5.229  17.394 -0.1976  0.0071  0.4546
12085TIP3    H157670   4.625   5.135  17.400 -1.6802  0.3511  4.0857
12085TIP3    H257671   4.686   5.240  17.310 -0.6574 -3.7978 -0.4570
12086TIP3   OH257672   2.561   1.719   1.483 -0.2801 -0.0224  0.5405
12086TIP3    H157673   2.588   1.758   1.566 -0.0864 -2.0647  1.4937
12086TIP3    H257674   2.622   1.647   1.470 -1.4975 -0.9084 -0.4037
12087TIP3   OH257675   3.983   3.578  13.809  0.2691 -0.0983  0.1429
12087TIP3    H157676   4.004   3.669  13.830  0.8803 -0.4656  1.1944
12087TIP3    H257677   3.895   3.566  13.845 -0.3659  0.4298 -1.1566
12088TIP3   OH257678   2.406   4.790   4.076 -0.2323 -0.0953 -0.1265
12088TIP3    H157679   2.375   4.874   4.109  0.3386  0.0451  0.0709
12088TIP3    H257680   2.500   4.804   4.061 -0.1720 -0.6428 -0.2664
12089TIP3   OH257681   0.960   0.728  16.067  0.2652  0.0129 -0.3297
12089TIP3    H157682   1.045   0.729  16.021 -0.3057 -1.9820 -1.5462
12089TIP3    H257683   0.978   0.685  16.150  0.8307  1.4710  0.3283
12090TIP3   OH257684   5.865   0.754   0.450 -0.0629 -0.0248 -0.2942
12090TIP3    H157685   5.790   0.696   0.458 -0.4073  0.6499  2.1242
12090TIP3    H257686   5.928   0.705   0.397 -0.8296 -2.0965  0.5989
12091TIP3   OH257687   1.923   6.481  10.367 -0.5225  0.0565  0.0585
12091TIP3    H157688   1.944   6.403  10.315 -0.0764  0.9195 -1.0836
12091TIP3    H257689   1.870   6.447  10.439  1.4497 -1.6259  0.8272
12092TIP3   OH257690   1.795   1.159   2.904 -0.0456 -0.5472  0.0170
12092TIP3    H157691   1.884   1.183   2.930 -0.5776  0.5010  0.9719
12092TIP3    H257692   1.806   1.081   2.850  1.3251 -1.4839  1.5476
12093TIP3   OH257693   2.813   6.133   0.003 -0.2311  0.0416  0.0906
12093TIP3    H157694   2.835   6.162  -0.086  0.2483 -2.4379 -0.6698
12093TIP3    H257695   2.720   6.113  -0.001  0.2571 -2.4900 -0.6876
12094TIP3   OH257696   0.475   2.986   3.107 -0.2366 -0.4965 -0.2278
12094TIP3    H157697   0.558   2.964   3.150  1.1811  0.4475 -2.2565
12094TIP3    H257698   0.454   3.074   3.139 -0.1870 -0.5469 -0.0585
12095TIP3   OH257699   5.562   1.313  12.849 -0.8287  0.1243 -0.1124
12095TIP3    H157700   5.515   1.295  12.931 -0.1486 -0.6684  0.1235
12095TIP3    H257701   5.630   1.375  12.874 -0.5192 -0.2426 -0.0400
12096TIP3   OH257702   4.439   5.062  13.832  0.2941 -0.2287  0.4623
12096TIP3    H157703   4.404   4.975  13.848 -0.0438 -0.4761 -1.3769
12096TIP3    H257704   4.496   5.052  13.755  1.0025  0.9906  0.7977
12097TIP3   OH257705   5.539   2.529   4.285  0.0423 -0.1116  0.0344
12097TIP3    H157706   5.580   2.446   4.308  0.9909  0.2421 -0.3213
12097TIP3    H257707   5.604   2.595   4.308  0.6867  0.3214 -2.6584
12098TIP3   OH257708   4.038   4.389  12.594 -0.5894 -0.3711 -0.1844
12098TIP3    H157709   3.985   4.354  12.665 -0.2430  0.5351  0.5322
12098TIP3    H257710   4.117   4.423  12.637 -0.1732 -0.2098 -1.0520
12099TIP3   OH257711   5.821   3.402  15.037 -0.8221 -0.1142 -0.5635
12099TIP3    H157712   5.895   3.407  15.097 -1.1976  0.0395 -0.1108
12099TIP3    H257713   5.753   3.455  15.078 -0.2242  2.2521 -2.3513
12100TIP3   OH257714   2.463   5.865   3.553  0.0092  0.3684  0.7337
12100TIP3    H157715   2.553   5.898   3.557 -0.6638  2.3165  3.9330
12100TIP3    H257716   2.416   5.931   3.502  0.0932  0.1974  0.4334
12101TIP3   OH257717   2.588   3.514  14.590 -0.2556 -0.0973  0.2845
12101TIP3    H157718   2.637   3.432  14.586 -0.2556 -0.2451  2.2243
12101TIP3    H257719   2.587   3.537  14.683  0.6070  2.6440 -0.2828
12102TIP3   OH257720   6.043   0.803  17.408  0.2540  0.5395 -0.5931
12102TIP3    H157721   6.098   0.747  17.462  1.0485  2.2559  0.4499
12102TIP3    H257722   6.104   0.865  17.367 -0.7525  1.7123 -0.3829
12103TIP3   OH257723   2.293   5.656   5.237  0.2223 -0.5120  0.2799
12103TIP3    H157724   2.203   5.687   5.223 -0.1018 -1.2125  0.7419
12103TIP3    H257725   2.323   5.630   5.150 -0.6240 -1.8276  0.3466
12104TIP3   OH257726   5.995   4.971  16.462 -0.0671 -0.3464  0.2781
12104TIP3    H157727   6.038   4.886  16.473 -2.4456 -1.5688  0.7978
12104TIP3    H257728   6.066   5.031  16.441  1.8918 -2.1813  1.2712
12105TIP3   OH257729   0.274   5.809  11.093 -0.4772 -0.4648 -0.4830
12105TIP3    H157730   0.331   5.769  11.158 -0.9242  0.6200  0.6152
12105TIP3    H257731   0.236   5.736  11.045 -0.2427 -1.2942  0.5757
12106TIP3   OH257732   1.733   0.270  11.245 -0.4364 -0.3630  0.4177
12106TIP3    H157733   1.794   0.269  11.172  0.0954 -0.4569  0.8597
12106TIP3    H257734   1.788   0.281  11.323 -0.9925 -0.2763  0.8060
12107TIP3   OH257735   3.465   2.608  11.379 -0.4385 -0.8380 -0.0378
12107TIP3    H157736   3.431   2.522  11.402  0.1538 -1.6628 -1.9722
12107TIP3    H257737   3.436   2.621  11.288  0.9662  0.1927 -0.3717
12108TIP3   OH257738   1.659   6.327   2.194 -0.5465  0.6359  0.3373
12108TIP3    H157739   1.667   6.333   2.099 -0.2560 -1.4289  0.1844
12108TIP3    H257740   1.728   6.385   2.227 -0.3908  1.0821 -0.7206
12109TIP3   OH257741   2.619   0.101   3.711 -0.1016  0.4262  0.3313
12109TIP3    H157742   2.538   0.067   3.673 -0.6506  0.7958  1.1194
12109TIP3    H257743   2.591   0.180   3.759  0.7801  0.7390  0.3482
12110TIP3   OH257744   0.819   0.281  14.854 -0.7769  0.3792  0.0375
12110TIP3    H157745   0.901   0.274  14.805 -0.6210 -0.9001  0.4543
12110TIP3    H257746   0.784   0.192  14.855 -0.6636  0.2954  2.4046
12111TIP3   OH257747   2.797   6.572  13.238 -0.5788 -0.2859 -0.3466
12111TIP3    H157748   2.736   6.498  13.244 -2.1299  1.0245  1.2665
12111TIP3    H257749   2.884   6.531  13.232 -1.2971 -2.2652  1.4730
12112TIP3   OH257750   3.796   4.254   5.748  0.0073  0.3230 -0.0522
12112TIP3    H157751   3.776   4.164   5.774 -2.3811  0.8731  0.2629
12112TIP3    H257752   3.791   4.305   5.829  0.8715  0.8286 -0.3001
12113TIP3   OH257753   1.063   2.029  16.313 -0.0867  0.4525 -0.0183
12113TIP3    H157754   1.094   1.972  16.243  1.5589  1.7093 -0.3750
12113TIP3    H257755   0.975   2.055  16.286 -0.4527 -1.0611 -0.3512
12114TIP3   OH257756   4.350   1.783   6.112  0.4967 -0.6772 -0.0940
12114TIP3    H157757   4.393   1.698   6.101  1.6686 -0.0782 -0.4258
12114TIP3    H257758   4.299   1.795   6.032 -0.0573 -1.2770  0.1690
12115TIP3   OH257759   4.972   2.850  11.824  0.4945  0.7240 -0.4173
12115TIP3    H157760   5.052   2.814  11.786  0.5204  0.4685 -0.1281
12115TIP3    H257761   4.943   2.916  11.761 -0.9209 -1.5090 -2.2242
12116TIP3   OH257762   4.492   3.529  13.576  0.2220  0.3019  0.1119
12116TIP3    H157763   4.407   3.550  13.536  0.6180 -0.2685 -1.0582
12116TIP3    H257764   4.470   3.475  13.652 -0.4555 -0.0161 -0.3005
12117TIP3   OH257765   0.255   6.319   6.355  0.4561 -0.4641  0.3189
12117TIP3    H157766   0.248   6.404   6.398 -1.6040  0.1292 -1.0020
12117TIP3    H257767   0.237   6.255   6.423 -1.8997  0.4021  0.5999
12118TIP3   OH257768   1.117   5.862   1.267 -0.0217 -0.3100 -0.2448
12118TIP3    H157769   1.106   5.941   1.214 -2.6037  0.3988  1.2131
12118TIP3    H257770   1.060   5.797   1.225  0.7506 -0.8935 -0.4198
12119TIP3   OH257771   0.395   0.451   2.625 -0.2550  0.9444  0.1067
12119TIP3    H157772   0.416   0.439   2.533 -1.9145 -0.4268 -0.1331
12119TIP3    H257773   0.473   0.418   2.671 -0.9195 -2.2464 -0.7746
12120TIP3   OH257774   6.611   3.198  12.900 -0.5246 -0.0938  0.1903
12120TIP3    H157775   6.588   3.109  12.924  0.4203 -0.0349  1.4132
12120TIP3    H257776   6.665   3.230  12.973  1.0555  0.7008 -1.2581
12121TIP3   OH257777   5.821   0.816  17.174  0.3236  0.2434 -0.4537
12121TIP3    H157778   5.779   0.873  17.110  0.8745  0.3477 -0.7303
12121TIP3    H257779   5.896   0.866  17.206  0.4393 -0.0698 -0.2241
12122TIP3   OH257780   0.182   6.563   6.007  0.6612 -0.1495  0.2637
12122TIP3    H157781   0.144   6.536   5.923  2.0883  0.5420 -0.6342
12122TIP3    H257782   0.147   6.499   6.070 -1.0698 -0.2116 -0.6817
12123TIP3   OH257783   5.897   2.904  16.561  0.5823 -0.4795  0.3463
12123TIP3    H157784   5.873   2.894  16.653 -2.4214  0.0822 -0.2777
12123TIP3    H257785   5.874   2.994  16.540  0.3771 -0.8692 -1.1797
12124TIP3   OH257786   5.129   4.155   1.647  0.1649  0.4532  0.1964
12124TIP3    H157787   5.033   4.159   1.640  0.1701  0.7943  0.2916
12124TIP3    H257788   5.157   4.111   1.568  0.0609  2.0671 -0.7810
12125TIP3   OH257789   5.438   6.428  14.917  0.1516 -0.3473  0.1080
12125TIP3    H157790   5.432   6.355  14.979  1.1573 -0.9163 -0.4431
12125TIP3    H257791   5.504   6.486  14.954  0.6435 -0.6124 -0.3389
12126TIP3   OH257792   0.087   3.172  14.799  0.4828 -0.6142 -0.1400
12126TIP3    H157793   0.121   3.137  14.881  0.8930 -1.0150 -0.4780
12126TIP3    H257794   0.039   3.251  14.825 -1.6508 -2.1203  0.8342
12127TIP3   OH257795   5.890   2.665   2.391 -0.0931  0.2602 -0.0243
12127TIP3    H157796   5.867   2.573   2.397  0.8015 -0.1536 -2.0798
12127TIP3    H257797   5.871   2.701   2.478  0.7031 -2.1168  1.2042
12128TIP3   OH257798   6.507   2.444  15.013 -0.4939  0.0841 -0.2182
12128TIP3    H157799   6.554   2.486  14.942 -0.7847 -0.3890 -0.6979
12128TIP3    H257800   6.574   2.395  15.061 -0.4523 -0.3970 -0.7569
12129TIP3   OH257801   0.981   5.336   6.573 -0.1908  0.3225  0.1257
12129TIP3    H157802   0.935   5.365   6.652  2.0177  2.2244  0.8446
12129TIP3    H257803   0.925   5.363   6.501 -0.5520  2.0221  0.9733
12130TIP3   OH257804   2.514   5.662   3.934 -0.0870  0.6831  0.1843
12130TIP3    H157805   2.600   5.702   3.922  0.3255 -0.4319 -0.8052
12130TIP3    H257806   2.453   5.722   3.891  0.5235  0.2502 -1.3427
12131TIP3   OH257807   6.590   2.592  13.558 -0.6449 -0.1127  0.5468
12131TIP3    H157808   6.531   2.666  13.570  2.7507  2.8517  0.2339
12131TIP3    H257809   6.607   2.560  13.646  0.4848  1.7660  1.0552
12132TIP3   OH257810   5.660   0.695   1.276  0.0391 -0.4899  0.3449
12132TIP3    H157811   5.587   0.649   1.234  0.8924 -2.5766  1.0245
12132TIP3    H257812   5.683   0.640   1.351  1.6020  0.7056  0.7808
12133TIP3   OH257813   4.258   5.905  11.437 -0.3269 -0.1744  0.2403
12133TIP3    H157814   4.318   5.868  11.501 -2.0772 -1.7627  1.0596
12133TIP3    H257815   4.314   5.939  11.368  1.5044 -1.2780  1.1223
12134TIP3   OH257816   6.342   0.132  12.302  0.9770 -0.0300  0.1037
12134TIP3    H157817   6.321   0.211  12.251  1.1696 -0.5010 -0.7227
12134TIP3    H257818   6.330   0.060  12.240  0.4778 -0.6882  0.9419
12135TIP3   OH257819   3.689   4.183   3.437  0.0286  0.3013 -0.4315
12135TIP3    H157820   3.651   4.193   3.525  2.4655  2.5769  0.4860
12135TIP3    H257821   3.738   4.101   3.441 -3.1336 -1.8385 -1.1359
12136TIP3   OH257822   4.341   3.593  15.633  0.5798 -0.7353 -0.6390
12136TIP3    H157823   4.384   3.538  15.698 -0.8689 -0.0889  0.9158
12136TIP3    H257824   4.304   3.530  15.570  1.2603 -1.3932 -0.4062
12137TIP3   OH257825   6.384   1.317   3.653 -0.1911  0.3541 -0.2717
12137TIP3    H157826   6.476   1.312   3.630 -0.1187 -0.3537  0.1517
12137TIP3    H257827   6.338   1.317   3.569  0.0678 -1.9847 -0.4724
12138TIP3   OH257828   4.397   5.300  11.234 -0.2504  0.0391  0.0517
12138TIP3    H157829   4.401   5.369  11.167  1.7930  0.2105  0.2837
12138TIP3    H257830   4.439   5.339  11.310 -0.0836 -1.0886  0.5542
12139TIP3   OH257831   3.754   3.765  10.933  0.1697  0.3528  0.1547
12139TIP3    H157832   3.710   3.788  10.851 -1.8957 -0.1575  1.0565
12139TIP3    H257833   3.838   3.728  10.905  1.1698  3.5316 -1.5505
12140TIP3   OH257834   1.054   6.435  17.119  0.0681  0.5216 -0.0152
12140TIP3    H157835   0.981   6.486  17.084 -0.3611 -0.0089  0.1091
12140TIP3    H257836   1.047   6.350  17.077 -1.3872 -0.6690  2.4537
12141TIP3   OH257837   5.913   6.312  11.763 -0.7967  0.5510 -0.1851
12141TIP3    H157838   5.854   6.297  11.836 -1.3460  0.3098 -0.6656
12141TIP3    H257839   5.904   6.405  11.743 -1.1755  0.4784 -0.3787
12142TIP3   OH257840   0.393   5.194  11.987 -0.4586 -0.2654  0.1202
12142TIP3    H157841   0.367   5.266  12.044  4.4239  1.0036  1.1787
12142TIP3    H257842   0.381   5.228  11.898 -0.0817  1.1370  0.5788
12143TIP3   OH257843   3.459   1.564   3.036  0.0894  0.2936  0.2344
12143TIP3    H157844   3.526   1.496   3.043  0.4201  0.6584  0.6733
12143TIP3    H257845   3.488   1.619   2.964 -0.6462 -0.5276 -0.7268
12144TIP3   OH257846   5.912   2.782  10.332 -0.1406 -0.4033  0.4694
12144TIP3    H157847   5.890   2.699  10.288  0.2240 -0.0730 -0.3435
12144TIP3    H257848   5.936   2.755  10.421  0.7077 -1.2640  0.0027
12145TIP3   OH257849   5.921   6.680   4.072  0.2315 -0.3111 -0.1277
12145TIP3    H157850   5.964   6.689   4.157 -1.2699  0.2301  0.6019
12145TIP3    H257851   5.901   6.586   4.065  0.4048 -0.3643  0.0756
12146TIP3   OH257852   1.355   5.728  13.365 -0.0206 -0.3950 -0.4244
12146TIP3    H157853   1.297   5.804  13.358 -0.3776 -0.5960  0.2458
12146TIP3    H257854   1.389   5.732  13.455 -1.9249 -2.3445  0.4824
12147TIP3   OH257855   4.977   5.934  16.658 -0.2202 -0.4876  0.1468
12147TIP3    H157856   5.017   5.998  16.600  1.2304 -0.9663  0.5688
12147TIP3    H257857   4.928   5.986  16.722 -1.2462  0.0654 -1.0475
12148TIP3   OH257858   5.268   3.036  17.015  0.2091  0.6311  0.3505
12148TIP3    H157859   5.173   3.037  17.006 -0.1603 -1.0465  3.0333
12148TIP3    H257860   5.291   2.943  17.020  2.0712  0.9892 -0.7080
12149TIP3   OH257861   0.905   5.571  12.302 -0.5282 -0.1991  0.2479
12149TIP3    H157862   0.982   5.552  12.249 -0.8735 -1.6608  0.2443
12149TIP3    H257863   0.886   5.489  12.347 -2.0780  0.1447  0.2650
12150TIP3   OH257864   3.712   0.610  14.433 -0.1192  0.5185  0.4263
12150TIP3    H157865   3.685   0.621  14.525  0.9976  1.2168  0.6909
12150TIP3    H257866   3.807   0.600  14.438 -0.2335 -1.2328 -0.5235
12151TIP3   OH257867   3.155   0.578  17.143 -0.2630  0.2273 -0.3500
12151TIP3    H157868   3.202   0.560  17.224  2.9784  0.5681 -1.9901
12151TIP3    H257869   3.098   0.652  17.164  0.8994  0.6519  1.4967
12152TIP3   OH257870   1.464   4.628  12.064  0.3814  0.2015  0.0405
12152TIP3    H157871   1.559   4.619  12.072  0.3250  0.4531  1.0255
12152TIP3    H257872   1.429   4.592  12.145 -0.4228 -0.7089 -0.6882
12153TIP3   OH257873   5.969   2.034   1.230 -0.3587  0.3046 -0.0909
12153TIP3    H157874   6.043   2.094   1.236 -0.4323  0.3825  0.0537
12153TIP3    H257875   6.006   1.954   1.194  0.5419 -0.8498  3.0781
12154TIP3   OH257876   0.970   2.193   2.357 -0.4149 -0.4988 -0.1381
12154TIP3    H157877   0.995   2.184   2.449  0.3805  2.5713  0.0479
12154TIP3    H257878   0.888   2.243   2.360 -0.4674 -0.5106 -1.0998
12155TIP3   OH257879   2.707   4.926   3.012 -0.3214 -0.0435 -0.0837
12155TIP3    H157880   2.765   4.996   3.042  0.3216 -0.8619  0.6318
12155TIP3    H257881   2.752   4.886   2.938  1.5235 -2.5395  2.1919
12156TIP3   OH257882   2.412   2.724   4.116  0.1455 -0.1229 -0.6857
12156TIP3    H157883   2.470   2.770   4.055  1.0289  1.4063  1.2124
12156TIP3    H257884   2.413   2.777   4.195 -1.4613 -1.7017  0.4782
12157TIP3   OH257885   3.281   5.162   0.901 -0.0332  0.1897 -0.4657
12157TIP3    H157886   3.262   5.239   0.956 -1.5912 -1.0525  0.8424
12157TIP3    H257887   3.203   5.106   0.911  0.1789 -0.6591 -3.0029
12158TIP3   OH257888   2.302   4.570  16.584  0.5583  0.5555 -0.1934
12158TIP3    H157889   2.288   4.516  16.662 -1.1064  0.8354 -0.2536
12158TIP3    H257890   2.245   4.646  16.598 -1.0437 -0.1444 -2.3646
12159TIP3   OH257891   1.192   0.899   5.863  0.1199  0.1391  0.7785
12159TIP3    H157892   1.109   0.912   5.818  0.3190 -0.6910  0.1586
12159TIP3    H257893   1.167   0.888   5.955 -0.2441  2.3500  0.9967
12160TIP3   OH257894   6.101   1.696   4.305 -0.0363  0.4571  0.1826
12160TIP3    H157895   6.148   1.638   4.246  0.7803  2.0509 -0.8173
12160TIP3    H257896   6.071   1.640   4.376  0.7320 -1.1488 -0.7151
12161TIP3   OH257897   3.054   1.428   1.525 -0.2814  0.1368  0.4170
12161TIP3    H157898   3.139   1.421   1.568  1.1989  1.4694 -2.0399
12161TIP3    H257899   3.050   1.519   1.495 -0.7341 -0.8360 -2.9133
12162TIP3   OH257900   1.303   0.635  17.190 -0.4798 -0.1216 -0.0753
12162TIP3    H157901   1.355   0.558  17.168  0.4942  0.8384 -1.2852
12162TIP3    H257902   1.255   0.611  17.270 -1.2685 -2.4613 -1.1717
12163TIP3   OH257903   2.229   0.998  13.427 -0.1931  0.1613  0.0068
12163TIP3    H157904   2.217   0.957  13.341  3.2083 -0.3959 -0.3760
12163TIP3    H257905   2.191   0.936  13.488 -0.4620 -0.6660 -0.9658
12164TIP3   OH257906   0.559   2.499  14.243  0.6783 -0.2574 -0.6285
12164TIP3    H157907   0.486   2.561  14.244  0.1154 -0.9040 -0.8213
12164TIP3    H257908   0.637   2.554  14.254  0.1433  0.4058  0.0225
12165TIP3   OH257909   5.162   5.718   4.320  0.2168 -0.1804  0.5892
12165TIP3    H157910   5.111   5.789   4.358 -0.2174 -1.0575  1.7089
12165TIP3    H257911   5.098   5.648   4.304  0.7682 -0.6243  0.2680
12166TIP3   OH257912   5.434   1.835  10.728  0.1515 -0.4878  0.2167
12166TIP3    H157913   5.356   1.814  10.778  0.4870 -0.2758  0.8426
12166TIP3    H257914   5.402   1.856  10.640 -0.7743  1.9435  1.0436
12167TIP3   OH257915   3.831   3.402  17.340 -0.1709  0.2467  0.2637
12167TIP3    H157916   3.832   3.371  17.431  2.0001 -0.2135  0.1107
12167TIP3    H257917   3.816   3.497  17.348 -1.5185  0.0015  0.9870
12168TIP3   OH257918   0.330   1.796   1.177 -0.2159 -0.4160  0.0106
12168TIP3    H157919   0.391   1.744   1.125  1.2598  0.6533  0.5928
12168TIP3    H257920   0.243   1.771   1.145  0.4721 -2.4739 -0.3946
12169TIP3   OH257921   1.606   3.587  15.332  0.6381  0.8023 -0.6426
12169TIP3    H157922   1.576   3.673  15.304 -0.3591  0.5124 -0.4793
12169TIP3    H257923   1.587   3.529  15.258 -1.6341  0.1118  0.4010
12170TIP3   OH257924   6.572   4.463   2.340 -0.4593 -0.5432 -0.2153
12170TIP3    H157925   6.515   4.473   2.417 -0.9904  0.2260 -0.6854
12170TIP3    H257926   6.519   4.496   2.267 -0.1800 -1.7913 -1.0167
12171TIP3   OH257927   4.703   2.792   0.753 -0.1301  0.3448  0.3244
12171TIP3    H157928   4.628   2.753   0.799 -1.4037  0.8129 -1.2835
12171TIP3    H257929   4.667   2.868   0.709  0.5888 -1.0558 -2.9199
12172TIP3   OH257930   0.157   4.559  12.280 -0.1814  0.1975  0.2627
12172TIP3    H157931   0.106   4.637  12.259  0.4402  0.6925  0.5659
12172TIP3    H257932   0.121   4.528  12.363 -0.4379  0.1511  0.1342
12173TIP3   OH257933   3.274   4.170  13.683 -0.5425  0.3693  0.1656
12173TIP3    H157934   3.268   4.262  13.658 -0.7784  0.5068  0.7194
12173TIP3    H257935   3.186   4.147  13.711 -0.3533  0.1378  0.5807
12174TIP3   OH257936   4.649   6.637   6.450 -0.0795  0.0064 -0.2417
12174TIP3    H157937   4.557   6.637   6.475 -0.7186  0.6249 -2.3938
12174TIP3    H257938   4.671   6.730   6.439  0.7574 -0.1427  0.0819
12175TIP3   OH257939   6.263   4.654   2.931 -0.3656  0.3438 -0.3882
12175TIP3    H157940   6.308   4.577   2.897  0.6999 -0.7429  3.0825
12175TIP3    H257941   6.179   4.620   2.963 -0.0487  0.6540  0.8182
12176TIP3   OH257942   4.458   6.273  15.027 -0.1069  0.4385  0.3041
12176TIP3    H157943   4.487   6.279  15.118 -1.1574 -1.6044  0.8527
12176TIP3    H257944   4.538   6.255  14.978  0.3386  0.5357  0.9735
12177TIP3   OH257945   1.982   5.428   3.121  0.3829 -1.0730 -0.3100
12177TIP3    H157946   1.951   5.339   3.106  1.1469 -1.4827  0.4185
12177TIP3    H257947   2.068   5.417   3.162 -0.3573 -0.0425  1.6852
12178TIP3   OH257948   4.535   1.800   4.028  0.1741  0.1839 -0.0004
12178TIP3    H157949   4.510   1.884   3.989 -0.1739  0.3336  0.5229
12178TIP3    H257950   4.456   1.771   4.074  0.0140 -0.8863 -0.9344
12179TIP3   OH257951   4.653   2.220  13.121 -0.5237 -0.0635  0.2530
12179TIP3    H157952   4.721   2.276  13.084  0.3588 -0.5851  1.0700
12179TIP3    H257953   4.638   2.255  13.209 -1.9553  0.5889 -0.2019
12180TIP3   OH257954   2.039   1.351  17.079  0.0885 -0.1736  0.7391
12180TIP3    H157955   2.066   1.436  17.113  1.8526 -1.1633  1.9770
12180TIP3    H257956   2.038   1.362  16.984 -0.7785  1.5038  0.9154
12181TIP3   OH257957   6.700   2.235  15.498 -0.2393 -0.0154  0.1556
12181TIP3    H157958   6.748   2.278  15.569  0.4058 -0.4361 -0.0182
12181TIP3    H257959   6.705   2.142  15.518 -0.0920 -0.1351 -0.4092
12182TIP3   OH257960   4.289   6.380   4.294  0.3030 -0.2338 -0.1986
12182TIP3    H157961   4.204   6.360   4.254  0.8332  0.4642 -1.7339
12182TIP3    H257962   4.352   6.369   4.223  1.5999 -1.3567  1.0777
12183TIP3   OH257963   0.714   1.101  15.467  0.4032  0.0735  0.6128
12183TIP3    H157964   0.762   1.158  15.405 -0.1776 -0.3522 -0.2479
12183TIP3    H257965   0.623   1.108  15.440 -0.4141  2.4101  3.4404
12184TIP3   OH257966   2.436   3.941   3.455 -0.4313  0.2686  0.3415
12184TIP3    H157967   2.504   3.930   3.521 -1.1793 -1.5804  0.8788
12184TIP3    H257968   2.483   3.957   3.373  0.6681 -0.7520  0.7446
12185TIP3   OH257969   1.066   2.931   2.221  0.0933 -0.0345  0.1035
12185TIP3    H157970   1.068   2.880   2.301 -0.0090 -0.0637  0.0870
12185TIP3    H257971   1.115   2.879   2.158  1.0129  0.4346  0.4150
12186TIP3   OH257972   0.745   6.501  13.065  0.1677 -0.3786 -0.0724
12186TIP3    H157973   0.769   6.409  13.076  2.4157  0.3082  1.5255
12186TIP3    H257974   0.751   6.538  13.153  0.9367  1.6278 -0.9029
12187TIP3   OH257975   1.585   2.321  11.369 -0.3834 -0.3015 -0.3093
12187TIP3    H157976   1.493   2.293  11.362 -0.7121  0.5341  0.4990
12187TIP3    H257977   1.632   2.243  11.398 -0.6471 -1.0308 -1.7283
12188TIP3   OH257978   0.194   1.402  12.864  0.0446 -0.5297  0.1269
12188TIP3    H157979   0.243   1.439  12.938 -1.0216 -1.2194  1.2128
12188TIP3    H257980   0.164   1.478  12.815  0.4948 -0.0501  0.5793
12189TIP3   OH257981   2.050   5.762   3.704 -0.3524  0.5280  0.1484
12189TIP3    H157982   1.969   5.754   3.754 -0.6274 -1.1560 -0.4889
12189TIP3    H257983   2.033   5.832   3.641 -0.2563  2.1610  1.8320
12190TIP3   OH257984   0.516   3.761   3.698 -0.6856 -0.0202  0.2178
12190TIP3    H157985   0.478   3.677   3.724  0.5971 -1.8761 -3.1700
12190TIP3    H257986   0.609   3.743   3.684 -0.0143  2.4344  0.9740
12191TIP3   OH257987   6.500   1.688   0.876 -0.0415  0.0120  0.1720
12191TIP3    H157988   6.432   1.620   0.873  0.3529 -0.5265  1.8600
12191TIP3    H257989   6.511   1.706   0.970  0.0931  2.2056 -0.2082
12192TIP3   OH257990   0.535   6.286  14.660  0.4519 -0.1316  0.0591
12192TIP3    H157991   0.538   6.302  14.566  1.5816 -1.7225 -0.2083
12192TIP3    H257992   0.627   6.288  14.688  0.4477 -2.8126  0.5166
12193TIP3   OH257993   4.223   0.543   5.262  0.0044  0.3433  0.1790
12193TIP3    H157994   4.247   0.451   5.256  0.8459  0.6092 -0.8888
12193TIP3    H257995   4.229   0.564   5.355 -2.7158 -1.2964  0.8399
12194TIP3   OH257996   3.018   6.703   4.900 -0.4778 -0.1622  0.0010
12194TIP3    H157997   2.965   6.738   4.972  0.0075  1.4999 -0.4160
12194TIP3    H257998   2.977   6.737   4.821  1.2245  1.2913 -0.3321
12195TIP3   OH257999   0.443   3.883  16.642 -0.6236  0.3067  0.0502
12195TIP3    H158000   0.354   3.919  16.647  0.6222  3.6617  1.0179
12195TIP3    H258001   0.474   3.884  16.733  0.0517 -2.0495 -0.0894
12196TIP3   OH258002   0.472   5.588  16.173 -0.2795 -0.1006 -0.4832
12196TIP3    H158003   0.553   5.603  16.125 -1.3515  2.0999 -1.7439
12196TIP3    H258004   0.501   5.552  16.257  2.0118  0.7191 -0.8500
12197TIP3   OH258005   3.828   3.191   2.599  0.4341  0.1607  0.3173
12197TIP3    H158006   3.817   3.284   2.580  0.5591  0.1535  0.2124
12197TIP3    H258007   3.771   3.147   2.536 -0.7468  0.2225  1.2868
12198TIP3   OH258008   3.664   5.299   5.648 -0.0548  0.1164  0.1746
12198TIP3    H158009   3.721   5.249   5.589  0.2706  0.8472 -0.1364
12198TIP3    H258010   3.576   5.268   5.626 -0.0645  1.3187 -1.6616
12199TIP3   OH258011   2.177   4.073   5.222  0.1196 -0.4046 -0.1346
12199TIP3    H158012   2.203   4.045   5.309 -0.1742  0.2784  0.1799
12199TIP3    H258013   2.127   4.153   5.236 -1.1853 -1.0693 -0.8191
12200TIP3   OH258014   5.099   5.604   0.557  0.2462 -0.4653  0.3036
12200TIP3    H158015   5.144   5.645   0.483  0.3608 -1.6302 -0.3049
12200TIP3    H258016   5.013   5.646   0.559  1.1921  1.5066  1.2415
12201TIP3   OH258017   2.795   4.561  13.300 -0.6534 -0.3113 -0.0268
12201TIP3    H158018   2.884   4.579  13.332 -0.9065  0.5902  0.1917
12201TIP3    H258019   2.754   4.648  13.292 -0.7902 -0.5022 -2.2649
12202TIP3   OH258020   0.323   3.934  12.514  0.8500  0.2690  0.0315
12202TIP3    H158021   0.258   3.886  12.567  1.1809  1.3519  1.4749
12202TIP3    H258022   0.333   3.881  12.435 -0.5890 -0.7665  0.5009
12203TIP3   OH258023   1.593   3.530   1.699 -0.1758 -0.5097  0.2818
12203TIP3    H158024   1.545   3.453   1.731  1.3522 -2.5748 -2.0030
12203TIP3    H258025   1.682   3.498   1.686  0.6974  1.8960 -0.0771
12204TIP3   OH258026   5.189   1.380  14.916 -0.4241  0.0330 -0.1742
12204TIP3    H158027   5.226   1.403  15.001  0.1184  0.3592 -0.4866
12204TIP3    H258028   5.258   1.329  14.873 -0.4233  0.4422 -0.6733
12205TIP3   OH258029   2.110   1.174  13.735  0.4127  0.2593  0.0268
12205TIP3    H158030   2.199   1.209  13.731 -0.1337  1.6322 -0.6508
12205TIP3    H258031   2.089   1.173  13.828  0.8424  0.7027  0.1354
12206TIP3   OH258032   5.461   1.917  13.743 -0.3390 -0.3520 -0.8239
12206TIP3    H158033   5.392   1.943  13.682 -2.0955  0.0989  1.2228
12206TIP3    H258034   5.426   1.939  13.829  1.9915 -1.0352  0.3825
12207TIP3   OH258035   2.763   3.255   5.810  0.1007  0.7936 -0.0662
12207TIP3    H158036   2.821   3.189   5.847 -0.7955  0.0034 -0.0135
12207TIP3    H258037   2.818   3.331   5.796  1.4266 -0.3421 -1.2378
12208TIP3   OH258038   3.145   4.546   0.668  0.0179  0.2006  0.6308
12208TIP3    H158039   3.228   4.541   0.621  0.0729  1.6559  0.5300
12208TIP3    H258040   3.136   4.461   0.711  0.8840 -0.4645 -0.4703
12209TIP3   OH258041   2.126   2.602   3.376 -0.1560  0.7229  0.7711
12209TIP3    H158042   2.033   2.583   3.385 -0.3883  1.7835  0.6772
12209TIP3    H258043   2.163   2.583   3.462 -0.3863 -0.0357  0.7097
12210TIP3   OH258044   2.826   5.958   0.720 -0.8960 -0.7952 -0.6534
12210TIP3    H158045   2.759   5.917   0.775  1.0657 -2.3439  0.7262
12210TIP3    H258046   2.856   5.887   0.663  0.2421 -0.4195 -0.5536
12211TIP3   OH258047   4.222   4.577  17.184  0.1652 -0.5566 -0.6765
12211TIP3    H158048   4.257   4.543  17.102  0.8959 -0.6970 -0.3180
12211TIP3    H258049   4.281   4.543  17.251 -0.7049 -0.8430 -0.0391
12212TIP3   OH258050   4.431   1.757  14.785 -0.3403  0.2073  0.5443
12212TIP3    H158051   4.514   1.746  14.740 -0.1844 -0.7545  1.0512
12212TIP3    H258052   4.372   1.792  14.718  0.5186  1.1362  0.2426
12213TIP3   OH258053   0.864   3.992  16.578  0.0241  0.0369 -0.6105
12213TIP3    H158054   0.906   3.986  16.492 -0.7633 -0.0810 -0.9939
12213TIP3    H258055   0.791   4.053  16.565  1.0333  1.5584  0.4455
12214TIP3   OH258056   1.105   1.348   2.853 -0.4413 -0.5880 -0.3682
12214TIP3    H158057   1.063   1.318   2.934  1.6262 -1.3190  0.5011
12214TIP3    H258058   1.097   1.443   2.856 -2.6068 -0.7311 -0.5987
12215TIP3   OH258059   3.153   6.530   1.820 -0.5711  0.5245  0.0958
12215TIP3    H158060   3.192   6.444   1.807 -1.8495 -0.0078 -0.3611
12215TIP3    H258061   3.228   6.589   1.829  0.3457 -0.3661 -1.2788
12216TIP3   OH258062   3.774   2.079   3.750  0.5782  0.0605  0.1157
12216TIP3    H158063   3.760   2.029   3.831  0.0794  0.5207  0.3190
12216TIP3    H258064   3.826   2.021   3.695 -2.1089 -1.8141 -0.6947
12217TIP3   OH258065   5.885   3.661  14.049 -0.0010 -0.0742 -0.0583
12217TIP3    H158066   5.892   3.597  13.977  2.5325 -0.5157  0.5009
12217TIP3    H258067   5.830   3.617  14.114 -0.2326 -0.7108 -0.6707
12218TIP3   OH258068   2.521   6.280   4.947  0.0044 -0.3509  0.0245
12218TIP3    H158069   2.606   6.289   4.904 -0.5641 -0.8024 -1.2584
12218TIP3    H258070   2.484   6.200   4.910 -0.8895 -0.2805  0.7299
12219TIP3   OH258071   6.632   4.799   1.475  0.3742 -0.3843  0.2208
12219TIP3    H158072   6.682   4.718   1.482  0.4746 -0.3025  0.4601
12219TIP3    H258073   6.556   4.785   1.531 -1.1069 -1.4107 -1.9224
12220TIP3   OH258074   5.178   2.132   3.234  0.4232 -0.1065  0.4823
12220TIP3    H158075   5.114   2.088   3.179  0.2874  1.2295 -0.4707
12220TIP3    H258076   5.255   2.075   3.233  0.7385  0.2752 -1.8355
12221TIP3   OH258077   0.833   6.110  15.162 -0.6430  0.5773  0.5968
12221TIP3    H158078   0.889   6.183  15.134  0.0466 -0.4706 -0.9133
12221TIP3    H258079   0.811   6.130  15.253  2.2787  1.0018  1.3187
12222TIP3   OH258080   5.394   0.963  16.512  0.1155 -0.6121 -0.9667
12222TIP3    H158081   5.365   1.031  16.573 -0.7998 -0.8625 -1.1078
12222TIP3    H258082   5.368   0.997  16.426  0.9904 -0.4679 -1.1780
12223TIP3   OH258083   0.451   0.304   3.021 -0.0773 -0.2221 -0.6174
12223TIP3    H158084   0.518   0.269   2.963 -2.1071 -0.0631 -3.2997
12223TIP3    H258085   0.448   0.398   3.000 -0.5145 -0.0673  0.1190
12224TIP3   OH258086   0.328   4.883  16.081  0.3255 -0.3056  0.4742
12224TIP3    H158087   0.239   4.858  16.057  1.5650 -3.8539 -1.1761
12224TIP3    H258088   0.358   4.939  16.009 -0.7398  1.7053  1.4953
12225TIP3   OH258089   4.717   4.581   2.576 -0.1638  0.0097  0.3481
12225TIP3    H158090   4.771   4.601   2.652  0.9700  1.4664 -0.7711
12225TIP3    H258091   4.779   4.557   2.508 -1.0343  0.2292 -0.5571
12226TIP3   OH258092   0.568   5.829   2.349  0.0232 -0.0973  0.7121
12226TIP3    H158093   0.548   5.737   2.332 -0.7486 -0.0911  1.5256
12226TIP3    H258094   0.487   5.865   2.383  0.3207  0.8949  0.4065
12227TIP3   OH258095   6.362   1.154  16.746  0.0044 -0.9576 -0.2223
12227TIP3    H158096   6.349   1.073  16.696 -1.0557 -1.3125  0.6001
12227TIP3    H258097   6.442   1.139  16.796 -1.2088 -2.3021  1.4107
12228TIP3   OH258098   3.960   5.253  14.799  0.3406 -0.5457  0.8787
12228TIP3    H158099   3.975   5.272  14.892 -0.6165  0.4484  0.8455
12228TIP3    H258100   4.045   5.270  14.757  0.7040 -0.7364  1.5159
12229TIP3   OH258101   4.367   4.391  16.193  0.0462 -0.0487  0.5494
12229TIP3    H158102   4.408   4.477  16.180  1.3941 -0.8167 -0.5003
12229TIP3    H258103   4.296   4.408  16.255  0.1480  1.8607  0.2116
12230TIP3   OH258104   3.968   0.575  11.127  0.2935 -0.5655 -0.4658
12230TIP3    H158105   3.902   0.515  11.092  0.2678 -1.0769  0.4392
12230TIP3    H258106   4.038   0.518  11.158 -0.1146 -0.2072  1.2126
12231TIP3   OH258107   5.834   0.766   1.682 -0.0519 -0.1663 -0.3001
12231TIP3    H158108   5.786   0.694   1.642 -0.3702  0.3678 -0.8974
12231TIP3    H258109   5.920   0.730   1.703 -0.0821 -0.6096 -0.9421
12232TIP3   OH258110   0.473   3.797  16.349 -0.1938  0.3765 -0.5440
12232TIP3    H158111   0.558   3.835  16.323 -0.5997  0.8827 -1.1610
12232TIP3    H258112   0.456   3.836  16.435 -1.1189  2.5370 -1.6183
12233TIP3   OH258113   2.062   4.549   3.202 -0.1301  0.1008 -0.3498
12233TIP3    H158114   2.033   4.512   3.118 -0.0339 -0.2747 -0.2202
12233TIP3    H258115   2.108   4.629   3.178 -0.2963  0.1123 -0.6397
12234TIP3   OH258116   4.079   1.037  12.161 -0.3692 -0.0367 -0.0496
12234TIP3    H158117   4.082   0.976  12.088 -0.9530 -1.2842  0.9424
12234TIP3    H258118   3.990   1.028  12.196 -0.1504  0.6698  0.7083
12235TIP3   OH258119   0.767   5.931   6.155  1.1617  0.1270 -0.1293
12235TIP3    H158120   0.795   5.840   6.147  1.4202  0.1340  0.6770
12235TIP3    H258121   0.722   5.949   6.072 -1.2695 -1.5221  0.7229
12236TIP3   OH258122   1.891   0.921  12.987 -0.1747  0.6349  0.0007
12236TIP3    H158123   1.872   0.934  12.894  0.0095  0.4619 -0.0614
12236TIP3    H258124   1.879   0.827  13.001 -0.0828  0.6416  0.1243
12237TIP3   OH258125   2.880   1.424   6.136  0.1971 -0.4694 -0.2481
12237TIP3    H158126   2.811   1.360   6.158  0.1359 -0.0661  0.8143
12237TIP3    H258127   2.950   1.404   6.198  0.3507  0.2043 -0.2019
12238TIP3   OH258128   3.667   3.950  15.531 -0.3855 -0.4920 -0.3460
12238TIP3    H158129   3.608   3.912  15.596 -0.8159  2.4208  1.1201
12238TIP3    H258130   3.735   3.884  15.520 -1.4068 -1.9642  1.5194
12239TIP3   OH258131   5.638   3.329   3.486  0.8433  0.2176 -0.1048
12239TIP3    H158132   5.616   3.422   3.478 -1.5586 -0.4167 -2.2996
12239TIP3    H258133   5.671   3.304   3.399 -0.0590 -1.2541 -0.0802
12240TIP3   OH258134   0.195   0.164   1.858 -0.0685 -0.5489  0.5833
12240TIP3    H158135   0.143   0.115   1.922  0.5329 -1.4392  0.4275
12240TIP3    H258136   0.162   0.253   1.863 -0.6147 -0.7824  1.5208
12241TIP3   OH258137   2.485   4.186  13.497 -0.0428 -0.2433  0.5931
12241TIP3    H158138   2.435   4.156  13.421  2.8351 -2.5659 -0.5676
12241TIP3    H258139   2.554   4.241  13.459  1.0461 -0.9083  1.5597
12242TIP3   OH258140   5.531   2.341  12.911  0.2429 -0.8301 -0.0950
12242TIP3    H158141   5.510   2.376  12.824  0.2773  0.8915  0.5656
12242TIP3    H258142   5.620   2.307  12.902  0.0202 -1.2476 -0.8784
12243TIP3   OH258143   6.265   6.211   3.427 -0.2037  0.1994 -0.3729
12243TIP3    H158144   6.337   6.182   3.483  1.2583  2.4571 -0.9928
12243TIP3    H258145   6.187   6.174   3.469  1.1386 -1.0254  1.1987
12244TIP3   OH258146   5.309   4.683   5.684  0.3434  0.2354  0.2394
12244TIP3    H158147   5.392   4.673   5.731  0.0266  1.4775  1.1195
12244TIP3    H258148   5.328   4.746   5.615 -0.3735  2.3478  1.8840
12245TIP3   OH258149   4.883   2.262   3.273  0.2960  0.2327  0.0007
12245TIP3    H158150   4.870   2.341   3.326 -0.5234 -1.5387  2.5918
12245TIP3    H258151   4.958   2.283   3.217 -0.0235  2.8918  0.4396
12246TIP3   OH258152   4.744   5.250  15.672  0.1164 -0.3214  0.0573
12246TIP3    H158153   4.708   5.180  15.726  1.3855  0.1020  1.5305
12246TIP3    H258154   4.819   5.210  15.628  1.1430  0.1849  1.2795
12247TIP3   OH258155   5.209   4.161   0.402 -0.4751 -0.3181 -0.3366
12247TIP3    H158156   5.282   4.123   0.450 -1.4116 -1.2963  0.3768
12247TIP3    H258157   5.210   4.254   0.426  0.8955 -0.1814 -0.8435
12248TIP3   OH258158   4.622   1.779   0.023  0.4609  0.1799 -0.2780
12248TIP3    H158159   4.647   1.688   0.040  0.1309  0.3486  1.3018
12248TIP3    H258160   4.534   1.773  -0.012  0.6285 -0.1320 -0.6564
12249TIP3   OH258161   5.894   2.974   1.785 -0.1179  0.3515 -0.0732
12249TIP3    H158162   5.984   2.954   1.760 -0.4326 -0.0966 -0.8847
12249TIP3    H258163   5.840   2.936   1.715 -0.9804 -0.1400  0.8239
12250TIP3   OH258164   2.221   1.971   2.422 -0.3980 -0.1516 -0.3348
12250TIP3    H158165   2.246   2.039   2.359 -1.2248  0.1389 -0.3577
12250TIP3    H258166   2.132   1.993   2.448 -0.1365 -0.3657  0.8161
12251TIP3   OH258167   5.071   0.625  15.226 -0.0421 -0.3469 -0.0340
12251TIP3    H158168   5.061   0.674  15.307  2.1559 -0.2648  0.2469
12251TIP3    H258169   5.004   0.661  15.167 -1.1439  0.1257  1.4609
12252TIP3   OH258170   4.360   5.075  14.243 -0.1133 -0.3162  0.5433
12252TIP3    H158171   4.386   4.985  14.222  0.3847 -0.0410 -0.0368
12252TIP3    H258172   4.305   5.102  14.169  0.0560 -0.0137  0.5244
12253TIP3   OH258173   1.023   5.329   6.878 -0.1096  0.6001 -0.1858
12253TIP3    H158174   1.108   5.366   6.853 -0.4591  1.0855 -0.6502
12253TIP3    H258175   0.959   5.392   6.848 -0.7697 -0.7521 -1.7525
12254TIP3   OH258176   4.890   4.475   3.010 -0.0724 -0.0313 -0.5281
12254TIP3    H158177   4.907   4.381   3.010  1.0107  0.1287  0.6953
12254TIP3    H258178   4.814   4.487   3.067  0.5241 -0.0858  0.3055
12255TIP3   OH258179   1.506   4.927  11.186 -0.2373 -0.5367  0.1424
12255TIP3    H158180   1.500   4.843  11.141  0.8207  0.6149 -2.2914
12255TIP3    H258181   1.594   4.929  11.222  0.4874  0.3121 -1.5783
12256TIP3   OH258182   3.620   1.251   5.677  0.2612  0.0584  0.5816
12256TIP3    H158183   3.610   1.233   5.583  0.3960  1.1844  0.3438
12256TIP3    H258184   3.616   1.346   5.684 -2.7468 -0.0520  2.0668
12257TIP3   OH258185   6.593   5.170   6.164 -0.0809  0.0810  0.1191
12257TIP3    H158186   6.633   5.256   6.155  1.3395 -0.6049 -0.5245
12257TIP3    H258187   6.611   5.144   6.254  0.9100 -0.1937 -0.1465
12258TIP3   OH258188   2.840   6.609   5.909 -0.0939  0.6387 -0.0161
12258TIP3    H158189   2.763   6.553   5.896 -0.5257  1.0212  0.7719
12258TIP3    H258190   2.848   6.616   6.004  2.0761 -0.9246 -0.0310
12259TIP3   OH258191   5.108   5.165  17.304 -0.0424  0.7602  0.3807
12259TIP3    H158192   5.069   5.244  17.340 -1.2229 -0.1395  1.1467
12259TIP3    H258193   5.034   5.112  17.275  0.5666 -0.8842  1.6495
12260TIP3   OH258194   3.288   6.372   2.922 -0.0326  0.3081 -0.2422
12260TIP3    H158195   3.366   6.322   2.949  0.5040  1.2065 -0.0985
12260TIP3    H258196   3.222   6.305   2.906  0.8679 -0.4998 -0.6947
12261TIP3   OH258197   6.026   6.062   2.718 -0.2287 -0.5448  0.1922
12261TIP3    H158198   5.939   6.041   2.685 -0.6163  0.9237  0.2109
12261TIP3    H258199   6.085   6.012   2.662 -1.0516 -1.2764 -0.0594
12262TIP3   OH258200   5.032   2.183  13.820 -0.0343 -0.1130  0.9599
12262TIP3    H158201   5.034   2.171  13.725  0.3727 -1.3826  1.1051
12262TIP3    H258202   5.093   2.118  13.854  0.5422  0.9487  2.0523
12263TIP3   OH258203   6.110   5.787  12.307 -0.6531  0.1143  0.1076
12263TIP3    H158204   6.122   5.692  12.300 -0.7965  0.0270  0.9970
12263TIP3    H258205   6.197   5.822  12.322 -0.3123  0.3220 -1.9672
12264TIP3   OH258206   2.346   2.710   0.459  0.1047 -0.3832  0.0315
12264TIP3    H158207   2.438   2.734   0.464 -0.4393  1.6287  1.4325
12264TIP3    H258208   2.327   2.707   0.365  1.5296 -0.6469 -0.2733
12265TIP3   OH258209   6.000   4.276  11.304 -0.3462  0.3213  0.0892
12265TIP3    H158210   5.989   4.330  11.382  0.2386 -0.6874  0.9020
12265TIP3    H258211   6.094   4.270  11.291 -0.3636 -1.0199  0.4130
12266TIP3   OH258212   0.118   4.319  16.109  0.4426 -0.5331 -0.4890
12266TIP3    H158213   0.053   4.293  16.174  0.8666  0.2743  0.2850
12266TIP3    H258214   0.125   4.244  16.051 -1.6203 -0.4222 -0.9621
12267TIP3   OH258215   5.692   1.649   4.250 -0.1632  0.2292 -0.0783
12267TIP3    H158216   5.734   1.729   4.281  0.6631 -0.7052  1.3205
12267TIP3    H258217   5.720   1.642   4.159  1.7707  0.2841  0.4690
12268TIP3   OH258218   2.086   6.672   5.091 -0.1864  0.1024  0.2169
12268TIP3    H158219   2.137   6.662   5.172  0.0524 -0.7089 -0.0178
12268TIP3    H258220   2.000   6.702   5.119 -0.4226 -1.1218  0.8762
12269TIP3   OH258221   4.786   3.518   3.917 -0.3354  0.2691  0.5042
12269TIP3    H158222   4.775   3.612   3.926 -2.0345  0.3553 -1.6739
12269TIP3    H258223   4.706   3.480   3.953 -0.3920 -0.2074 -0.0846
12270TIP3   OH258224   1.209   4.474  11.880  0.3086 -0.3980 -0.2996
12270TIP3    H158225   1.158   4.543  11.838 -0.5800  0.5476  2.1921
12270TIP3    H258226   1.144   4.410  11.908  0.8899 -1.0022 -0.3086
12271TIP3   OH258227   5.090   3.449  11.942 -0.0619  0.6020  0.3908
12271TIP3    H158228   5.133   3.534  11.949 -1.4097  1.2763  0.9480
12271TIP3    H258229   5.053   3.434  12.029 -0.4890 -0.2008  0.0825
12272TIP3   OH258230   1.144   0.760  15.522  0.3335 -0.0610 -0.1533
12272TIP3    H158231   1.187   0.723  15.599  0.0866  0.3385  0.1799
12272TIP3    H258232   1.130   0.852  15.544 -0.0784 -0.0299 -0.5266
12273TIP3   OH258233   2.296   5.331  16.898 -0.0101 -0.1644 -0.2673
12273TIP3    H158234   2.256   5.355  16.814 -0.4012 -0.8245 -0.2825
12273TIP3    H258235   2.243   5.377  16.964  0.9575  1.2287 -0.4103
12274TIP3   OH258236   4.903   0.806   4.526  0.1212  0.0122  0.4110
12274TIP3    H158237   4.912   0.714   4.501  3.0118 -0.1351  1.6084
12274TIP3    H258238   4.857   0.804   4.610 -1.4251 -0.1640 -0.4153
12275TIP3   OH258239   4.209   1.399  13.240  0.1011 -0.1718 -0.5297
12275TIP3    H158240   4.144   1.447  13.292  0.2832 -2.5628  2.1934
12275TIP3    H258241   4.161   1.326  13.202  1.0078 -1.8687  1.3724
12276TIP3   OH258242   0.423   1.168   2.275 -0.0160 -0.5315  0.2192
12276TIP3    H158243   0.416   1.260   2.300  1.8247 -0.4769  0.6169
12276TIP3    H258244   0.511   1.142   2.300 -0.7392 -2.6259  0.8040
12277TIP3   OH258245   3.010   1.914  11.882 -0.3693 -0.4960  0.3506
12277TIP3    H158246   3.060   1.984  11.924  0.5712 -1.1742  0.4082
12277TIP3    H258247   3.030   1.836  11.934 -0.6215 -0.9950 -0.2872
12278TIP3   OH258248   6.348   4.993   0.922 -0.4847  0.4569 -0.3346
12278TIP3    H158249   6.397   4.967   0.999 -0.3810  1.0192 -0.2097
12278TIP3    H258250   6.407   4.977   0.848 -0.0221  1.3584 -0.1649
12279TIP3   OH258251   1.426   4.560   5.958 -0.6054 -0.1196  0.8105
12279TIP3    H158252   1.394   4.470   5.965  1.7818 -1.2117 -0.8171
12279TIP3    H258253   1.440   4.589   6.048  1.3585 -2.5176  1.3747
12280TIP3   OH258254   0.345   3.135   1.823 -0.0228  0.1856  0.2193
12280TIP3    H158255   0.376   3.100   1.906  1.2283 -0.6188 -0.5595
12280TIP3    H258256   0.359   3.230   1.830 -1.6158  0.3697  1.5833
12281TIP3   OH258257   3.350   3.320   4.617 -0.4425  1.0300  0.3543
12281TIP3    H158258   3.264   3.286   4.593 -0.4609  2.1130 -1.2523
12281TIP3    H258259   3.392   3.248   4.663 -1.4872 -0.1814 -0.5223
12282TIP3   OH258260   0.013   1.227   1.880 -0.3309  0.0727  0.0737
12282TIP3    H158261   0.055   1.294   1.933  0.3748 -1.5353  1.6584
12282TIP3    H258262  -0.072   1.213   1.921 -0.4327 -0.0823 -0.1832
12283TIP3   OH258263   6.234   5.426   1.026  0.3327 -0.3712  0.7424
12283TIP3    H158264   6.187   5.477   0.959 -1.8349  0.8269  3.0155
12283TIP3    H258265   6.281   5.360   0.976 -0.2133  1.1723 -2.0488
12284TIP3   OH258266   4.474   6.466   3.297 -0.2160  0.0939  0.3568
12284TIP3    H158267   4.539   6.536   3.296 -0.2067  0.0833  0.1562
12284TIP3    H258268   4.419   6.485   3.373  0.1287  0.0075  0.6331
12285TIP3   OH258269   6.694   2.734   5.537  0.2784 -0.0951 -0.5084
12285TIP3    H158270   6.765   2.790   5.566 -0.1264  0.6462 -0.9424
12285TIP3    H258271   6.725   2.645   5.555  1.0293  0.2490 -0.0709
12286TIP3   OH258272   4.780   2.117  16.925  0.6183  0.1276  0.3288
12286TIP3    H158273   4.783   2.045  16.989  0.4554  0.0263  0.2239
12286TIP3    H258274   4.868   2.154  16.926  0.9135 -0.5413 -0.1489
12287TIP3   OH258275   2.040   3.135  14.757  0.0798  0.5599  0.3655
12287TIP3    H158276   2.013   3.061  14.811  3.5586 -0.9680  0.3389
12287TIP3    H258277   1.972   3.142  14.690 -0.2874 -2.8983  0.1737
12288TIP3   OH258278   2.280   2.482  10.723  0.4347 -0.6649  0.2595
12288TIP3    H158279   2.254   2.391  10.709 -0.3687 -1.1341  3.7570
12288TIP3    H258280   2.204   2.534  10.698  1.9098 -0.4349 -4.8189
12289TIP3   OH258281   0.543   1.241   3.239 -0.0619 -0.1317  0.2692
12289TIP3    H158282   0.588   1.322   3.214 -0.4430 -0.0263 -0.0792
12289TIP3    H258283   0.459   1.269   3.276 -0.1112 -0.3576  0.3361
12290TIP3   OH258284   3.553   6.446  11.605 -0.3598  0.5423  0.4780
12290TIP3    H158285   3.505   6.390  11.543 -0.2059 -0.5843  1.3440
12290TIP3    H258286   3.636   6.464  11.561 -0.9733  1.3080 -0.4180
12291TIP3   OH258287   6.017   4.989  15.475 -0.1026 -0.0648 -0.1601
12291TIP3    H158288   6.093   4.934  15.492  0.3000  0.3813 -0.4923
12291TIP3    H258289   5.944   4.944  15.518  0.7356  0.6745  2.1836
12292TIP3   OH258290   4.992   0.825  16.956 -0.1339 -0.0388 -0.7793
12292TIP3    H158291   5.058   0.816  17.025  0.2011 -0.3373 -1.1407
12292TIP3    H258292   4.938   0.747  16.965 -1.1402  0.7299  0.2404
12293TIP3   OH258293   1.734   0.584  10.558 -0.2013 -0.1287  0.2204
12293TIP3    H158294   1.680   0.588  10.480 -1.8930  0.1826  1.3585
12293TIP3    H258295   1.746   0.676  10.583 -0.1342 -0.2505  0.6400
12294TIP3   OH258296   3.494   5.082  16.916  0.4591 -0.6452  0.2232
12294TIP3    H158297   3.565   5.146  16.912 -0.8493  0.8024 -1.3350
12294TIP3    H258298   3.463   5.087  17.006  2.3925 -1.4271  0.9821
12295TIP3   OH258299   3.460   2.781  13.008 -0.4323  0.6498 -0.0688
12295TIP3    H158300   3.389   2.792  13.071 -0.4010  0.2562  0.0398
12295TIP3    H258301   3.515   2.713  13.047 -0.8728 -0.2253 -0.9324
12296TIP3   OH258302   2.425   2.362  16.702 -0.0183 -0.0543  0.2586
12296TIP3    H158303   2.408   2.422  16.629 -0.2072 -0.8237 -0.3438
12296TIP3    H258304   2.422   2.275  16.662  2.4394 -0.4027  0.6437
12297TIP3   OH258305   3.849   6.035  15.973  0.1955  0.2075  0.1130
12297TIP3    H158306   3.761   6.034  15.936  0.4062 -1.5712 -0.4228
12297TIP3    H258307   3.836   6.060  16.064 -0.8527  0.0900  0.0063
12298TIP3   OH258308   6.544   6.730  15.938 -0.4416 -0.1210 -0.1555
12298TIP3    H158309   6.523   6.774  16.020 -0.1355  0.4712 -0.3855
12298TIP3    H258310   6.538   6.636  15.958 -2.2382  0.0104  0.0457
12299TIP3   OH258311   1.215   4.071  16.625 -0.2429 -0.0294 -0.4011
12299TIP3    H158312   1.188   3.981  16.641 -0.3341  0.2496  1.1175
12299TIP3    H258313   1.174   4.122  16.695 -0.6142  1.2847 -1.5216
12300TIP3   OH258314   0.858   3.805  17.056  0.2465  0.1298  0.1475
12300TIP3    H158315   0.766   3.790  17.038  0.1625  1.5417 -0.6866
12300TIP3    H258316   0.904   3.774  16.978  0.5307 -0.8495  0.6784
12301TIP3   OH258317   3.888   2.772   0.119 -0.1907  0.0078 -0.1309
12301TIP3    H158318   3.929   2.834   0.180 -0.9619  0.4064  0.0039
12301TIP3    H258319   3.959   2.743   0.062  0.6246 -0.6935  1.2183
12302TIP3   OH258320   5.797   0.253   1.692  0.1547 -0.1877  0.1909
12302TIP3    H158321   5.789   0.327   1.753  0.5229 -0.7897  0.9880
12302TIP3    H258322   5.712   0.249   1.649 -0.0834  0.3115  0.5937
12303TIP3   OH258323   4.754   5.236   2.238  0.0640  0.6855 -0.0627
12303TIP3    H158324   4.774   5.163   2.179 -0.0647  0.2194  0.4638
12303TIP3    H258325   4.840   5.273   2.260  0.2550 -0.3210  0.9399
12304TIP3   OH258326   4.234   5.853  11.854  0.6117  0.2998  0.3376
12304TIP3    H158327   4.212   5.776  11.906 -0.1496  0.1522 -0.1823
12304TIP3    H258328   4.261   5.818  11.769  3.3400  0.4436  1.0541
12305TIP3   OH258329   5.400   3.561  12.440  0.7848 -0.2281 -0.7930
12305TIP3    H158330   5.487   3.536  12.409  0.0709 -4.1907 -0.0969
12305TIP3    H258331   5.339   3.519  12.380 -0.6767  0.5462  0.0713
12306TIP3   OH258332   5.781   6.625  17.364  0.0506  0.2413  0.5792
12306TIP3    H158333   5.693   6.653  17.340 -0.8303 -0.9524  2.2127
12306TIP3    H258334   5.776   6.608  17.458  1.8780 -0.3792  0.5977
12307TIP3   OH258335   4.317   0.786  14.826  0.0479 -0.4908  0.1181
12307TIP3    H158336   4.349   0.821  14.743 -0.6574  2.5889  1.0126
12307TIP3    H258337   4.242   0.733  14.803  1.6162 -2.1953 -1.3989
12308TIP3   OH258338   5.179   5.618  17.344 -0.1142 -0.2092 -0.4767
12308TIP3    H158339   5.266   5.583  17.325 -0.2669 -1.5109  1.0166
12308TIP3    H258340   5.124   5.540  17.355 -1.2671  0.5817 -0.5276
12309TIP3   OH258341   1.953   2.332  12.917 -0.2447 -0.1640 -0.2487
12309TIP3    H158342   1.867   2.326  12.876 -0.2031 -0.1218 -0.3417
12309TIP3    H258343   1.935   2.362  13.006 -0.2883  0.2918 -0.4110
12310TIP3   OH258344   1.409   1.726  11.472 -0.0726 -0.1234  0.5317
12310TIP3    H158345   1.383   1.766  11.555 -0.1403 -1.1898  1.0309
12310TIP3    H258346   1.502   1.746  11.464 -0.2021  0.5111  0.5541
12311TIP3   OH258347   3.306   0.492  10.605  0.2115 -0.0390  0.2074
12311TIP3    H158348   3.277   0.409  10.641 -1.8001  1.0926  1.3647
12311TIP3    H258349   3.375   0.522  10.664  0.6544 -0.6724  0.0195
12312TIP3   OH258350   3.845   0.430  12.916  0.3911  0.4022 -0.1916
12312TIP3    H158351   3.846   0.487  12.838 -0.5459 -2.1770 -2.2590
12312TIP3    H258352   3.777   0.468  12.972 -0.3285  1.2651 -1.5751
12313TIP3   OH258353   0.844   1.270   4.482 -0.4625  0.1124  0.1036
12313TIP3    H158354   0.862   1.180   4.510  1.4513  0.8309  1.4035
12313TIP3    H258355   0.771   1.298   4.538  0.5602  0.1230  1.5087
12314TIP3   OH258356   5.257   2.790  11.120 -0.5042 -0.5664 -0.5463
12314TIP3    H158357   5.332   2.796  11.179 -0.9160  1.5134 -0.1490
12314TIP3    H258358   5.181   2.809  11.175 -0.8318  2.1494 -1.7522
12315TIP3   OH258359   4.506   2.637   0.887  0.4711 -0.7982  0.5185
12315TIP3    H158360   4.446   2.687   0.943  0.2485 -0.2669 -0.1773
12315TIP3    H258361   4.455   2.618   0.808  1.0584 -0.7855  0.1278
12316TIP3   OH258362   1.947   6.698  15.196  0.3804  0.0919 -0.2445
12316TIP3    H158363   1.896   6.695  15.277 -0.3817  3.0122 -0.5054
12316TIP3    H258364   1.881   6.687  15.127  0.0221  3.4531 -0.5726
12317TIP3   OH258365   3.245   2.944   0.494 -1.0022  0.2979  0.1673
12317TIP3    H158366   3.172   2.967   0.553 -0.1962  0.5515  1.0997
12317TIP3    H258367   3.205   2.939   0.408 -1.8366  2.0983  0.3985
12318TIP3   OH258368   5.477   0.463  17.064  0.1152  0.2550  0.1696
12318TIP3    H158369   5.420   0.387  17.076  0.3054  0.1607  0.5068
12318TIP3    H258370   5.507   0.456  16.973  0.8098 -0.5641  0.4374
12319TIP3   OH258371   2.726   0.160   4.857 -0.1471  0.1504  0.0952
12319TIP3    H158372   2.750   0.159   4.950  0.3879 -3.0679  0.0500
12319TIP3    H258373   2.805   0.187   4.812 -0.2956  1.3463  0.5092
12320TIP3   OH258374   6.620   0.690   1.457  0.0422 -0.2799 -0.2152
12320TIP3    H158375   6.625   0.628   1.530 -1.8713 -1.9958 -1.4284
12320TIP3    H258376   6.711   0.716   1.442  0.6733 -1.2090  1.6280
12321TIP3   OH258377   3.994   2.672  13.919 -0.0502 -0.2054 -0.0528
12321TIP3    H158378   3.925   2.687  13.984 -0.6334 -1.0203 -0.4652
12321TIP3    H258379   4.012   2.579  13.926 -0.2844 -0.3509 -1.2148
12322TIP3   OH258380   3.842   5.919  16.691 -0.3134  0.5379 -0.1142
12322TIP3    H158381   3.875   5.901  16.779 -0.6157  1.9835  0.3240
12322TIP3    H258382   3.784   5.995  16.702 -0.0897  0.9538 -1.5985
12323TIP3   OH258383   6.026   0.740  16.454 -0.1825 -0.2824  0.2622
12323TIP3    H158384   5.978   0.780  16.381  1.0341 -2.3405 -1.7834
12323TIP3    H258385   5.960   0.687  16.499 -0.6066 -0.2692 -0.3277
12324TIP3   OH258386   6.185   4.905   0.171  0.2297 -0.0018  0.2077
12324TIP3    H158387   6.200   4.825   0.122 -0.7365 -0.3699  0.4949
12324TIP3    H258388   6.133   4.878   0.246  2.6480  0.3369  2.1195
12325TIP3   OH258389   0.838   4.968   4.461 -0.6377 -0.1826 -0.5320
12325TIP3    H158390   0.893   4.893   4.484 -1.3149 -0.4562  0.2083
12325TIP3    H258391   0.830   4.963   4.365  3.6352  1.9579 -1.2846
12326TIP3   OH258392   6.667   1.402  17.231  1.1008  0.1258 -0.4156
12326TIP3    H158393   6.604   1.330  17.237 -0.6865  1.6718  0.2763
12326TIP3    H258394   6.713   1.401  17.315  0.3779  0.3775 -0.0076
12327TIP3   OH258395   1.125   0.329   4.414 -0.8147  0.4299  0.3452
12327TIP3    H158396   1.065   0.322   4.488 -0.7019  1.9690  0.6147
12327TIP3    H258397   1.134   0.423   4.400  0.1300  0.1796 -0.8473
12328TIP3   OH258398   6.330   1.508  11.887  0.0343  0.9205 -0.5036
12328TIP3    H158399   6.350   1.597  11.859  1.2928  0.0302 -2.7624
12328TIP3    H258400   6.363   1.453  11.815  1.0966 -1.4814  1.6622
12329TIP3   OH258401   4.933   4.977  15.088 -0.0485  0.1522 -0.2135
12329TIP3    H158402   4.860   5.014  15.037  0.8265  1.2866 -0.6839
12329TIP3    H258403   4.991   4.938  15.022  1.1519  1.7329 -0.1474
12330TIP3   OH258404   5.234   0.654  15.897 -0.6022 -0.0110 -0.5830
12330TIP3    H158405   5.318   0.623  15.864 -1.3677 -1.2983 -1.3934
12330TIP3    H258406   5.182   0.575  15.912 -1.2790  0.6837  1.0779
12331TIP3   OH258407   2.817   3.546  15.948  0.3120  0.0101 -0.0130
12331TIP3    H158408   2.899   3.499  15.964  1.5053  2.4970  1.8443
12331TIP3    H258409   2.772   3.546  16.032 -1.2010 -0.5067 -0.7844
12332TIP3   OH258410   1.681   1.950   3.343  0.2498  0.1628 -0.7033
12332TIP3    H158411   1.729   2.023   3.305 -0.0493  1.2894  1.0084
12332TIP3    H258412   1.719   1.938   3.430  0.2424 -1.6852 -0.9184
12333TIP3   OH258413   0.534   4.624  16.253 -0.7808 -0.2539 -0.5549
12333TIP3    H158414   0.629   4.610  16.262 -1.1762 -1.7186  2.4582
12333TIP3    H258415   0.500   4.540  16.223 -1.3194 -0.2949  0.1660
12334TIP3   OH258416   1.396   3.143  16.297  0.0512 -0.4071  0.0698
12334TIP3    H158417   1.305   3.172  16.285  0.0205 -0.8227 -0.8053
12334TIP3    H258418   1.438   3.215  16.344 -0.5383  0.1455 -0.2235
12335TIP3   OH258419   0.213   0.394  15.538 -0.1501 -0.2844  0.4694
12335TIP3    H158420   0.252   0.468  15.584 -0.6174  1.0731 -1.1983
12335TIP3    H258421   0.278   0.371  15.471 -0.5726 -0.5191  0.1386
12336TIP3   OH258422   2.768   0.706   4.232 -0.0806  0.2040 -0.1006
12336TIP3    H158423   2.863   0.703   4.244 -0.2104  0.9254  1.3049
12336TIP3    H258424   2.732   0.712   4.320 -1.4762 -0.5554 -0.5767
12337TIP3   OH258425   3.861   5.006   2.463 -0.0733  0.1348  0.5207
12337TIP3    H158426   3.842   4.913   2.448  0.3968 -0.0464  1.0151
12337TIP3    H258427   3.873   5.042   2.376  0.2748 -0.3928  0.3392
12338TIP3   OH258428   2.799   6.237  13.108 -0.2158  0.9441 -0.0163
12338TIP3    H158429   2.718   6.229  13.057  0.6522  0.9756 -1.4649
12338TIP3    H258430   2.844   6.312  13.068  1.0652  0.1938 -0.0213
12339TIP3   OH258431   3.793   2.338   3.711 -0.2971  0.3716 -0.4798
12339TIP3    H158432   3.714   2.361   3.661  0.4449  0.2569 -1.7657
12339TIP3    H258433   3.779   2.247   3.737 -1.0815  0.7054  0.3159
12340TIP3   OH258434   3.430   4.628   6.736 -0.2788 -0.2774  0.3080
12340TIP3    H158435   3.343   4.631   6.695 -1.0509  2.3446  1.9224
12340TIP3    H258436   3.489   4.667   6.672 -1.1899  2.2992  0.9417
12341TIP3   OH258437   6.402   0.192  15.193  0.3327 -0.3195  0.9107
12341TIP3    H158438   6.445   0.174  15.276  2.8959 -1.2273 -0.4995
12341TIP3    H258439   6.335   0.124  15.186  0.3393 -0.4672  2.0608
12342TIP3   OH258440   4.864   2.871   3.765  0.2932 -0.1158 -0.6726
12342TIP3    H158441   4.896   2.959   3.788  1.7326 -1.0239  1.0716
12342TIP3    H258442   4.810   2.885   3.688 -0.4475  2.4601  0.1970
12343TIP3   OH258443   5.476   4.639   0.760 -0.3729  0.6964 -0.1904
12343TIP3    H158444   5.494   4.733   0.764 -1.6689  0.9573 -0.1859
12343TIP3    H258445   5.553   4.599   0.801  1.3498  1.5735 -2.3549
12344TIP3   OH258446   4.418   5.443  12.622  0.1059 -0.5704 -0.1588
12344TIP3    H158447   4.489   5.389  12.657  0.7750  0.4449  0.1221
12344TIP3    H258448   4.364   5.383  12.571  0.8247 -1.4892  0.1384
12345TIP3   OH258449   3.185   1.370  13.765 -0.5982 -0.0172  0.2431
12345TIP3    H158450   3.130   1.394  13.691 -1.7543  0.8002  1.3457
12345TIP3    H258451   3.216   1.453  13.800 -0.3122 -0.3859  0.8806
12346TIP3   OH258452   0.950   4.092   0.691  0.2627  0.5524  0.2735
12346TIP3    H158453   0.973   4.140   0.612 -0.4074 -0.0360 -0.2992
12346TIP3    H258454   0.883   4.029   0.662  1.2776 -0.8884  0.9277
12347TIP3   OH258455   0.075   3.172  12.641  0.1069 -0.6125  0.9416
12347TIP3    H158456   0.130   3.196  12.716  1.1079  1.4064 -0.3487
12347TIP3    H258457  -0.014   3.195  12.668  0.5098  0.4988  1.3569
12348TIP3   OH258458   2.031   3.003   0.529 -0.0673  0.7088  0.1319
12348TIP3    H158459   1.991   3.005   0.442 -1.5672  0.5145  0.7852
12348TIP3    H258460   2.125   3.009   0.512 -0.3497  1.2052 -1.4725
12349TIP3   OH258461   5.078   5.253  15.127  0.2351 -0.2573  0.3120
12349TIP3    H158462   5.024   5.316  15.176 -0.0123 -1.4203  1.5820
12349TIP3    H258463   5.109   5.192  15.194  2.5131 -0.0804 -0.5074
12350TIP3   OH258464   5.365   1.444   2.343 -0.4835  0.1153 -0.1949
12350TIP3    H158465   5.354   1.362   2.390  0.1699  0.9259  1.4593
12350TIP3    H258466   5.394   1.418   2.255 -1.1695 -1.4219  0.0072
12351TIP3   OH258467   0.518   4.600   1.826  0.0914  0.1146  0.1411
12351TIP3    H158468   0.425   4.607   1.848  0.8817  3.2587  3.4305
12351TIP3    H258469   0.527   4.646   1.743 -1.4243 -1.5906 -1.0324
12352TIP3   OH258470   3.401   6.281   3.411 -0.5690 -0.1949  0.3644
12352TIP3    H158471   3.311   6.266   3.439 -0.5482 -0.4179  0.3103
12352TIP3    H258472   3.396   6.356   3.351 -0.9522 -1.2359 -0.9445
12353TIP3   OH258473   0.861   3.305   0.754  0.0225 -0.4752  0.1397
12353TIP3    H158474   0.851   3.400   0.767  2.1274 -0.1670 -0.2052
12353TIP3    H258475   0.934   3.297   0.693 -0.6436 -2.3268 -0.4770
12354TIP3   OH258476   4.202   0.906   0.860  0.2752  0.6414 -0.3456
12354TIP3    H158477   4.207   0.922   0.954  0.8664 -1.4891  0.0360
12354TIP3    H258478   4.120   0.949   0.833  0.5128  2.0036  0.9371
12355TIP3   OH258479   0.674   0.868   4.852 -0.3256  0.4918 -0.8090
12355TIP3    H158480   0.725   0.939   4.813  0.6672  0.4859  0.4051
12355TIP3    H258481   0.661   0.806   4.781  2.9002 -0.3383 -0.8279
12356TIP3   OH258482   4.811   4.390  13.821 -0.1816 -0.0004  0.4282
12356TIP3    H158483   4.844   4.363  13.907  2.1441 -0.8910 -0.6443
12356TIP3    H258484   4.879   4.361  13.760 -1.6076  0.9001 -1.6859
12357TIP3   OH258485   4.324   4.815  13.771  0.0309  0.5092 -0.0528
12357TIP3    H158486   4.232   4.812  13.747 -0.1332 -1.1956  0.6220
12357TIP3    H258487   4.364   4.744  13.721  0.4627 -0.4161  1.5277
12358TIP3   OH258488   3.196   3.830   0.733  0.3505 -0.1830  0.1536
12358TIP3    H158489   3.245   3.858   0.655  0.5438 -0.6439  0.1060
12358TIP3    H258490   3.240   3.874   0.806  1.4158 -1.2982  0.2096
12359TIP3   OH258491   6.036   0.334  14.577 -0.3822 -0.1829 -0.2008
12359TIP3    H158492   5.947   0.312  14.604 -1.5732  1.1983 -2.7011
12359TIP3    H258493   6.031   0.342  14.482  1.9107  2.0917 -0.2313
12360TIP3   OH258494   6.005   1.270  16.026 -0.3208  0.3911  0.2957
12360TIP3    H158495   6.035   1.179  16.031  0.3669  0.6240  0.5577
12360TIP3    H258496   6.058   1.309  15.956 -1.2437  0.3690 -0.4472
12361TIP3   OH258497   6.628   3.545  15.096  0.3888  0.5143 -0.1013
12361TIP3    H158498   6.577   3.518  15.019  0.3609 -0.4313  0.2250
12361TIP3    H258499   6.566   3.595  15.149  0.3166  0.9001 -0.5447
12362TIP3   OH258500   3.965   2.315   5.280 -0.6211  0.2048 -0.1521
12362TIP3    H158501   4.017   2.293   5.358  0.8955 -2.0301 -1.6536
12362TIP3    H258502   3.876   2.287   5.303 -0.6756  1.5126  1.4645
12363TIP3   OH258503   3.008   0.190  11.682 -0.5641 -0.1296  0.0139
12363TIP3    H158504   3.077   0.124  11.692 -0.0347  0.0776 -1.8517
12363TIP3    H258505   3.035   0.242  11.607 -1.7301  1.2982  0.5190
12364TIP3   OH258506   1.349   3.488  16.278 -0.3384 -0.5108 -0.2174
12364TIP3    H158507   1.278   3.456  16.221  0.9204 -2.6730 -0.6722
12364TIP3    H258508   1.329   3.450  16.364 -0.5423  0.1513  0.0300
12365TIP3   OH258509   2.844   5.106   3.742 -0.1424 -0.0356  0.4073
12365TIP3    H158510   2.904   5.158   3.689 -0.7592  1.4327  1.0744
12365TIP3    H258511   2.759   5.149   3.730 -1.0033 -1.7940 -0.1645
12366TIP3   OH258512   2.085   1.082   0.904  0.2734 -0.5584 -0.3264
12366TIP3    H158513   2.127   1.168   0.909  1.5847 -1.2234  0.6221
12366TIP3    H258514   1.999   1.095   0.943 -0.7442  0.9833 -2.8634
12367TIP3   OH258515   5.478   2.279  15.321  0.4393  0.8242 -0.2253
12367TIP3    H158516   5.425   2.219  15.373 -0.2592  1.9063  0.3464
12367TIP3    H258517   5.415   2.326  15.267  1.2361 -1.2082 -3.1733
12368TIP3   OH258518   3.663   2.821  13.385  0.1921  0.4739  0.5714
12368TIP3    H158519   3.668   2.728  13.360 -2.5154  0.4369 -0.2074
12368TIP3    H258520   3.703   2.867  13.312  0.4385 -0.0413  0.3720
12369TIP3   OH258521   3.580   2.184   1.300 -0.1873  1.0654 -0.4598
12369TIP3    H158522   3.544   2.231   1.225 -1.0280  0.0795 -0.7048
12369TIP3    H258523   3.584   2.249   1.370 -1.9059  1.3789 -0.6072
12370TIP3   OH258524   6.697   0.174   1.304 -0.3016  0.0769  0.2073
12370TIP3    H158525   6.762   0.240   1.279  0.2231 -0.1952  0.8049
12370TIP3    H258526   6.655   0.209   1.383 -1.0793  0.3749 -0.3339
12371TIP3   OH258527   0.425   2.034   3.608 -0.4427  0.3377  0.5597
12371TIP3    H158528   0.390   2.121   3.589  0.1520  0.7308  1.2536
12371TIP3    H258529   0.476   2.045   3.688  0.2056 -0.5046  0.2746
12372TIP3   OH258530   2.875   5.161   0.845 -0.1430 -0.3363  0.6949
12372TIP3    H158531   2.909   5.169   0.756 -0.7012 -2.8043  0.1704
12372TIP3    H258532   2.930   5.094   0.886 -2.7295 -2.7518  0.5749
12373TIP3   OH258533   1.647   4.832  13.938  0.2263 -0.0507  0.4121
12373TIP3    H158534   1.690   4.902  13.890 -1.2349  1.1703  0.8274
12373TIP3    H258535   1.570   4.810  13.886  1.2272 -2.2035 -0.3147
12374TIP3   OH258536   4.295   5.077   6.517  0.3635 -0.1876 -0.1164
12374TIP3    H158537   4.203   5.078   6.540  1.0387 -1.2441  3.0722
12374TIP3    H258538   4.313   4.988   6.488  0.5751 -0.2815  0.2888
12375TIP3   OH258539   0.151   0.247  14.132 -0.4093  0.0825  0.3816
12375TIP3    H158540   0.114   0.175  14.184 -1.1489  1.4306  1.8203
12375TIP3    H258541   0.097   0.323  14.155  0.9085  1.2999 -0.3768
12376TIP3   OH258542   4.373   4.230  17.139  0.1311  0.1585 -0.2990
12376TIP3    H158543   4.410   4.205  17.054  2.7150 -0.5945  0.9313
12376TIP3    H258544   4.373   4.149  17.190  0.6994  0.9827  1.0827
12377TIP3   OH258545   4.473   5.542   0.554  0.0426  0.7176  0.6550
12377TIP3    H158546   4.559   5.559   0.515  0.2181 -1.4089 -0.0567
12377TIP3    H258547   4.413   5.543   0.479 -0.4645  1.6332  1.0708
12378TIP3   OH258548   4.165   3.847  10.863  0.7459  0.6486  0.6258
12378TIP3    H158549   4.257   3.858  10.889  0.8428 -0.6060  0.8630
12378TIP3    H258550   4.121   3.818  10.942  0.5666 -0.7815  0.0372
12379TIP3   OH258551   2.513   3.535   0.398 -0.0423  0.0283  0.0662
12379TIP3    H158552   2.420   3.534   0.419  0.0826 -0.3736  0.5965
12379TIP3    H258553   2.520   3.600   0.328 -0.6853  0.2278  0.1782
12380TIP3   OH258554   6.476   1.303   3.104  0.0363  0.7781  0.1428
12380TIP3    H158555   6.534   1.333   3.034 -0.3096  0.9478 -0.0692
12380TIP3    H258556   6.396   1.355   3.094 -0.3755  0.1457  0.0768
12381TIP3   OH258557   5.376   5.493  16.364  0.3475  0.2618 -0.3671
12381TIP3    H158558   5.443   5.528  16.422 -2.0806  1.1791  2.0944
12381TIP3    H258559   5.402   5.402  16.350  2.2332  0.6663  0.2042
12382TIP3   OH258560   5.020   5.523   1.703  0.5301 -0.1907  0.1545
12382TIP3    H158561   5.027   5.481   1.788  2.1041 -0.1088  0.1042
12382TIP3    H258562   5.030   5.617   1.721  0.6154 -0.1512 -0.0872
12383TIP3   OH258563   1.814   4.570   4.551  0.1367  0.3231 -0.0964
12383TIP3    H158564   1.893   4.532   4.512  1.0954  0.2350  1.8377
12383TIP3    H258565   1.816   4.661   4.522  1.0548  0.3701  0.0704
12384TIP3   OH258566   6.090   4.859  12.539  0.4438 -0.1158  0.0263
12384TIP3    H158567   5.998   4.832  12.542  0.6501 -0.9542 -0.6609
12384TIP3    H258568   6.095   4.923  12.468  0.2516  0.5346  0.5907
12385TIP3   OH258569   5.747   2.047   5.714  0.3755  0.8314  0.3092
12385TIP3    H158570   5.763   2.138   5.689 -1.6889  0.6602 -1.9939
12385TIP3    H258571   5.767   2.044   5.808  0.9448  3.5121  0.3484
12386TIP3   OH258572   3.155   0.875  14.988 -0.0456  0.2078  0.0789
12386TIP3    H158573   3.114   0.901  14.905  0.1821  0.2922 -0.0087
12386TIP3    H258574   3.178   0.783  14.975 -0.3272  0.1202  0.1787
12387TIP3   OH258575   6.018   6.113   4.373 -0.1241  0.0376 -0.2558
12387TIP3    H158576   6.068   6.036   4.348  0.6497  0.4449  0.0019
12387TIP3    H258577   6.041   6.130   4.464 -0.5748  0.3558 -0.1904
12388TIP3   OH258578   4.091   1.965   2.237  0.2334  0.4774  0.2990
12388TIP3    H158579   4.156   1.914   2.286  0.9639 -1.0886 -2.1126
12388TIP3    H258580   4.136   1.989   2.156 -2.1539 -0.8015 -1.5613
12389TIP3   OH258581   5.483   0.018  15.442 -0.5544  0.0793 -0.0658
12389TIP3    H158582   5.457   0.069  15.365  0.7582  0.4872 -0.2584
12389TIP3    H258583   5.400  -0.003  15.485 -1.4454 -1.2389 -2.2322
12390TIP3   OH258584   4.106   1.287  15.458  0.6182 -0.0505 -0.3219
12390TIP3    H158585   4.090   1.197  15.486  2.2318 -0.3718 -0.3462
12390TIP3    H258586   4.184   1.314  15.505  1.7754  0.3683 -2.3447
12391TIP3   OH258587   4.952   4.220   2.203  0.3394 -0.3059  0.0649
12391TIP3    H158588   4.951   4.266   2.119  0.3404 -1.8940 -0.8465
12391TIP3    H258589   5.033   4.170   2.202  1.6664  1.6177  2.1909
12392TIP3   OH258590   4.754   0.959   2.013 -0.5164 -0.4326  0.1612
12392TIP3    H158591   4.717   1.039   1.975 -0.3569 -1.3165 -2.0046
12392TIP3    H258592   4.848   0.970   2.004 -0.1288  0.9839  3.9528
12393TIP3   OH258593   4.096   4.266   2.548 -0.2170 -0.2743  0.2389
12393TIP3    H158594   4.172   4.228   2.593  1.1415  0.4667 -1.3165
12393TIP3    H258595   4.041   4.191   2.527  0.3796 -0.8990  0.8457
12394TIP3   OH258596   4.976   3.271  15.210 -0.1418 -0.1883  0.0404
12394TIP3    H158597   5.036   3.344  15.197  0.2197 -0.3436  0.7675
12394TIP3    H258598   5.014   3.221  15.282  0.2058 -1.7103 -1.1386
12395TIP3   OH258599   6.692   2.589  14.453  0.3099  0.6862  0.2384
12395TIP3    H158600   6.734   2.590  14.367 -2.7365  0.5354 -1.3882
12395TIP3    H258601   6.681   2.496  14.473  1.8988  0.6855  1.3736
12396TIP3   OH258602   3.199   0.093  13.427  0.1760 -0.1515  0.1517
12396TIP3    H158603   3.260   0.129  13.492  1.5429 -2.4047  0.2123
12396TIP3    H258604   3.170   0.010  13.465  0.2949 -1.0868 -1.7160
12397TIP3   OH258605   2.763   1.160   5.079 -0.6294 -0.3281 -0.2251
12397TIP3    H158606   2.837   1.139   5.136 -1.2700  0.1795  0.8325
12397TIP3    H258607   2.802   1.209   5.006  0.1112 -0.2840  0.1906
12398TIP3   OH258608   3.816   2.525   5.253 -0.6248  0.4418 -0.2525
12398TIP3    H158609   3.887   2.463   5.268 -2.5717 -2.0758 -0.8897
12398TIP3    H258610   3.815   2.538   5.158 -0.3709  1.3471 -0.1463
12399TIP3   OH258611   1.373   6.574   1.991  0.3783 -0.3302  0.0466
12399TIP3    H158612   1.358   6.524   2.071 -0.1382 -1.7084 -0.8832
12399TIP3    H258613   1.466   6.561   1.973  0.7766  0.9277  1.0015
12400TIP3   OH258614   1.176   4.789  13.511  0.7358 -0.1680 -0.4449
12400TIP3    H158615   1.161   4.876  13.474 -0.4287 -0.5305 -0.8813
12400TIP3    H258616   1.088   4.752  13.522  1.2019 -1.2393 -0.1448
12401TIP3   OH258617   2.896   3.280   4.386  0.5042 -0.3392  0.8284
12401TIP3    H158618   2.957   3.248   4.453  0.3843 -0.0143  1.0934
12401TIP3    H258619   2.869   3.366   4.417  0.0120 -0.4241  0.6430
12402TIP3   OH258620   0.436   6.663   2.382  0.1064  0.3878  0.0106
12402TIP3    H158621   0.401   6.638   2.468  0.5292  0.8665  0.3274
12402TIP3    H258622   0.489   6.589   2.355  1.6645  1.0383  1.1184
12403TIP3   OH258623   1.930   4.296  12.958 -0.3170  0.3401 -0.0349
12403TIP3    H158624   1.918   4.274  13.051  1.3687 -1.2393 -0.1386
12403TIP3    H258625   2.020   4.269  12.938 -0.9727 -0.3802 -2.3860
12404TIP3   OH258626   5.231   6.617  11.776  0.1140 -0.3398  0.7506
12404TIP3    H158627   5.246   6.528  11.806  0.3097 -0.3276  0.6896
12404TIP3    H258628   5.246   6.671  11.854 -2.4023 -0.5304  1.4618
12405TIP3   OH258629   3.391   6.186   4.478 -0.4320 -0.2906  0.3277
12405TIP3    H158630   3.457   6.234   4.527 -2.2385 -0.3617  3.0626
12405TIP3    H258631   3.317   6.246   4.473 -1.1040 -1.1391 -0.2757
12406TIP3   OH258632   4.240   5.606   1.336 -0.3062 -0.0461 -0.2458
12406TIP3    H158633   4.218   5.699   1.338  0.7317  0.2053  1.1020
12406TIP3    H258634   4.330   5.603   1.303 -1.0564 -0.7864 -2.4466
12407TIP3   OH258635   4.260   6.518  12.467 -0.7016  0.0467 -0.0393
12407TIP3    H158636   4.334   6.457  12.457  0.0734  1.0985 -0.8657
12407TIP3    H258637   4.231   6.504  12.557  0.6455 -0.2349  0.3812
12408TIP3   OH258638   1.960   5.317  15.179  0.6022  0.0845  0.4681
12408TIP3    H158639   2.047   5.277  15.175 -0.6358 -2.9152  0.9855
12408TIP3    H258640   1.920   5.280  15.257 -2.2490 -1.1618 -1.4281
12409TIP3   OH258641   0.007   6.407   5.838 -0.1825  0.1969 -0.2559
12409TIP3    H158642   0.015   6.446   5.751  0.6548  0.2042 -0.1824
12409TIP3    H258643  -0.014   6.315   5.822 -3.2318  0.8378 -0.4264
12410TIP3   OH258644   3.627   1.071  16.208  0.6686 -0.0729  0.2104
12410TIP3    H158645   3.657   0.986  16.175 -1.3742 -0.6904 -0.2072
12410TIP3    H258646   3.538   1.055  16.238  0.7887  1.5942  1.6164
12411TIP3   OH258647   6.662   1.472   5.779 -0.8504 -0.8452  0.6049
12411TIP3    H158648   6.609   1.541   5.819 -1.0162 -1.3304  1.2369
12411TIP3    H258649   6.607   1.394   5.783 -0.8791 -0.9015 -0.6095
12412TIP3   OH258650   6.323   5.234  11.203  0.2944 -0.7418  0.8315
12412TIP3    H158651   6.274   5.252  11.283 -0.6627  0.6676 -0.0389
12412TIP3    H258652   6.260   5.190  11.146  0.1688  0.5659 -0.0780
12413TIP3   OH258653   6.640   0.225   2.711  0.0839  0.5018 -0.6091
12413TIP3    H158654   6.728   0.240   2.745 -0.2307  0.0516  0.4637
12413TIP3    H258655   6.626   0.131   2.722 -1.6166  0.9632  2.1209
12414TIP3   OH258656   2.467   0.719  13.284 -0.0906  0.0218 -0.2136
12414TIP3    H158657   2.394   0.701  13.224  1.5909  2.0293 -3.1103
12414TIP3    H258658   2.515   0.637  13.288  0.0147 -0.0637 -2.1230
12415TIP3   OH258659   2.933   3.955  12.461  0.1219  0.0440 -0.0042
12415TIP3    H158660   3.019   3.980  12.496 -0.5012  1.0595  0.8435
12415TIP3    H258661   2.870   3.998  12.518 -0.9584 -0.1289 -1.0230
12416TIP3   OH258662   4.973   2.573   5.069 -0.1455 -0.5200  1.0083
12416TIP3    H158663   4.881   2.595   5.058 -0.0114  0.1758  1.2664
12416TIP3    H258664   5.008   2.643   5.124  1.0162  0.3479 -0.7549
12417TIP3   OH258665   3.272   3.522   0.735 -0.3121 -0.2597 -0.4101
12417TIP3    H158666   3.239   3.607   0.765  1.4051  0.3658 -0.1877
12417TIP3    H258667   3.251   3.520   0.642  0.3467  0.7751 -0.5947
12418TIP3   OH258668   0.938   3.097  15.795 -0.0877  0.0420 -0.1021
12418TIP3    H158669   0.902   3.084  15.883 -0.1465  2.2654  0.2523
12418TIP3    H258670   0.888   3.037  15.740 -1.5724  0.1596  1.0438
12419TIP3   OH258671   3.734   0.513   0.527 -0.2056  0.4305 -0.0277
12419TIP3    H158672   3.795   0.525   0.600  3.3075  0.5119 -2.7123
12419TIP3    H258673   3.719   0.418   0.523 -1.5885  0.5463  1.5626
12420TIP3   OH258674   1.648   3.909  10.670 -0.3037  0.7836 -0.4027
12420TIP3    H158675   1.639   4.003  10.688  0.3879  1.2710 -2.3112
12420TIP3    H258676   1.579   3.891  10.607 -0.1947  0.1018 -0.3271
12421TIP3   OH258677   2.560   0.245  16.945 -0.1800  0.0099  0.1576
12421TIP3    H158678   2.572   0.268  16.853 -3.7495 -1.6130 -0.8821
12421TIP3    H258679   2.548   0.329  16.989 -1.8153  0.7369 -1.5328
12422TIP3   OH258680   0.946   1.786  13.075  0.3425 -0.0188 -0.1283
12422TIP3    H158681   0.922   1.694  13.068 -0.9455 -0.1802  3.8777
12422TIP3    H258682   1.037   1.785  13.104 -0.2362 -0.2192  1.8359
12423TIP3   OH258683   4.279   5.925  13.025 -0.4704  0.0752 -0.5726
12423TIP3    H158684   4.261   5.990  13.093 -0.1489  1.2117 -1.5568
12423TIP3    H258685   4.349   5.871  13.062 -1.7852 -0.7090  0.8826
12424TIP3   OH258686   5.884   0.216  13.744 -1.2393  0.7779 -0.4050
12424TIP3    H158687   5.874   0.124  13.769 -1.9132  1.1194  0.6418
12424TIP3    H258688   5.914   0.259  13.824  2.4328  0.9530 -1.7114
12425TIP3   OH258689   5.124   5.286  11.363 -0.2736 -0.0020 -0.0619
12425TIP3    H158690   5.035   5.319  11.353  0.1647  1.6825  0.9784
12425TIP3    H258691   5.180   5.361  11.339  0.8442 -0.8455 -0.1696
12426TIP3   OH258692   4.090   4.591  13.936 -0.4506 -0.5450  0.7663
12426TIP3    H158693   4.065   4.680  13.958  0.1519 -0.4119  0.9265
12426TIP3    H258694   4.185   4.594  13.928 -0.4814 -1.0142  0.0654
12427TIP3   OH258695   4.899   3.834   4.107  0.1156 -0.1716 -0.4179
12427TIP3    H158696   4.815   3.792   4.086 -0.3883  1.0366 -0.8823
12427TIP3    H258697   4.883   3.879   4.189  0.2845  0.1485 -0.5606
12428TIP3   OH258698   0.271   4.329  15.280  0.2685  0.3196  0.0472
12428TIP3    H158699   0.262   4.372  15.365 -2.2764 -0.5188  0.3018
12428TIP3    H258700   0.232   4.243  15.293  0.1965  0.0260 -1.8696
12429TIP3   OH258701   4.900   5.829   3.878  0.3401 -0.0020  0.1687
12429TIP3    H158702   4.891   5.870   3.964  2.1403 -1.1889  1.0019
12429TIP3    H258703   4.963   5.883   3.832 -0.9255  0.8594 -0.5845
12430TIP3   OH258704   3.131   1.243  17.070  0.0422  0.1214 -0.1313
12430TIP3    H158705   3.132   1.202  16.983 -1.5896 -0.0618 -0.0893
12430TIP3    H258706   3.127   1.337  17.053  0.5373  0.1280 -0.2364
12431TIP3   OH258707   5.205   6.550  16.308  0.3108 -0.0386 -0.4139
12431TIP3    H158708   5.217   6.574  16.400  0.8391 -1.0617 -0.2093
12431TIP3    H258709   5.118   6.583  16.286 -0.6873 -1.5403  1.0519
12432TIP3   OH258710   3.670   1.802   4.412  0.3032 -0.1173 -0.1767
12432TIP3    H158711   3.605   1.812   4.343 -0.1904 -1.1805  0.1030
12432TIP3    H258712   3.754   1.800   4.365  0.0852  0.5518 -0.6070
12433TIP3   OH258713   5.666   2.010   1.433  0.8454  0.0343  0.4031
12433TIP3    H158714   5.732   1.941   1.437  0.4024 -0.4551 -0.5518
12433TIP3    H258715   5.598   1.976   1.376 -0.3927  0.4101  1.5847
12434TIP3   OH258716   2.730   3.463  17.307 -0.3544  0.2601  0.0707
12434TIP3    H158717   2.809   3.410  17.319  0.7609  2.0732  1.1360
12434TIP3    H258718   2.742   3.505  17.221 -1.4838 -1.5163 -1.0181
12435TIP3   OH258719   3.617   4.873   4.227  0.7891 -0.4117 -0.1099
12435TIP3    H158720   3.609   4.953   4.279  1.4111  0.5372 -1.4127
12435TIP3    H258721   3.624   4.803   4.292 -1.1520  0.4163  1.0748
12436TIP3   OH258722   1.446   3.234  15.120  0.0319 -0.2484  0.1151
12436TIP3    H158723   1.423   3.176  15.048 -1.4346 -0.0651  0.4078
12436TIP3    H258724   1.467   3.175  15.192  3.3096 -0.4975 -0.8832
12437TIP3   OH258725   3.786   2.550   1.293  0.2728  0.0606  0.4471
12437TIP3    H158726   3.738   2.579   1.371  1.1028  1.8433  0.3325
12437TIP3    H258727   3.747   2.600   1.221  0.8726 -0.0802  0.0198
12438TIP3   OH258728   1.451   3.594   3.586 -0.1816 -0.3753  0.2781
12438TIP3    H158729   1.427   3.502   3.578  1.7289 -1.2132  2.6853
12438TIP3    H258730   1.506   3.611   3.510  1.2336 -1.9372  0.8766
12439TIP3   OH258731   0.176   2.062   2.268 -0.0503 -0.1436 -0.6072
12439TIP3    H158732   0.171   2.158   2.272 -0.2481 -0.1280 -1.1757
12439TIP3    H258733   0.268   2.044   2.251  0.9426 -0.2236  3.6786
12440TIP3   OH258734   5.662   5.144  11.531 -0.1443  0.2338  0.2562
12440TIP3    H158735   5.716   5.098  11.595 -1.5192 -0.9469  0.6235
12440TIP3    H258736   5.606   5.201  11.584 -0.2066  0.4254 -0.0145
12441TIP3   OH258737   2.266   6.522  11.152  0.0589 -0.2374  0.2174
12441TIP3    H158738   2.331   6.578  11.194 -0.2950  0.5639 -0.2875
12441TIP3    H258739   2.314   6.442  11.130  0.4365 -0.3567  1.4282
12442TIP3   OH258740   5.868   2.939   4.702 -0.2515  0.0368 -0.3985
12442TIP3    H158741   5.908   2.854   4.719 -0.3754  0.1010  0.2256
12442TIP3    H258742   5.776   2.928   4.727  0.1059  0.8641  1.4590
12443TIP3   OH258743   5.668   0.365   5.561 -1.3369 -0.2301  0.4532
12443TIP3    H158744   5.681   0.415   5.480 -2.3551  2.9661  2.0675
12443TIP3    H258745   5.632   0.281   5.533 -1.8079  0.8248 -2.4032
12444TIP3   OH258746   2.217   2.125  12.235  0.4780 -0.2125 -0.4211
12444TIP3    H158747   2.128   2.121  12.200  0.9695 -0.3632 -1.7064
12444TIP3    H258748   2.205   2.126  12.330 -0.9310  0.8340 -0.5764
12445TIP3   OH258749   6.128   1.454   0.733 -0.1476 -0.5894  0.2070
12445TIP3    H158750   6.212   1.444   0.688 -0.0721  3.8489 -1.0375
12445TIP3    H258751   6.064   1.414   0.674  0.4799  1.3697 -1.9229
12446TIP3   OH258752   0.773   4.981  13.454  0.7448  0.0415  0.0748
12446TIP3    H158753   0.703   4.996  13.390  1.2784  0.8422 -0.3268
12446TIP3    H258754   0.735   5.011  13.537  0.7271  0.7832 -0.1995
12447TIP3   OH258755   5.857   5.883  16.529 -0.2339  0.6188  0.0126
12447TIP3    H158756   5.871   5.789  16.541 -0.9558  0.0037 -3.0613
12447TIP3    H258757   5.814   5.911  16.610 -4.2241 -2.7164 -0.6080
12448TIP3   OH258758   3.220   3.714  11.067  0.3033 -0.3398  0.2799
12448TIP3    H158759   3.233   3.800  11.027 -1.3179 -0.2236 -0.0697
12448TIP3    H258760   3.155   3.671  11.012  1.9318 -2.2946 -0.2375
12449TIP3   OH258761   1.545   0.262  12.236 -0.4654  0.5271 -0.3812
12449TIP3    H158762   1.477   0.279  12.170 -0.2567 -0.5514 -0.8986
12449TIP3    H258763   1.626   0.255  12.185 -0.5046 -1.7677 -0.2241
12450TIP3   OH258764   5.112   5.448  10.815 -0.2929 -0.0351  0.5477
12450TIP3    H158765   5.185   5.501  10.784 -2.6306  2.9835 -0.2658
12450TIP3    H258766   5.109   5.466  10.909 -2.1630  3.0097  0.0292
12451TIP3   OH258767   0.739   5.626  13.847  0.3070 -0.0003  0.2222
12451TIP3    H158768   0.701   5.544  13.877  0.6084 -0.1954  0.0735
12451TIP3    H258769   0.702   5.693  13.905  1.1505 -0.4129  1.2409
12452TIP3   OH258770   4.409   2.994   4.377  0.3695  0.2694  0.2240
12452TIP3    H158771   4.440   3.067   4.324 -0.2375 -0.4961 -1.2462
12452TIP3    H258772   4.366   3.035   4.452  0.5807  1.4026 -0.2513
12453TIP3   OH258773   2.857   5.606   1.494 -0.1885  0.4217  0.2199
12453TIP3    H158774   2.885   5.630   1.582 -0.6262  1.5456  0.0731
12453TIP3    H258775   2.917   5.653   1.436 -0.7369  0.7823 -0.0732
12454TIP3   OH258776   4.541   6.002  13.354 -0.5167  0.1121 -0.2947
12454TIP3    H158777   4.582   5.924  13.316 -0.2043 -0.3330  0.8866
12454TIP3    H258778   4.607   6.036  13.415 -1.0119  0.7516 -0.1014
12455TIP3   OH258779   2.627   2.195   2.008  0.1438 -0.0624 -0.1320
12455TIP3    H158780   2.670   2.263   1.956 -1.4355  0.9214 -0.2185
12455TIP3    H258781   2.610   2.125   1.945  0.3292  0.1440 -0.4163
12456TIP3   OH258782   0.804   5.716   1.617  0.2292 -0.1450 -0.2011
12456TIP3    H158783   0.815   5.812   1.616  1.5407 -0.2350 -2.0392
12456TIP3    H258784   0.735   5.699   1.553 -0.4683 -0.4071  0.6111
12457TIP3   OH258785   2.950   6.743  12.993  0.5178 -0.2034  0.0357
12457TIP3    H158786   2.990   6.722  13.078 -0.4360  0.5453  0.6914
12457TIP3    H258787   2.943   6.839  12.993  0.1112 -0.2309 -0.7136
12458TIP3   OH258788   0.763   5.728   0.508  0.8668  0.1178  0.4082
12458TIP3    H158789   0.688   5.669   0.521 -0.2442  1.3827  0.0179
12458TIP3    H258790   0.740   5.806   0.558  1.8630  0.5902  0.1348
12459TIP3   OH258791   4.950   1.258  12.630  0.1154  0.0007 -0.3823
12459TIP3    H158792   5.004   1.188  12.593  0.6919  0.0502  0.3386
12459TIP3    H258793   5.013   1.328  12.651 -0.2433  0.1076  0.3556
12460TIP3   OH258794   6.145   2.657   0.140  0.0605  0.1563 -0.3603
12460TIP3    H158795   6.165   2.750   0.134  0.5626  0.1142  0.5076
12460TIP3    H258796   6.190   2.628   0.219  0.1666 -0.8893 -0.7868
12461TIP3   OH258797   4.640   2.053   4.701 -0.5565 -0.5650  0.0133
12461TIP3    H158798   4.628   2.132   4.649  0.4507 -0.2533  0.2417
12461TIP3    H258799   4.551   2.028   4.727 -0.8262  1.0267  0.7413
12462TIP3   OH258800   4.366   2.621  11.908  0.0454 -0.2642  0.0389
12462TIP3    H158801   4.435   2.636  11.972 -0.4110  0.7139  0.3168
12462TIP3    H258802   4.294   2.581  11.957 -0.6981  1.4148  0.3926
12463TIP3   OH258803   2.234   2.230   4.473  0.0437 -0.0865  0.3461
12463TIP3    H158804   2.270   2.298   4.530 -1.5500  0.5134  0.6916
12463TIP3    H258805   2.226   2.153   4.530 -0.0319  0.0309  0.4961
12464TIP3   OH258806   1.133   3.969  13.198  0.5902 -0.6589 -0.0081
12464TIP3    H158807   1.113   3.934  13.285 -1.1475  0.5392  0.1252
12464TIP3    H258808   1.146   4.063  13.213  1.2217 -0.5937 -0.9127
12465TIP3   OH258809   1.286   4.559   5.362  0.5522  0.1519 -0.8164
12465TIP3    H158810   1.339   4.637   5.372 -1.4069  1.5112 -0.5464
12465TIP3    H258811   1.215   4.585   5.303 -0.6532 -1.1235 -0.0025
12466TIP3   OH258812   5.986   4.764   0.986  0.1087 -0.0528  0.0830
12466TIP3    H158813   5.926   4.705   0.941 -0.3903  0.9453 -0.6192
12466TIP3    H258814   6.053   4.786   0.920  0.8830 -0.6336  0.6527
12467TIP3   OH258815   2.544   2.606   5.780  0.5645  0.9461  0.1833
12467TIP3    H158816   2.583   2.587   5.866 -0.1897 -0.0325  0.3319
12467TIP3    H258817   2.536   2.520   5.738 -1.4663  1.0779  0.1946
12468TIP3   OH258818   4.230   4.611   4.509  0.0536  0.2960  0.5348
12468TIP3    H158819   4.319   4.645   4.522  0.1957 -0.2494  1.0228
12468TIP3    H258820   4.174   4.687   4.526  0.4480  1.0659 -1.2599
12469TIP3   OH258821   1.314   1.989  10.345  0.4305  0.2811 -0.2789
12469TIP3    H158822   1.309   2.073  10.390  0.1027  0.9117 -1.4406
12469TIP3    H258823   1.236   1.942  10.374  0.0488  0.8076 -0.4460
12470TIP3   OH258824   1.751   1.978  15.388  0.4622  0.7087 -0.0841
12470TIP3    H158825   1.688   1.933  15.445 -0.2047  0.7936 -0.7316
12470TIP3    H258826   1.707   2.060  15.365 -0.4409 -0.4218 -2.7728
12471TIP3   OH258827   1.164   6.605   3.540 -0.3247  0.7223 -0.2340
12471TIP3    H158828   1.177   6.663   3.615 -0.5124  0.0741  0.3066
12471TIP3    H258829   1.251   6.566   3.526 -0.7383 -0.7375  0.9865
12472TIP3   OH258830   0.812   5.643  17.051 -0.6282 -0.1076  0.1751
12472TIP3    H158831   0.753   5.698  17.000  1.2757  0.2214 -1.8041
12472TIP3    H258832   0.861   5.704  17.106  0.1540  0.0183 -0.6321
12473TIP3   OH258833   0.413   6.584  12.873  0.2345  0.2017 -0.1332
12473TIP3    H158834   0.321   6.584  12.899  0.3505  0.8553  0.3033
12473TIP3    H258835   0.447   6.501  12.905 -0.3272 -0.2851 -0.7685
12474TIP3   OH258836   0.489   4.067  13.859  0.1366 -0.0661 -0.0669
12474TIP3    H158837   0.559   4.025  13.910  1.0902  1.9220  0.3535
12474TIP3    H258838   0.409   4.046  13.907  0.8052  0.1665  1.1959
12475TIP3   OH258839   5.207   3.776   5.802 -0.0630 -0.9169 -0.7988
12475TIP3    H158840   5.168   3.701   5.849 -1.2920  0.0256 -0.2583
12475TIP3    H258841   5.162   3.777   5.718 -1.5084  0.3549 -0.0597
12476TIP3   OH258842   6.693   1.937   0.578 -0.6124 -0.6288  0.3836
12476TIP3    H158843   6.662   2.001   0.641  0.4351 -0.4401  0.7172
12476TIP3    H258844   6.783   1.919   0.604 -1.0401 -2.6283  0.6080
12477TIP3   OH258845   0.369   2.241  12.376 -0.1293  0.1020 -0.3746
12477TIP3    H158846   0.380   2.321  12.428 -0.8243  1.3430 -2.0749
12477TIP3    H258847   0.436   2.247  12.308  0.5355 -1.3388  0.1009
12478TIP3   OH258848   6.574   3.506  10.993 -0.7149 -0.1419  0.3461
12478TIP3    H158849   6.607   3.561  10.922 -3.0695 -0.0864 -0.8305
12478TIP3    H258850   6.602   3.549  11.073  0.3586  0.8877 -0.5478
12479TIP3   OH258851   3.535   6.145   4.864  0.1022  0.0812  0.5608
12479TIP3    H158852   3.588   6.106   4.795 -0.9908  0.6016 -0.6026
12479TIP3    H258853   3.595   6.203   4.911  0.9171 -0.4822  0.2282
12480TIP3   OH258854   1.505   4.960  15.108  0.0294 -0.3254  0.2324
12480TIP3    H158855   1.498   4.894  15.176  0.9008 -0.1564  0.5039
12480TIP3    H258856   1.579   5.015  15.135  1.5043 -1.2320 -1.6690
12481TIP3   OH258857   3.662   5.976  13.489 -0.4665 -0.1432 -0.3987
12481TIP3    H158858   3.621   6.061  13.506 -2.5525 -1.0532 -0.5029
12481TIP3    H258859   3.670   5.972  13.393 -0.6608 -0.1852 -0.4140
12482TIP3   OH258860   0.675   4.558   3.875 -0.4995  0.2788  0.9906
12482TIP3    H158861   0.615   4.505   3.822 -0.2960  0.6729  0.3542
12482TIP3    H258862   0.689   4.506   3.954  1.0258 -1.4495 -0.3091
12483TIP3   OH258863   4.645   3.560  10.214  0.4302 -0.0760  0.4495
12483TIP3    H158864   4.680   3.646  10.192  1.4516 -0.4937  0.4009
12483TIP3    H258865   4.722   3.503  10.219 -0.2839 -1.1289 -0.1557
12484TIP3   OH258866   0.109   4.331   5.223 -0.5086  0.1907  0.0644
12484TIP3    H158867   0.195   4.321   5.183 -1.1082  0.5407 -1.4169
12484TIP3    H258868   0.064   4.393   5.166 -1.5972  0.3385  1.0500
12485TIP3   OH258869   2.211   5.266   0.974 -0.0786  0.3792 -0.3282
12485TIP3    H158870   2.200   5.186   1.025 -0.2787 -1.3196 -2.8702
12485TIP3    H258871   2.305   5.282   0.975  0.0327 -0.2450 -0.2731
12486TIP3   OH258872   2.424   3.218  11.760 -0.1481  0.2098 -0.0511
12486TIP3    H158873   2.345   3.243  11.712 -0.4857 -1.1698 -0.2779
12486TIP3    H258874   2.477   3.298  11.764  0.0819  0.3332 -3.0808
12487TIP3   OH258875   2.622   0.701   1.140  0.1642 -0.5018 -0.1132
12487TIP3    H158876   2.683   0.734   1.075  0.5760 -1.4268 -0.2104
12487TIP3    H258877   2.602   0.777   1.195 -1.4183  0.7130 -2.2126
12488TIP3   OH258878   1.894   1.398  14.343 -0.1028 -0.0804  0.4701
12488TIP3    H158879   1.903   1.341  14.420 -0.9726 -0.7407  0.0930
12488TIP3    H258880   1.984   1.411  14.313  0.2537  0.1892  1.5930
12489TIP3   OH258881   4.975   2.904   5.027  0.0335 -0.4297 -0.5722
12489TIP3    H158882   4.931   2.877   5.107 -0.2465  0.6094 -0.3663
12489TIP3    H258883   5.065   2.921   5.054  0.0621 -0.5608 -0.5832
12490TIP3   OH258884   6.234   1.432  15.638  0.1168  0.2641 -0.5424
12490TIP3    H158885   6.168   1.365  15.652 -2.1994  2.3832 -0.5449
12490TIP3    H258886   6.262   1.420  15.547  0.2724 -1.0714 -0.3325
12491TIP3   OH258887   0.607   4.594   6.006 -0.6868 -0.0643  0.1672
12491TIP3    H158888   0.534   4.539   6.034  0.5187 -1.1747  1.2694
12491TIP3    H258889   0.682   4.563   6.057  0.4769  1.3215 -0.6073
12492TIP3   OH258890   5.159   4.084  13.165 -0.4794  0.0591 -0.7813
12492TIP3    H158891   5.206   4.132  13.234  0.7348 -0.9032 -0.9061
12492TIP3    H258892   5.206   4.000  13.158 -2.2630 -0.9714 -0.8785
12493TIP3   OH258893   6.153   5.564  11.503  0.2591 -0.2208  0.2268
12493TIP3    H158894   6.142   5.550  11.597  1.3638 -0.0818  0.3899
12493TIP3    H258895   6.219   5.633  11.496 -0.7681  0.7170 -0.6464
12494TIP3   OH258896   0.185   6.466  12.445  0.0053  0.0673 -0.5714
12494TIP3    H158897   0.212   6.397  12.506  0.4261  0.5302 -0.2282
12494TIP3    H258898   0.108   6.505  12.486 -1.4173 -1.4511 -1.6955
12495TIP3   OH258899   2.089   5.092   5.916 -0.2694 -0.1860 -0.0073
12495TIP3    H158900   2.034   5.018   5.892 -1.4521  0.8611 -0.6319
12495TIP3    H258901   2.030   5.151   5.963  0.6849  0.3050  0.6047
12496TIP3   OH258902   0.690   5.423  12.695  0.0514  0.4716 -0.4066
12496TIP3    H158903   0.680   5.361  12.623 -0.5967 -0.0569  0.1264
12496TIP3    H258904   0.609   5.415  12.745 -0.4433  2.3704 -0.7995
12497TIP3   OH258905   6.443   3.642   0.733 -0.4597  0.4112 -0.2252
12497TIP3    H158906   6.526   3.599   0.754 -0.9609 -0.3107  0.3212
12497TIP3    H258907   6.408   3.592   0.660 -0.3460  0.8219 -0.5695
12498TIP3   OH258908   6.082   6.058  11.964 -0.1292 -0.0079 -0.0429
12498TIP3    H158909   5.994   6.024  11.945 -0.0923 -0.4152  0.4938
12498TIP3    H258910   6.067   6.140  12.009 -0.2369 -0.1571  0.1928
12499TIP3   OH258911   0.618   1.254  12.866 -0.0361  0.5094  0.7831
12499TIP3    H158912   0.586   1.268  12.955  1.1472 -0.7087  1.4340
12499TIP3    H258913   0.622   1.159  12.857  0.3124  0.6209 -0.4074
12500TIP3   OH258914   5.369   1.988  15.314  0.8496  0.6925 -0.4501
12500TIP3    H158915   5.359   1.918  15.249  0.2897  0.5757 -0.2380
12500TIP3    H258916   5.284   1.994  15.357  0.7079  1.9072 -0.8600
12501TIP3   OH258917   5.944   3.547  13.434 -0.1815  0.3123  0.0804
12501TIP3    H158918   6.013   3.505  13.485  0.1200  0.6397 -0.0528
12501TIP3    H258919   5.929   3.631  13.479 -0.0321  0.5283 -0.2734
12502TIP3   OH258920   1.001   2.701  11.110 -0.2047 -0.2254 -0.5346
12502TIP3    H158921   1.064   2.772  11.100  0.4438 -0.8572 -1.0258
12502TIP3    H258922   0.975   2.678  11.021 -2.7443  1.3945 -0.3217
12503TIP3   OH258923   5.995   1.449   4.768  0.2396 -0.0356 -0.2180
12503TIP3    H158924   6.067   1.463   4.829  0.3975  0.0210 -0.4131
12503TIP3    H258925   5.917   1.439   4.823  0.2128  1.0369 -0.0460
12504TIP3   OH258926   0.672   1.533  15.549  0.1361  0.3816  0.1700
12504TIP3    H158927   0.661   1.485  15.631  1.4191 -0.4213 -0.1068
12504TIP3    H258928   0.677   1.466  15.482 -0.6559  1.0258 -0.5600
12505TIP3   OH258929   5.085   1.019   1.383 -0.3914 -0.1615 -0.1106
12505TIP3    H158930   5.034   0.968   1.446 -0.7436 -0.2459 -0.4596
12505TIP3    H258931   5.056   1.109   1.394  0.7246  0.0906  0.9904
12506TIP3   OH258932   0.856   3.464   2.019 -0.1062 -0.3724  0.0425
12506TIP3    H158933   0.798   3.520   2.070 -0.2922 -1.5240  1.1669
12506TIP3    H258934   0.810   3.380   2.015  0.4061 -0.6168 -1.1135
12507TIP3   OH258935   2.803   1.879   3.139  0.0468 -0.1368 -0.0486
12507TIP3    H158936   2.787   1.821   3.064  1.1509  0.9794 -1.2026
12507TIP3    H258937   2.859   1.828   3.197 -0.3834 -0.8299 -0.2285
12508TIP3   OH258938   0.556   3.960   2.692  0.2536  0.4567 -0.8632
12508TIP3    H158939   0.589   3.870   2.692 -1.4770 -0.2170 -0.7686
12508TIP3    H258940   0.468   3.954   2.653 -1.7946  1.3297  3.1227
12509TIP3   OH258941   5.066   0.211  16.271 -0.0518 -0.8139  0.0276
12509TIP3    H158942   5.063   0.233  16.364 -2.1637 -0.0341 -0.1577
12509TIP3    H258943   4.975   0.220  16.242  0.8310  0.9029 -2.5579
12510TIP3   OH258944   5.000   1.462   3.245  0.5915  0.2434 -0.1369
12510TIP3    H158945   5.042   1.547   3.261  0.5773  0.9791 -3.2891
12510TIP3    H258946   5.065   1.397   3.272  1.5083  1.2873  0.2424
12511TIP3   OH258947   0.301   6.747  12.509  0.0822 -0.9219 -0.0726
12511TIP3    H158948   0.266   6.730  12.422 -3.0103 -0.3831  0.9275
12511TIP3    H258949   0.310   6.661  12.549 -0.7591 -1.0600 -0.1613
12512TIP3   OH258950   4.081   0.373   2.159 -0.2855  0.2508 -0.7059
12512TIP3    H158951   4.134   0.452   2.165 -0.1082  0.2301 -1.6959
12512TIP3    H258952   4.010   0.397   2.099 -1.6105  0.3836  0.8647
12513TIP3   OH258953   0.199   0.145   5.489  0.5872  0.2228  0.2369
12513TIP3    H158954   0.238   0.188   5.565  0.7613  2.8377 -1.2150
12513TIP3    H258955   0.109   0.179   5.486  1.3655  2.4190 -2.1635
12514TIP3   OH258956   1.280   6.267  15.168 -0.4466  0.4127 -0.4403
12514TIP3    H158957   1.349   6.288  15.104  0.9523 -0.0636  0.8600
12514TIP3    H258958   1.327   6.233  15.244 -2.1327  0.1320  0.5246
12515TIP3   OH258959   6.211   0.079   5.920 -0.2517  0.7042  0.1598
12515TIP3    H158960   6.197  -0.001   5.972  1.8325 -0.3188 -0.7205
12515TIP3    H258961   6.243   0.143   5.984  3.3715 -0.8650  0.1671
12516TIP3   OH258962   2.728   4.264  12.306  0.1312 -0.1324 -0.6329
12516TIP3    H158963   2.706   4.220  12.224 -2.3633 -0.8551  0.3195
12516TIP3    H258964   2.698   4.204  12.374 -0.6273  1.7196  0.7595
12517TIP3   OH258965   0.008   0.108   6.157 -0.1678 -0.4830 -0.1244
12517TIP3    H158966   0.026   0.184   6.213 -0.0433 -0.6233  0.0284
12517TIP3    H258967   0.025   0.032   6.214  2.3808 -0.6909 -1.0562
12518TIP3   OH258968   1.410   5.629   0.120  0.2176 -0.4628 -0.1146
12518TIP3    H158969   1.451   5.666   0.041  0.0529  1.8903  0.8140
12518TIP3    H258970   1.462   5.665   0.192 -0.0275 -2.0556  0.9039
12519TIP3   OH258971   2.801   0.658  12.708  0.3569 -0.0779 -0.2988
12519TIP3    H158972   2.860   0.592  12.673 -0.3133  0.0283 -1.7064
12519TIP3    H258973   2.814   0.655  12.803  2.0286 -0.5899 -0.5223
12520TIP3   OH258974   2.694   5.302  12.460 -0.6172  0.0897 -0.2728
12520TIP3    H158975   2.666   5.377  12.408  0.2708  0.3461 -0.3948
12520TIP3    H258976   2.613   5.256  12.481 -1.0055  0.1292 -1.6447
12521TIP3   OH258977   4.655   1.162   5.173  0.3200 -0.1734  0.0086
12521TIP3    H158978   4.624   1.191   5.087  0.4779  0.7658  0.2494
12521TIP3    H258979   4.659   1.067   5.167 -1.5754 -0.2622 -0.3860
12522TIP3   OH258980   5.693   6.234  13.204  0.0957 -0.4065 -0.3587
12522TIP3    H158981   5.626   6.250  13.137  0.4613 -1.2516 -0.9468
12522TIP3    H258982   5.707   6.139  13.201  3.1788  0.0067 -2.0923
12523TIP3   OH258983   0.366   3.669   5.122  0.0255  0.1418  0.3652
12523TIP3    H158984   0.399   3.610   5.190  1.0688 -0.0444 -0.2878
12523TIP3    H258985   0.279   3.635   5.102  1.2256 -2.2703 -1.1941
12524TIP3   OH258986   6.358   3.875   4.488  0.4497  0.4313  0.0974
12524TIP3    H158987   6.304   3.801   4.514  3.9646 -1.3526  3.3133
12524TIP3    H258988   6.324   3.949   4.536 -0.0113 -0.3237  0.9557
12525TIP3   OH258989   5.821   2.605  16.630  0.1649 -0.3368  0.1613
12525TIP3    H158990   5.729   2.587  16.650  0.2371 -0.6603  0.1990
12525TIP3    H258991   5.817   2.672  16.562 -0.1633 -2.6876 -2.2985
12526TIP3   OH258992   4.996   5.561   5.261 -0.2322 -0.1337  0.1080
12526TIP3    H158993   4.931   5.628   5.282  0.4359  0.6924 -0.3976
12526TIP3    H258994   5.020   5.578   5.170  1.6928  0.4745  0.6717
12527TIP3   OH258995   2.472   1.116  12.816 -0.1385 -0.3017  0.3136
12527TIP3    H158996   2.437   1.083  12.899  0.3538  1.5563  1.3269
12527TIP3    H258997   2.524   1.044  12.781  0.5783 -0.7613  2.2107
12528TIP3   OH258998   5.445   3.951   3.838  0.3414  0.1017  0.2102
12528TIP3    H158999   5.373   3.967   3.778  1.2015  2.7828 -0.2785
12528TIP3    H259000   5.434   4.017   3.907  1.1179 -0.8648  1.3043
12529TIP3   OH259001   4.610   3.417   1.468  0.2986  0.3183  0.2000
12529TIP3    H159002   4.536   3.397   1.411  0.1959 -0.0425  0.4553
12529TIP3    H259003   4.579   3.490   1.522 -0.8559 -1.4926  2.1169
12530TIP3   OH259004   0.488   0.389  13.247  0.4361  0.2000 -0.2267
12530TIP3    H159005   0.450   0.455  13.306  0.4265 -1.4677  1.7493
12530TIP3    H259006   0.534   0.440  13.181  1.3980  2.2258  1.8464
12531TIP3   OH259007   0.804   4.034  13.208 -0.8758 -0.2087  0.7087
12531TIP3    H159008   0.771   4.027  13.298 -0.8595 -0.2804  0.7091
12531TIP3    H259009   0.897   4.011  13.214 -0.8603 -0.1535  0.6833
12532TIP3   OH259010   2.292   4.449  13.449 -0.9516  0.1109  0.3253
12532TIP3    H159011   2.289   4.543  13.468 -0.9361  0.1737  0.0230
12532TIP3    H259012   2.339   4.411  13.523  0.0632  0.4852 -0.1134
12533TIP3   OH259013   5.481   2.615   6.477  0.0617  0.0868 -0.1056
12533TIP3    H159014   5.441   2.583   6.397  2.3432 -2.3629 -0.3859
12533TIP3    H259015   5.497   2.708   6.461 -0.5416 -0.1102 -2.0368
12534TIP3   OH259016   2.131   0.870   4.735  0.3439 -0.2021 -0.2442
12534TIP3    H159017   2.036   0.873   4.731  0.2826 -0.4561  0.7235
12534TIP3    H259018   2.152   0.780   4.760  0.8347 -0.1659 -0.5128
12535TIP3   OH259019   0.882   2.188   0.551 -0.3770 -0.1954 -0.2238
12535TIP3    H159020   0.913   2.129   0.483  0.7040  1.2516 -1.0658
12535TIP3    H259021   0.788   2.195   0.536 -0.4653 -1.3942 -0.3287
12536TIP3   OH259022   5.794   0.069   1.228 -0.2690  0.1533  0.2363
12536TIP3    H159023   5.846   0.138   1.269  1.9140  0.0121 -2.0520
12536TIP3    H259024   5.840  -0.012   1.250  0.2734 -0.0236 -1.4157
12537TIP3   OH259025   4.641   2.884   3.987  0.1872  0.4378 -0.4260
12537TIP3    H159026   4.709   2.890   3.919  0.3830 -0.5042 -0.3331
12537TIP3    H259027   4.583   2.815   3.956  0.7877 -0.6549  0.7783
12538TIP3   OH259028   1.740   1.123   2.326 -0.3272 -0.0114  0.0418
12538TIP3    H159029   1.717   1.050   2.384  0.7077 -0.1945  0.2470
12538TIP3    H259030   1.833   1.138   2.342  0.0244 -0.1669 -1.6934
12539TIP3   OH259031   1.197   2.061   4.435  0.4985 -0.3432 -0.3310
12539TIP3    H159032   1.135   2.134   4.433  0.2501 -0.5487 -1.6874
12539TIP3    H259033   1.282   2.102   4.452  0.4250  0.3496 -1.4742
12540TIP3   OH259034   0.341   1.198   6.491  0.0140  0.6207 -0.5741
12540TIP3    H159035   0.280   1.124   6.484 -0.2980  0.4645  2.3596
12540TIP3    H259036   0.285   1.274   6.506  0.4415  0.6962  0.7914
12541TIP3   OH259037   1.168   0.858  11.895  0.2757  0.2173 -0.6255
12541TIP3    H159038   1.102   0.865  11.964  1.2485 -2.1919  0.6424
12541TIP3    H259039   1.245   0.902  11.931  0.5256 -0.3009 -0.5247
12542TIP3   OH259040   0.041   0.035  10.718  0.4303 -0.4437  0.5697
12542TIP3    H159041   0.087   0.110  10.754  1.3893 -0.5734 -0.3521
12542TIP3    H259042   0.098   0.002  10.649 -1.2045 -0.3795 -0.8838
12543TIP3   OH259043   3.656   5.567  14.504 -0.1813  0.4244  0.1656
12543TIP3    H159044   3.733   5.623  14.507 -1.1264  1.7733  0.1050
12543TIP3    H259045   3.681   5.489  14.554  1.4770  0.4734 -0.5295
12544TIP3   OH259046   4.040   0.030  17.123 -0.4199 -0.9131 -0.3638
12544TIP3    H159047   3.989  -0.035  17.172 -1.7957  0.6382  0.3571
12544TIP3    H259048   3.988   0.047  17.045  1.5459 -3.0325 -2.2938
12545TIP3   OH259049   6.627   0.323   1.558  0.0259  0.1641  0.4811
12545TIP3    H159050   6.643   0.378   1.635 -0.3352  0.6722  0.2021
12545TIP3    H259051   6.545   0.357   1.521 -0.7208 -1.1723  0.8352
12546TIP3   OH259052   2.815   5.875  14.416  0.3033  0.1990  0.1510
12546TIP3    H159053   2.827   5.964  14.447  0.1746 -0.0989  1.0848
12546TIP3    H259054   2.867   5.821  14.476  0.2501 -0.3743 -0.3014
12547TIP3   OH259055   4.746   2.913   3.514 -0.5374 -0.0977  0.5987
12547TIP3    H159056   4.805   2.896   3.440  2.0550 -0.8005  2.6728
12547TIP3    H259057   4.721   3.005   3.503  3.7534  1.4162  1.2880
12548TIP3   OH259058   6.504   5.188  11.862  0.1609  0.4226 -0.1964
12548TIP3    H159059   6.512   5.170  11.955  0.8025  0.5953 -0.2158
12548TIP3    H259060   6.594   5.203  11.832 -0.1287  1.3940 -0.6375
12549TIP3   OH259061   1.571   1.086  13.710  0.0770  0.0741  0.5067
12549TIP3    H159062   1.555   1.066  13.618  1.1220  1.0762  0.0874
12549TIP3    H259063   1.617   1.170  13.709  0.9413 -0.3543  1.8947
12550TIP3   OH259064   0.394   1.342  17.265 -0.0603  0.0884 -0.0605
12550TIP3    H159065   0.332   1.382  17.203  0.0780 -0.8189 -0.8037
12550TIP3    H259066   0.420   1.260  17.223 -0.2891 -0.7583  1.4075
12551TIP3   OH259067   6.386   2.247  14.394 -0.6688  0.1257  0.5734
12551TIP3    H159068   6.351   2.307  14.328 -0.7296 -1.0263 -0.4775
12551TIP3    H259069   6.350   2.161  14.371  0.7270 -0.6263  1.0448
12552TIP3   OH259070   2.345   1.682   2.286 -0.3579 -0.4931  0.4547
12552TIP3    H159071   2.274   1.736   2.251 -2.6067 -1.8032  2.6927
12552TIP3    H259072   2.377   1.732   2.362  0.5866 -0.3017 -0.0573
12553TIP3   OH259073   1.181   4.714   3.469  0.2025  0.2614 -0.2050
12553TIP3    H159074   1.189   4.637   3.414  1.4792  0.1892  0.0447
12553TIP3    H259075   1.088   4.738   3.464 -0.1724 -1.1447 -0.4599
12554TIP3   OH259076   0.316   5.628  17.166  0.2295 -0.4642 -0.3886
12554TIP3    H159077   0.335   5.697  17.103  2.5451 -0.8137 -0.1608
12554TIP3    H259078   0.397   5.617  17.216 -1.5239 -0.1271  2.7936
12555TIP3   OH259079   1.038   2.757  16.828  0.0722  0.1376  0.1758
12555TIP3    H159080   1.093   2.830  16.856 -0.3640 -0.4059  2.6216
12555TIP3    H259081   0.990   2.731  16.906 -1.8092 -1.0551 -1.2736
12556TIP3   OH259082   3.177   1.546  14.767  0.1435 -0.2371  0.3026
12556TIP3    H159083   3.130   1.467  14.741  0.2693 -0.2794  0.2035
12556TIP3    H259084   3.137   1.615  14.714  0.6975 -0.3941 -0.3379
12557TIP3   OH259085   1.600   2.656   2.942  0.1026 -0.3894 -0.1560
12557TIP3    H159086   1.559   2.686   3.023  0.4687 -0.0147 -0.1071
12557TIP3    H259087   1.628   2.736   2.898 -0.7785 -0.5343 -1.0250
12558TIP3   OH259088   6.293   2.544   5.224  0.6905  0.2370 -0.5397
12558TIP3    H159089   6.322   2.457   5.253  0.1654  0.5042  0.8558
12558TIP3    H259090   6.329   2.604   5.289  0.0387  0.9363 -0.8100
12559TIP3   OH259091   4.170   5.308   1.417 -0.0653  0.2170  0.1248
12559TIP3    H159092   4.166   5.401   1.442  0.8767  0.3801 -0.3130
12559TIP3    H259093   4.240   5.272   1.471 -0.4448 -0.2538  0.3115
12560TIP3   OH259094   4.481   1.365  11.362 -0.2067 -0.5426 -0.0485
12560TIP3    H159095   4.388   1.380  11.348 -0.1307 -1.2301 -1.4552
12560TIP3    H259096   4.508   1.433  11.424 -1.8019 -0.8437  1.0313
12561TIP3   OH259097   5.348   5.073  12.736 -0.2084 -0.2070 -0.1815
12561TIP3    H159098   5.405   5.058  12.812  0.3882 -0.5122 -0.6812
12561TIP3    H259099   5.407   5.103  12.668 -0.9901  1.8354 -0.0186
12562TIP3   OH259100   2.561   0.809   0.727 -0.1781  0.1316 -0.6079
12562TIP3    H159101   2.540   0.891   0.772  0.8740  0.7327 -1.1742
12562TIP3    H259102   2.562   0.743   0.797  1.5239  1.0653  0.2965
12563TIP3   OH259103   0.725   1.013  11.509 -0.2954 -0.4197 -0.4562
12563TIP3    H159104   0.717   0.980  11.419 -1.5532 -1.7726  0.1048
12563TIP3    H259105   0.782   0.948  11.552  1.9148  1.2391 -0.6901
12564TIP3   OH259106   2.256   1.706   4.892 -0.1793 -0.7263 -0.5943
12564TIP3    H159107   2.220   1.789   4.862 -1.1361 -1.1599 -0.6945
12564TIP3    H259108   2.191   1.674   4.955  0.8315 -0.7668  0.4392
12565TIP3   OH259109   1.754   3.907   3.834 -0.0931 -0.4694 -0.2160
12565TIP3    H159110   1.745   3.931   3.742 -2.1797 -1.2246 -0.2387
12565TIP3    H259111   1.691   3.962   3.880  0.5124 -0.5233  0.7201
12566TIP3   OH259112   5.993   4.119  17.326  0.3253 -0.1690 -0.0846
12566TIP3    H159113   6.015   4.121  17.233  0.7280 -0.4995  0.0011
12566TIP3    H259114   5.919   4.058  17.332  1.8827 -2.1737  0.1139
12567TIP3   OH259115   4.500   0.303  13.820  0.3796  0.3129  0.0429
12567TIP3    H159116   4.556   0.335  13.891  1.9657 -0.7102 -0.6970
12567TIP3    H259117   4.411   0.312  13.854  0.9554  2.0166  1.2579
12568TIP3   OH259118   3.567   0.268   3.746 -0.0729  0.0936  0.3220
12568TIP3    H159119   3.567   0.172   3.746 -0.9500  0.0195  2.5939
12568TIP3    H259120   3.616   0.292   3.668  1.9278 -2.2296  0.7276
12569TIP3   OH259121   5.661   1.957  10.401  0.3029  0.3769  0.6149
12569TIP3    H159122   5.637   1.865  10.395  1.3870  0.1408 -0.7287
12569TIP3    H259123   5.577   2.004  10.404 -0.2720 -0.5917 -0.0091
12570TIP3   OH259124   1.978   4.012  12.864 -1.2222 -0.0437  0.1641
12570TIP3    H159125   1.969   3.963  12.782  1.4352  0.4930 -0.5207
12570TIP3    H259126   1.936   4.096  12.847 -1.9481 -0.4473 -0.1157
12571TIP3   OH259127   1.787   0.074  12.458  0.2715  0.1043 -0.5434
12571TIP3    H159128   1.763  -0.018  12.467 -2.9905  1.0070  1.7537
12571TIP3    H259129   1.869   0.082  12.506  0.5351 -1.5422 -0.6644
12572TIP3   OH259130   5.646   4.110  16.439  0.1373 -1.0087 -0.0018
12572TIP3    H159131   5.657   4.105  16.534 -0.7543  1.2101  0.2795
12572TIP3    H259132   5.581   4.043  16.419 -1.7878  0.3128  1.4193
12573TIP3   OH259133   1.695   1.795  11.474  0.1746  0.0753 -0.1229
12573TIP3    H159134   1.737   1.871  11.514  0.3754  0.4874 -1.0766
12573TIP3    H259135   1.765   1.730  11.467  0.1211 -0.0229  0.2568
12574TIP3   OH259136   1.201   2.451  11.885 -1.0911 -0.0966  0.2725
12574TIP3    H159137   1.252   2.393  11.942  0.2115  0.0702 -0.6963
12574TIP3    H259138   1.131   2.394  11.851 -1.1585 -0.5073  1.0585
12575TIP3   OH259139   3.784   4.307   0.231 -0.4158 -0.3076  0.3196
12575TIP3    H159140   3.838   4.250   0.285 -1.0561  1.0820  2.5853
12575TIP3    H259141   3.817   4.395   0.249  0.4753  0.1567 -2.9864
12576TIP3   OH259142   1.949   1.836   6.000  0.3484  0.3718 -0.7700
12576TIP3    H159143   1.907   1.912   5.959 -0.0936 -0.0305 -1.0644
12576TIP3    H259144   1.914   1.835   6.089 -0.7414 -0.3106 -1.1890
12577TIP3   OH259145   6.342   3.067   4.664 -0.0987 -0.5697 -0.4490
12577TIP3    H159146   6.383   3.080   4.579 -0.8375 -1.6167 -0.9880
12577TIP3    H259147   6.256   3.109   4.656  1.0418  2.3042  0.9264
12578TIP3   OH259148   3.701   2.507   5.780 -0.2433 -0.4173  0.7548
12578TIP3    H159149   3.647   2.503   5.859 -2.0775  0.9935 -0.3351
12578TIP3    H259150   3.662   2.442   5.721  0.2694 -0.5219  0.5266
12579TIP3   OH259151   1.411   3.844  15.021 -0.4746  0.6721  0.1774
12579TIP3    H159152   1.374   3.881  14.941 -1.3651  0.8920  0.6763
12579TIP3    H259153   1.393   3.750  15.015  1.9024  0.2059 -1.1525
12580TIP3   OH259154   6.191   0.469  15.849  0.2275  0.8590 -0.1291
12580TIP3    H159155   6.235   0.426  15.922  0.9805 -0.0330 -1.0771
12580TIP3    H259156   6.261   0.513  15.801 -0.3544  2.0245  0.0575
12581TIP3   OH259157   4.154   1.973   5.126  0.1401  0.0683 -0.8285
12581TIP3    H159158   4.226   1.971   5.189  1.9351  2.5552 -2.6126
12581TIP3    H259159   4.170   1.897   5.070 -0.7289 -1.4043  0.8033
12582TIP3   OH259160   3.806   5.640  11.886 -0.3671  0.6063  0.1158
12582TIP3    H159161   3.803   5.562  11.941  0.0619  2.0773  2.3461
12582TIP3    H259162   3.869   5.617  11.818 -0.3478 -1.0334  0.6217
12583TIP3   OH259163   4.873   5.135  16.544  0.2770 -0.2555 -0.1551
12583TIP3    H159164   4.887   5.041  16.551 -1.3310 -0.6084 -1.1239
12583TIP3    H259165   4.787   5.144  16.503 -0.2492  1.6387  1.1831
12584TIP3   OH259166   1.311   0.908   0.836  0.5969  0.7519 -0.6096
12584TIP3    H159167   1.403   0.906   0.864  0.6986  2.7989 -0.6222
12584TIP3    H259168   1.299   0.996   0.799 -1.4480  0.6440 -0.3273
12585TIP3   OH259169   2.514   3.908   1.955  0.3315  0.1463 -0.3112
12585TIP3    H159170   2.593   3.874   1.913  0.9678  3.1252 -1.7833
12585TIP3    H259171   2.444   3.849   1.927  1.6177 -1.1141 -0.9959
12586TIP3   OH259172   2.166   5.827  12.152 -0.1531 -0.2354 -0.4225
12586TIP3    H159173   2.075   5.851  12.167 -0.3214 -0.2498 -1.3374
12586TIP3    H259174   2.217   5.888  12.206 -0.7490 -2.1733  2.5499
12587TIP3   OH259175   2.642   3.082  13.500  0.3085 -0.3509 -0.4655
12587TIP3    H159176   2.649   3.054  13.408 -2.6339  2.0823 -1.6071
12587TIP3    H259177   2.556   3.124  13.506  0.9309  0.7709  3.1168
12588TIP3   OH259178   5.731   4.128  13.961 -0.1433 -0.0975  0.5665
12588TIP3    H159179   5.795   4.149  14.029 -2.2688  1.1866  2.2844
12588TIP3    H259180   5.720   4.033  13.967 -0.1496 -0.0198  1.8780
12589TIP3   OH259181   5.398   1.113  16.742 -0.4557 -0.6538  0.2988
12589TIP3    H159182   5.370   1.196  16.702 -1.9246 -0.4565  1.6166
12589TIP3    H259183   5.480   1.134  16.785 -1.7914  0.7511  2.3684
12590TIP3   OH259184   3.416   4.822  10.518  0.1309  0.1213  0.2872
12590TIP3    H159185   3.395   4.823  10.611  0.6617 -1.6348  0.4647
12590TIP3    H259186   3.354   4.883  10.478 -0.8340  0.0606  1.6387
12591TIP3   OH259187   6.405   4.992  14.581 -0.1882  0.1549 -0.5181
12591TIP3    H159188   6.366   5.021  14.663 -0.0399 -0.5347 -0.1966
12591TIP3    H259189   6.384   5.062  14.518 -0.1290  0.7809  0.1468
12592TIP3   OH259190   1.554   0.778  14.364  0.4258 -0.6463 -0.1355
12592TIP3    H159191   1.500   0.795  14.441  1.6418  0.7851  0.4429
12592TIP3    H259192   1.509   0.822  14.292  1.9271  2.7343  0.7788
12593TIP3   OH259193   2.469   3.368  14.034 -0.1901  0.1200  0.1716
12593TIP3    H159194   2.527   3.342  14.106  1.8263 -3.2520 -2.3789
12593TIP3    H259195   2.517   3.438  13.990  0.0829  0.0156  0.2982
12594TIP3   OH259196   3.668   1.466  12.399 -0.1401  0.1883  0.3683
12594TIP3    H159197   3.650   1.481  12.492  0.0659  3.2869 -0.0082
12594TIP3    H259198   3.584   1.479  12.355 -0.1452 -0.8368  0.0299
12595TIP3   OH259199   2.225   5.395   4.703 -0.4168 -0.0238 -0.0980
12595TIP3    H159200   2.168   5.470   4.686  0.3415  0.8773  1.1933
12595TIP3    H259201   2.211   5.374   4.795 -0.3734 -1.2818 -0.3563
12596TIP3   OH259202   2.624   2.713  13.479 -1.1115 -0.2099  0.2937
12596TIP3    H159203   2.575   2.638  13.511 -0.0841 -0.6820  0.8127
12596TIP3    H259204   2.584   2.734  13.395 -0.5049 -2.2875 -0.5852
12597TIP3   OH259205   2.271   1.277   4.599  0.5904 -0.0272 -0.5340
12597TIP3    H159206   2.255   1.229   4.680  0.8632 -1.6266 -1.3813
12597TIP3    H259207   2.347   1.234   4.560 -1.3255 -1.3336 -3.1211
12598TIP3   OH259208   3.199   5.603   1.653  0.3103 -0.3556  0.1440
12598TIP3    H159209   3.155   5.627   1.734  0.1853  0.1373 -0.0646
12598TIP3    H259210   3.272   5.547   1.681  0.3392 -0.0923  0.6085
12599TIP3   OH259211   1.052   3.801   4.983 -0.1294  0.2717 -0.3450
12599TIP3    H159212   1.060   3.882   5.035 -0.8335  0.3293 -0.3202
12599TIP3    H259213   1.032   3.734   5.048  1.2255 -0.0834 -0.2614
12600TIP3   OH259214   2.114   5.519   5.620  0.4865 -0.3639 -0.4103
12600TIP3    H159215   2.019   5.521   5.629  0.5328  1.4984  0.2401
12600TIP3    H259216   2.140   5.432   5.650 -0.9931 -0.8854 -0.5598
12601TIP3   OH259217   2.833   0.510   2.971  0.4723 -0.4286 -0.3553
12601TIP3    H159218   2.767   0.571   2.941 -0.7144 -2.7501 -2.9123
12601TIP3    H259219   2.913   0.536   2.926  0.9738  1.3486  1.4254
12602TIP3   OH259220   1.116   6.622  15.743 -0.0613 -0.3017  0.3724
12602TIP3    H159221   1.054   6.562  15.701  0.3823 -1.0956  0.8350
12602TIP3    H259222   1.170   6.566  15.799  1.0493  0.3779  0.0129
12603TIP3   OH259223   1.871   1.632   0.515  0.1961 -0.1800 -0.0096
12603TIP3    H159224   1.894   1.692   0.445 -0.6338  0.9914  0.6827
12603TIP3    H259225   1.954   1.592   0.540  1.1674  2.1581  0.8297
12604TIP3   OH259226   3.794   2.951   1.833 -0.0690 -0.0771  0.2848
12604TIP3    H159227   3.799   3.044   1.810  2.5727 -0.3190 -0.4074
12604TIP3    H259228   3.723   2.917   1.778 -0.4077  1.3203 -0.1979
12605TIP3   OH259229   3.701   0.725  11.798 -0.0254  0.2807  0.4741
12605TIP3    H159230   3.652   0.806  11.784  1.1485  1.3226  2.1671
12605TIP3    H259231   3.651   0.677  11.864  0.6828  0.9166  1.5050
12606TIP3   OH259232   5.910   3.865   5.015 -0.2805  0.5859 -0.5317
12606TIP3    H159233   5.971   3.793   5.001 -1.8611 -0.6884 -1.1477
12606TIP3    H259234   5.883   3.856   5.106  1.3992  1.9878  0.1768
12607TIP3   OH259235   5.105   1.999  15.392  0.1559  0.2619 -0.0033
12607TIP3    H159236   5.033   1.974  15.450 -0.0681 -0.6595 -0.6621
12607TIP3    H259237   5.084   2.087  15.364  1.5606  1.8409  3.3345
12608TIP3   OH259238   0.800   5.197   5.164  0.5185  0.1101 -0.9514
12608TIP3    H159239   0.726   5.181   5.106 -0.3315  0.1898  0.0933
12608TIP3    H259240   0.859   5.253   5.113 -0.6073  0.8932 -1.4360
12609TIP3   OH259241   4.773   5.551  13.263 -0.0977 -0.4528  0.4201
12609TIP3    H159242   4.767   5.530  13.170  0.2616  0.1097  0.2661
12609TIP3    H259243   4.691   5.517  13.301 -0.8593  0.4840 -0.3325
12610TIP3   OH259244   4.677   2.061   3.613  0.2492  0.3928  0.2606
12610TIP3    H159245   4.747   1.996   3.611  1.0260  1.2058 -2.2838
12610TIP3    H259246   4.722   2.143   3.633 -0.3484  0.5619  0.9425
12611TIP3   OH259247   4.698   3.808  10.118  0.5801  0.4490 -0.1937
12611TIP3    H159248   4.606   3.815  10.092 -0.0467  0.3833  1.8286
12611TIP3    H259249   4.733   3.896  10.108 -0.1682  0.8503  0.5409
12612TIP3   OH259250   4.119   0.376   4.488  0.0434 -0.3103  0.3972
12612TIP3    H159251   4.123   0.435   4.563  1.0657  0.9370 -0.5910
12612TIP3    H259252   4.183   0.308   4.508  0.7632  0.3543  0.3897
12613TIP3   OH259253   4.561   1.784  10.811 -0.3021 -0.1573  0.1331
12613TIP3    H159254   4.512   1.848  10.862 -1.3134 -1.1258  0.4353
12613TIP3    H259255   4.563   1.706  10.867  0.5862 -0.5109 -0.3690
12614TIP3   OH259256   0.507   5.263  10.567  0.3137 -0.2117 -0.3528
12614TIP3    H159257   0.461   5.179  10.577  1.1797 -0.5772  0.6372
12614TIP3    H259258   0.599   5.240  10.560  0.4730  0.5966 -1.2874
12615TIP3   OH259259   1.112   5.836   6.236  0.3209  0.1507 -0.3245
12615TIP3    H159260   1.201   5.869   6.245 -0.2629  2.0853 -1.0932
12615TIP3    H259261   1.088   5.857   6.145 -1.2638  0.6601  0.1806
12616TIP3   OH259262   4.033   0.028  15.552 -0.3259  0.5106 -0.0579
12616TIP3    H159263   4.117   0.015  15.507 -0.1207 -0.7432  0.6376
12616TIP3    H259264   4.039   0.116  15.588 -0.3559  1.4363 -2.1546
12617TIP3   OH259265   3.381   2.056  10.958  0.5341 -1.0778  0.2256
12617TIP3    H159266   3.310   2.080  11.017  2.7592  0.2238  2.5702
12617TIP3    H259267   3.375   2.119  10.886  0.4013  0.2532  1.3544
12618TIP3   OH259268   2.407   3.402  13.348 -0.2237 -0.0920 -0.2795
12618TIP3    H159269   2.331   3.418  13.291  0.1214 -0.1433 -0.7574
12618TIP3    H259270   2.376   3.335  13.409 -1.1312  1.1344  0.6593
12619TIP3   OH259271   0.173   5.899   5.459 -0.3503 -0.2266 -0.6630
12619TIP3    H159272   0.151   5.921   5.368  3.5025  0.2322 -1.6339
12619TIP3    H259273   0.159   5.981   5.507 -1.1467 -0.1031 -1.0849
12620TIP3   OH259274   1.535   0.026   2.819  0.0366  0.2744  0.0007
12620TIP3    H159275   1.552   0.120   2.813 -1.8733  0.5902 -1.4951
12620TIP3    H259276   1.439   0.019   2.816  0.1664 -1.7726 -1.2197
12621TIP3   OH259277   4.696   5.816   5.899 -0.2585 -0.3043  0.0096
12621TIP3    H159278   4.618   5.770   5.867  0.0762  0.0443 -1.3836
12621TIP3    H259279   4.662   5.893   5.943 -0.7775 -1.2694  1.3683
12622TIP3   OH259280   5.988   1.627  16.507 -0.6959 -0.1631  0.5485
12622TIP3    H159281   5.924   1.561  16.478  1.0015 -0.8614 -1.9290
12622TIP3    H259282   6.039   1.647  16.429  0.7233  2.0080  1.9220
12623TIP3   OH259283   1.178   5.111   5.134  0.2892  0.0589  0.2704
12623TIP3    H159284   1.124   5.032   5.144  2.5275 -1.3854  1.9781
12623TIP3    H259285   1.187   5.144   5.224 -1.8650  3.3128 -0.5202
12624TIP3   OH259286   2.796   2.171  16.045  0.0232  0.1386  0.1913
12624TIP3    H159287   2.763   2.156  16.134 -0.6272 -0.3093 -0.1134
12624TIP3    H259288   2.721   2.153  15.988  0.6071 -0.2145 -0.4864
12625TIP3   OH259289   3.303   0.710   2.089 -0.1398  0.0954 -0.1829
12625TIP3    H159290   3.212   0.694   2.065  0.1320 -0.5539 -0.8148
12625TIP3    H259291   3.340   0.623   2.106  0.3435  0.3560  0.1381
12626TIP3   OH259292   1.760   0.126  10.835 -0.0317  0.1747 -0.8232
12626TIP3    H159293   1.683   0.177  10.862 -1.0082 -1.2553 -0.8057
12626TIP3    H259294   1.730   0.073  10.761  1.2457  0.3653 -1.5098
12627TIP3   OH259295   4.222   6.142   3.200 -0.1845 -0.5261 -0.2870
12627TIP3    H159296   4.186   6.154   3.112  0.7523  0.1314 -0.5938
12627TIP3    H259297   4.285   6.071   3.191  0.7510  0.2996 -0.4142
12628TIP3   OH259298   1.956   5.854   3.266  0.1587  0.3289 -0.0155
12628TIP3    H159299   2.012   5.922   3.228  0.6487  0.3925  0.7829
12628TIP3    H259300   2.013   5.778   3.273 -0.1519  0.0844 -0.1270
12629TIP3   OH259301   3.582   1.754   4.976  0.2040  0.5097  0.4118
12629TIP3    H159302   3.615   1.744   4.887 -1.5535  0.5567 -0.2877
12629TIP3    H259303   3.589   1.666   5.015 -1.4527 -0.1767 -0.7062
12630TIP3   OH259304   6.477   5.444   2.884  0.1478 -0.1610 -0.3641
12630TIP3    H159305   6.504   5.486   2.965  2.4695 -1.6254 -0.2886
12630TIP3    H259306   6.515   5.498   2.815 -1.8191  1.0800 -0.5564
12631TIP3   OH259307   5.954   4.580  16.984  0.1925 -0.3837  0.2220
12631TIP3    H159308   5.907   4.661  17.007 -1.8894 -1.3614 -0.3100
12631TIP3    H259309   5.968   4.587  16.890 -0.7971 -1.0113  0.0172
12632TIP3   OH259310   1.317   5.071   4.545 -0.6772 -0.3792 -0.2347
12632TIP3    H159311   1.286   5.027   4.624  0.3000  0.9896  0.9657
12632TIP3    H259312   1.382   5.133   4.577  0.3773 -0.3973 -2.2307
12633TIP3   OH259313   6.066   4.426  12.390  0.0411  0.6833 -0.4725
12633TIP3    H159314   6.017   4.451  12.468 -0.7758 -1.4391 -0.2204
12633TIP3    H259315   5.999   4.412  12.324  0.2165 -2.1610 -0.1605
12634TIP3   OH259316   0.230   4.961   0.809  0.5250  0.1637 -0.0003
12634TIP3    H159317   0.264   5.046   0.783  1.4339  0.4475  1.9469
12634TIP3    H259318   0.307   4.908   0.825  0.1048  0.2182  2.6163
12635TIP3   OH259319   0.601   3.290  16.411 -0.3022  0.0684 -0.1099
12635TIP3    H159320   0.643   3.367  16.451 -0.1857  0.3637 -0.7831
12635TIP3    H259321   0.661   3.218  16.429  0.4482  0.4672 -0.9616
12636TIP3   OH259322   1.424   3.980   3.384 -0.5478  0.5477 -0.8271
12636TIP3    H159323   1.484   4.053   3.398 -1.0785  0.9873 -0.8061
12636TIP3    H259324   1.390   3.993   3.295 -0.7196  0.3894 -0.7859
12637TIP3   OH259325   5.222   2.726   0.831  0.7174 -0.0363  0.1852
12637TIP3    H159326   5.138   2.767   0.852  0.6588 -0.2022  0.2774
12637TIP3    H259327   5.229   2.653   0.893  0.9574  0.0154  0.2193
12638TIP3   OH259328   0.351   0.399   1.232 -0.1097 -0.2922  0.3845
12638TIP3    H159329   0.313   0.333   1.289  1.5568 -0.8791  0.8507
12638TIP3    H259330   0.387   0.465   1.291  2.3271 -1.2875  0.1169
12639TIP3   OH259331   6.693   4.994  11.506 -0.1217  0.0965 -0.1773
12639TIP3    H159332   6.679   4.904  11.536 -2.5442  0.2594 -0.5955
12639TIP3    H259333   6.691   4.987  11.411  0.1550  0.5465 -0.2156
12640TIP3   OH259334   6.684   1.124  11.575 -0.0528 -0.9392 -0.3004
12640TIP3    H159335   6.648   1.211  11.559  0.6314 -0.7846 -1.0677
12640TIP3    H259336   6.704   1.090  11.488  1.3164 -1.1484  0.0726
12641TIP3   OH259337   6.250   1.804  15.266  0.5820 -0.5211 -0.2717
12641TIP3    H159338   6.197   1.863  15.319 -0.0531  0.2010 -1.6751
12641TIP3    H259339   6.196   1.726  15.256 -0.2166  0.1621 -1.5881
12642TIP3   OH259340   1.646   5.639  15.002  0.2196  0.6390 -0.2805
12642TIP3    H159341   1.653   5.599  14.916  1.2797 -0.8948  0.4764
12642TIP3    H259342   1.558   5.615  15.033 -0.3792  1.6703 -1.1346
12643TIP3   OH259343   6.462   1.305  12.974  0.3287 -0.2993  0.4387
12643TIP3    H159344   6.453   1.316  13.069 -0.4076  0.9307  0.2447
12643TIP3    H259345   6.556   1.288  12.961  0.9690  2.2983  1.1614
12644TIP3   OH259346   3.048   3.477   0.165  0.1277  0.0596 -0.0640
12644TIP3    H159347   3.085   3.564   0.152 -0.4262  0.2928 -0.0814
12644TIP3    H259348   2.960   3.493   0.200 -0.8380 -0.4260 -2.1366
12645TIP3   OH259349   6.075   1.300  13.694 -0.7585 -0.0907  0.0836
12645TIP3    H159350   6.029   1.355  13.630 -0.5403 -0.0548 -0.0440
12645TIP3    H259351   6.008   1.240  13.727 -0.9884  0.2287  0.1962
12646TIP3   OH259352   1.626   5.418   0.283  0.7463 -0.3447  0.3195
12646TIP3    H159353   1.682   5.341   0.272 -0.2684 -1.0885  0.2567
12646TIP3    H259354   1.541   5.392   0.248  0.4415  0.8903  0.0686
12647TIP3   OH259355   3.589   5.837   2.524  0.0034  0.4691 -0.1139
12647TIP3    H159356   3.599   5.744   2.500  0.6186  0.3544  0.5507
12647TIP3    H259357   3.496   5.847   2.539 -0.4608  0.5714 -2.5785
12648TIP3   OH259358   2.165   0.327   1.929 -0.2977  0.1603 -0.1653
12648TIP3    H159359   2.104   0.255   1.915 -0.4325  0.3424 -0.5465
12648TIP3    H259360   2.237   0.289   1.979  0.4261 -0.6361 -1.7585
12649TIP3   OH259361   4.909   0.913  13.975 -0.0375 -0.4744 -0.4773
12649TIP3    H159362   4.899   0.825  13.939  2.7806 -1.5805  1.0704
12649TIP3    H259363   4.991   0.944  13.938  1.9609 -0.8850  3.1020
12650TIP3   OH259364   0.692   0.788  17.386 -0.0601  0.2525  0.2998
12650TIP3    H159365   0.658   0.747  17.307  0.4711 -0.9925  0.7022
12650TIP3    H259366   0.627   0.855  17.408 -0.9876 -0.4213 -0.3250
12651TIP3   OH259367   5.363   3.438   6.431  0.2286  0.6661 -0.1722
12651TIP3    H159368   5.442   3.383   6.433 -0.0271  0.2893  1.3789
12651TIP3    H259369   5.299   3.388   6.481 -0.9578  1.0542 -1.2645
12652TIP3   OH259370   1.461   5.238  15.886 -0.6198 -0.0632  0.0648
12652TIP3    H159371   1.455   5.252  15.792  0.9141 -1.3914 -0.2763
12652TIP3    H259372   1.553   5.254  15.907 -0.4459 -1.9046  0.9167
12653TIP3   OH259373   2.619   0.605   0.892 -0.2044 -1.2967 -0.0439
12653TIP3    H159374   2.587   0.637   0.977 -1.3738  0.8343 -1.1831
12653TIP3    H259375   2.602   0.511   0.894  0.4591 -1.4398  2.3345
12654TIP3   OH259376   1.897   2.128   1.402 -0.2403 -0.5874 -0.5670
12654TIP3    H159377   1.860   2.043   1.423  0.9914 -1.4593 -1.7481
12654TIP3    H259378   1.885   2.137   1.307 -0.8491  0.8132 -0.3797
12655TIP3   OH259379   6.239   2.181   0.365  0.2808  0.0994 -0.1852
12655TIP3    H159380   6.302   2.175   0.294 -0.9976 -0.2350 -1.3433
12655TIP3    H259381   6.250   2.269   0.400  0.1254  0.7095 -1.6079
12656TIP3   OH259382   3.605   0.499  13.848  0.3243  0.0426  0.8219
12656TIP3    H159383   3.692   0.500  13.808  0.0937  2.5524  0.2660
12656TIP3    H259384   3.561   0.424  13.807  2.0018 -0.9543  0.7320
12657TIP3   OH259385   3.760   3.140   2.885  0.2231  0.2908  0.2504
12657TIP3    H159386   3.760   3.234   2.867 -2.1613  0.2470 -0.2344
12657TIP3    H259387   3.759   3.099   2.798 -0.9359 -0.1190  0.4418
12658TIP3   OH259388   5.597   4.267  13.217  0.6010 -0.0655 -1.0341
12658TIP3    H159389   5.511   4.300  13.193  0.3040 -1.1511 -1.5482
12658TIP3    H259390   5.594   4.174  13.194  1.6973 -0.2563 -0.4787
12659TIP3   OH259391   6.194   6.093   1.009 -0.5360 -0.4306  0.9986
12659TIP3    H159392   6.107   6.126   0.987 -0.4174 -0.7108  0.0715
12659TIP3    H259393   6.252   6.132   0.944 -0.3033 -1.9442  0.2494
12660TIP3   OH259394   5.344   2.466  10.479  0.3778 -0.2665 -0.1501
12660TIP3    H159395   5.420   2.523  10.471  1.2263 -1.1083  1.4127
12660TIP3    H259396   5.312   2.455  10.389  2.1249  0.0741 -0.8460
12661TIP3   OH259397   5.319   1.286  13.303 -0.1274  0.0497 -0.2562
12661TIP3    H159398   5.357   1.214  13.354  0.4860  0.2922 -0.3716
12661TIP3    H259399   5.225   1.279  13.319  0.0953  0.5806  1.5398
12662TIP3   OH259400   0.763   3.662  12.918 -0.0250 -0.7105 -0.5033
12662TIP3    H159401   0.750   3.631  12.828 -0.0178  0.8073 -1.0763
12662TIP3    H259402   0.844   3.713  12.913 -0.5972  0.2832  0.1006
12663TIP3   OH259403   0.810   5.009  17.031 -0.5281  0.1942 -0.4783
12663TIP3    H159404   0.724   4.984  16.997 -0.9982  1.5224 -0.3534
12663TIP3    H259405   0.868   5.007  16.955 -0.3057 -2.1050 -0.3071
12664TIP3   OH259406   4.978   2.833   2.450  0.6243  0.0859  0.2780
12664TIP3    H159407   4.902   2.880   2.485  0.9956  0.0818  1.0991
12664TIP3    H259408   5.003   2.772   2.519  0.9834 -0.3755 -0.2466
12665TIP3   OH259409   1.621   5.791   0.537 -0.2517  0.0783 -0.4714
12665TIP3    H159410   1.712   5.765   0.522 -0.0261  0.1124  0.7070
12665TIP3    H259411   1.593   5.739   0.613 -1.2633 -0.0296 -0.9049
12666TIP3   OH259412   3.720   4.179  11.347 -0.0685 -0.7344 -0.3004
12666TIP3    H159413   3.650   4.212  11.290 -1.5292 -0.9177  1.3160
12666TIP3    H259414   3.739   4.091  11.314 -0.3543 -0.5603 -0.9465
12667TIP3   OH259415   1.898   5.010  14.825  0.5159 -0.2888 -0.0673
12667TIP3    H159416   1.934   4.935  14.777 -0.4190 -0.1796 -0.9576
12667TIP3    H259417   1.810   4.982  14.850 -0.1386  0.7936 -1.1033
12668TIP3   OH259418   5.826   1.028   4.736  0.7023  0.1318 -0.1566
12668TIP3    H159419   5.907   0.998   4.776  1.2481  1.8195  0.1200
12668TIP3    H259420   5.767   1.045   4.809  0.3461 -0.4263 -0.3129
12669TIP3   OH259421   5.788   6.628  16.187  0.5731  0.6229 -0.5768
12669TIP3    H159422   5.826   6.585  16.263  0.4332  0.2899 -0.6929
12669TIP3    H259423   5.861   6.639  16.126  0.5152  0.0987 -0.7472
12670TIP3   OH259424   6.628   1.405   1.700  0.0207  0.0813  0.5391
12670TIP3    H159425   6.702   1.432   1.645 -0.4356  1.1888  0.4468
12670TIP3    H259426   6.668   1.361   1.774  0.6693 -1.2607 -0.5625
12671TIP3   OH259427   3.667   1.325   4.390 -0.3548  0.1058 -0.1329
12671TIP3    H159428   3.584   1.310   4.436  0.3608  1.0241  1.5476
12671TIP3    H259429   3.650   1.296   4.300 -1.5552 -2.6002  0.8721
12672TIP3   OH259430   0.286   1.767  12.474  0.5980 -0.0746  0.1811
12672TIP3    H159431   0.252   1.855  12.490 -3.6512 -1.5258  0.4406
12672TIP3    H259432   0.231   1.710  12.528  2.0943 -3.0382 -1.1970
12673TIP3   OH259433   5.783   4.422  13.918  0.1965  0.8888  0.0585
12673TIP3    H159434   5.870   4.420  13.957 -1.0973 -2.2341  3.4120
12673TIP3    H259435   5.787   4.354  13.850  0.2227  0.1317  0.7924
12674TIP3   OH259436   1.725   1.733  14.810 -0.0528  0.5300  0.1483
12674TIP3    H159437   1.814   1.725  14.774  0.0175 -2.9890  0.7684
12674TIP3    H259438   1.681   1.792  14.749  1.5988 -0.8527 -2.6188
12675TIP3   OH259439   6.503   4.482  16.886  0.6803 -0.3834  0.0840
12675TIP3    H159440   6.543   4.397  16.902 -0.0170 -0.3359  2.5248
12675TIP3    H259441   6.577   4.541  16.870  1.3753 -0.9563  1.0627
12676TIP3   OH259442   4.022   1.954   4.248  0.3764 -1.2628 -1.0412
12676TIP3    H159443   4.115   1.970   4.264  0.4299 -1.0112 -1.5745
12676TIP3    H259444   3.998   2.018   4.181 -0.5626 -0.3129  0.1598
12677TIP3   OH259445   6.321   3.224   4.870  0.0710 -0.5465 -0.7295
12677TIP3    H159446   6.343   3.173   4.792  0.0629 -0.4297 -0.8096
12677TIP3    H259447   6.405   3.254   4.904  0.1077 -1.0433 -0.3866
12678TIP3   OH259448   1.563   1.632   4.655  0.2827  0.2791  0.0239
12678TIP3    H159449   1.644   1.585   4.677  0.1524  0.0417 -0.0063
12678TIP3    H259450   1.507   1.566   4.614 -0.4625  0.1056  1.2784
12679TIP3   OH259451   3.843   4.441  12.895 -0.0468 -0.2323 -0.0513
12679TIP3    H159452   3.898   4.517  12.916 -0.9341  0.7445 -1.0952
12679TIP3    H259453   3.851   4.384  12.971 -1.3530  2.0601  1.9457
12680TIP3   OH259454   5.694   4.785   2.426 -0.6540  0.3646 -0.2754
12680TIP3    H159455   5.788   4.795   2.441 -0.7057  0.0934  0.2813
12680TIP3    H259456   5.684   4.698   2.388 -0.6821  0.3663 -0.2726
12681TIP3   OH259457   2.789   1.484   4.410 -0.7138  0.6619  0.0935
12681TIP3    H159458   2.874   1.518   4.382 -0.8159  0.1541 -0.8717
12681TIP3    H259459   2.810   1.415   4.472 -0.3924  0.2135 -0.5044
12682TIP3   OH259460   3.771   5.953  17.140 -0.3023  0.3586  0.2419
12682TIP3    H159461   3.812   5.923  17.059 -1.6540  1.2260 -0.8128
12682TIP3    H259462   3.816   6.036  17.160 -1.3338  1.2168 -0.8124
12683TIP3   OH259463   0.073   6.300   4.417  0.5891  0.1030 -0.1517
12683TIP3    H159464   0.053   6.265   4.330  2.2571  0.6013 -0.7715
12683TIP3    H259465   0.013   6.374   4.427 -0.6721 -0.8714 -0.2071
12684TIP3   OH259466   0.175   3.835  14.693  0.0653  0.1343 -0.3404
12684TIP3    H159467   0.209   3.825  14.604 -0.4885  1.5374 -0.7377
12684TIP3    H259468   0.082   3.854  14.681 -0.0771  0.0296  0.5555
12685TIP3   OH259469   2.764   4.201   5.475  0.1352 -0.0420  0.2140
12685TIP3    H159470   2.790   4.203   5.383 -2.3603  0.9911 -0.5518
12685TIP3    H259471   2.675   4.166   5.473  1.0193 -2.8667  2.5919
12686TIP3   OH259472   1.843   3.707  15.393  0.2918 -0.5877 -0.0832
12686TIP3    H159473   1.757   3.664  15.398  0.0285  0.0020  0.5920
12686TIP3    H259474   1.903   3.645  15.435 -0.1977 -0.0533  1.4699
12687TIP3   OH259475   6.616   0.710  13.685 -0.0620 -0.0009 -0.1496
12687TIP3    H159476   6.635   0.681  13.596  0.6501  1.5878 -0.5483
12687TIP3    H259477   6.625   0.630  13.739  0.1915 -0.8332 -1.3853
12688TIP3   OH259478   4.840   1.284   2.862 -0.3036  0.2064 -0.1201
12688TIP3    H159479   4.880   1.202   2.890 -1.9383 -0.2981  0.9449
12688TIP3    H259480   4.835   1.277   2.766 -0.2517 -0.8618 -0.0591
12689TIP3   OH259481   1.357   5.461  13.609  0.3334 -0.0002  0.4465
12689TIP3    H159482   1.326   5.550  13.625 -0.4033 -0.5793  2.5707
12689TIP3    H259483   1.363   5.454  13.514 -1.7350  1.6198  0.1336
12690TIP3   OH259484   5.289   0.906  13.377 -0.4769  0.1832 -0.0990
12690TIP3    H159485   5.324   0.831  13.424  0.1109  0.0705 -0.7049
12690TIP3    H259486   5.363   0.965  13.365  0.0556 -0.8989 -3.0678
12691TIP3   OH259487   0.742   6.646   3.586  0.3071  0.4539 -0.0580
12691TIP3    H159488   0.772   6.556   3.581 -0.7113  0.0672  0.3348
12691TIP3    H259489   0.778   6.689   3.509  0.6394 -0.3427 -0.3534
12692TIP3   OH259490   4.165   0.458  15.577  0.2383 -0.1057 -0.7657
12692TIP3    H159491   4.071   0.439  15.566  0.5033 -1.8331 -0.4232
12692TIP3    H259492   4.171   0.496  15.664  0.1251 -2.7257  0.4955
12693TIP3   OH259493   2.487   2.661  13.024  0.0093  0.3202  0.0305
12693TIP3    H159494   2.406   2.677  12.975 -0.9627 -0.4657  1.2984
12693TIP3    H259495   2.534   2.595  12.973 -1.4563 -1.2349  0.6008
12694TIP3   OH259496   2.466   5.816  13.934 -0.3400 -0.3872 -0.3976
12694TIP3    H159497   2.526   5.889  13.944 -4.2793  3.3808 -1.4984
12694TIP3    H259498   2.508   5.759  13.870  2.3155  1.5330 -0.5346
12695TIP3   OH259499   1.014   0.273  13.355 -0.0903  0.1106 -0.0875
12695TIP3    H159500   1.053   0.200  13.306 -0.0512 -0.2340  0.4539
12695TIP3    H259501   0.963   0.231  13.424  1.8751  0.5833  1.7576
12696TIP3   OH259502   1.658   5.034   3.020  0.0620  0.4258 -0.2568
12696TIP3    H159503   1.572   5.010   2.987 -0.0761  1.6762 -0.8638
12696TIP3    H259504   1.696   4.952   3.050 -0.4174 -0.5394 -2.1396
12697TIP3   OH259505   0.469   4.454   5.314  0.1900  0.0215  0.0432
12697TIP3    H159506   0.396   4.452   5.375 -0.4770 -1.5742 -0.7487
12697TIP3    H259507   0.530   4.388   5.346 -0.2708 -0.9951 -1.0782
12698TIP3   OH259508   1.674   6.744  13.805 -0.2738  0.1659  0.7247
12698TIP3    H159509   1.650   6.836  13.819  0.8073  0.5801 -0.0212
12698TIP3    H259510   1.666   6.731  13.710  0.8088 -0.1420  0.6653
12699TIP3   OH259511   0.570   2.229  14.814  0.5432  0.1096 -0.3204
12699TIP3    H159512   0.508   2.188  14.874 -0.2876 -0.4175 -1.5245
12699TIP3    H259513   0.530   2.222  14.728  2.3772 -0.4800 -1.1885
12700TIP3   OH259514   0.379   4.880   0.438  0.5237 -0.0667 -0.2634
12700TIP3    H159515   0.376   4.784   0.441 -0.7068 -0.0589 -0.7624
12700TIP3    H259516   0.385   4.901   0.345 -2.3980  0.3617 -0.4241
12701TIP3   OH259517   3.250   5.180  14.686 -0.0658 -0.2027  0.2325
12701TIP3    H159518   3.284   5.173  14.596 -3.1882 -0.6763 -1.0550
12701TIP3    H259519   3.328   5.193  14.740  2.1300 -1.4992 -2.3374
12702TIP3   OH259520   3.873   0.597   1.747 -0.0156 -0.6567  0.3047
12702TIP3    H159521   3.795   0.612   1.802  0.0066  1.9721 -0.2559
12702TIP3    H259522   3.906   0.684   1.728  2.0365 -1.6453 -1.0201
12703TIP3   OH259523   1.253   5.076  15.966  0.1195  0.3614 -0.0368
12703TIP3    H159524   1.322   5.136  15.938  2.2033 -2.1252 -0.6673
12703TIP3    H259525   1.280   5.046  16.053 -0.7868  0.1929  0.2030
12704TIP3   OH259526   2.077   6.012   1.633 -0.1164 -0.1735 -0.3029
12704TIP3    H159527   2.013   6.053   1.574  2.0118  1.8864 -1.3485
12704TIP3    H259528   2.050   6.041   1.721  0.1248  1.8628 -0.8507
12705TIP3   OH259529   2.027   1.358  14.619 -0.4135  1.0613  0.1484
12705TIP3    H159530   2.121   1.374  14.632 -0.1613  0.8911 -1.3209
12705TIP3    H259531   1.989   1.372  14.706  1.0362  0.5870  0.9025
12706TIP3   OH259532   4.556   3.157   3.868 -0.1702 -0.0568 -0.9447
12706TIP3    H159533   4.488   3.213   3.829 -1.2402  1.3382  2.5444
12706TIP3    H259534   4.529   3.068   3.847 -0.9547  0.5511 -2.7749
12707TIP3   OH259535   1.568   2.492  15.711 -0.2745  0.4474  0.2246
12707TIP3    H159536   1.571   2.485  15.806  1.6419  0.1409  0.1697
12707TIP3    H259537   1.475   2.503  15.691 -0.8967 -1.1795  2.0018
12708TIP3   OH259538   3.755   0.250   2.705 -0.4523  0.1542 -0.3628
12708TIP3    H159539   3.791   0.260   2.793  3.7477  0.7021 -1.8864
12708TIP3    H259540   3.760   0.157   2.687 -0.4548  0.1511 -0.3479
12709TIP3   OH259541   6.009   2.479  13.772 -0.0627  0.5784 -0.2461
12709TIP3    H159542   6.074   2.490  13.842 -0.4716 -1.4473  0.5219
12709TIP3    H259543   6.060   2.451  13.696  0.2365  1.5801 -0.4317
12710TIP3   OH259544   0.207   5.671   3.632  0.7014 -0.0935 -0.3634
12710TIP3    H159545   0.220   5.578   3.613 -1.2916 -0.7828  1.2274
12710TIP3    H259546   0.148   5.702   3.563  1.7038  0.1494 -1.1420
12711TIP3   OH259547   3.146   6.135   2.885  0.5890  0.1643  0.6383
12711TIP3    H159548   3.069   6.086   2.913  0.2439 -0.8597 -1.8431
12711TIP3    H259549   3.217   6.070   2.882  0.7626  0.3797 -0.1732
12712TIP3   OH259550   4.074   3.126   1.769 -0.1864  0.3468 -0.5785
12712TIP3    H159551   3.988   3.160   1.790 -0.5795 -1.8487  1.9054
12712TIP3    H259552   4.135   3.187   1.811 -0.4601  1.7303 -2.0813
12713TIP3   OH259553   4.828   1.342  14.704  0.2220 -0.1678  0.2613
12713TIP3    H159554   4.786   1.256  14.709 -2.4260  1.0026 -0.3768
12713TIP3    H259555   4.823   1.366  14.612 -0.5657  1.3266  0.6644
12714TIP3   OH259556   3.892   4.082   0.393  0.5205 -0.2324 -0.3099
12714TIP3    H159557   3.955   4.020   0.357  0.5860 -0.3887  0.0706
12714TIP3    H259558   3.946   4.151   0.432  0.4501 -0.0247 -0.5819
12715TIP3   OH259559   0.558   5.141  12.987  0.3690  0.4436 -0.6316
12715TIP3    H159560   0.556   5.234  12.967 -0.0154  0.9501  1.5189
12715TIP3    H259561   0.489   5.103  12.932 -1.1783  1.8587  0.2376
12716TIP3   OH259562   1.780   1.020  14.115  0.0885  0.5418 -0.1086
12716TIP3    H159563   1.781   0.988  14.024  0.7958  0.8959 -0.2323
12716TIP3    H259564   1.872   1.031  14.137 -0.0215 -0.7120  1.0878
12717TIP3   OH259565   4.702   4.259  13.443  0.5387 -0.3178  0.6331
12717TIP3    H159566   4.659   4.181  13.477  0.2910  0.0006  1.0512
12717TIP3    H259567   4.793   4.250  13.472  0.5381 -0.5111  0.5772
12718TIP3   OH259568   5.517   5.617  11.126 -0.0401  0.5353  0.2913
12718TIP3    H159569   5.591   5.664  11.164  0.2680  0.2554  0.0399
12718TIP3    H259570   5.440   5.664  11.159  0.2629  1.6317 -0.4751
12719TIP3   OH259571   0.327   1.085   0.133  0.5456 -0.7341  0.5680
12719TIP3    H159572   0.303   1.005   0.180  1.2915 -0.2543  1.8132
12719TIP3    H259573   0.345   1.149   0.202  1.5404  0.0387 -0.3752
12720TIP3   OH259574   0.529   2.649  11.161  0.4466  0.9417 -0.3048
12720TIP3    H159575   0.468   2.694  11.101  0.5598  2.2207  0.4944
12720TIP3    H259576   0.612   2.647  11.113  0.1293  0.4291 -0.8501
12721TIP3   OH259577   1.895   5.821   5.531 -0.5547  0.1623  0.0176
12721TIP3    H159578   1.958   5.837   5.461 -0.3909 -1.4444 -0.2441
12721TIP3    H259579   1.918   5.883   5.599  0.8832  0.0736 -0.3657
12722TIP3   OH259580   5.599   1.671   1.005  0.0529 -0.2203 -0.2926
12722TIP3    H159581   5.614   1.596   0.949 -2.0841 -0.7589 -0.2624
12722TIP3    H259582   5.564   1.739   0.947  0.5213  0.2188 -0.0721
12723TIP3   OH259583   2.985   0.793   0.097  0.1558  0.4532  0.0336
12723TIP3    H159584   2.979   0.699   0.111 -2.5717  0.6433  0.5180
12723TIP3    H259585   2.987   0.803   0.002 -0.5945 -0.0679 -0.0462
12724TIP3   OH259586   1.661   2.374   2.390  0.2684  0.0554  0.0818
12724TIP3    H159587   1.639   2.294   2.439 -0.2145  0.7494  1.0331
12724TIP3    H259588   1.753   2.389   2.409  0.8659 -1.2537 -1.5653
12725TIP3   OH259589   2.357   3.282  12.179 -0.0159  0.3256  0.4094
12725TIP3    H159590   2.440   3.248  12.147 -0.7400  0.1815 -1.4113
12725TIP3    H259591   2.380   3.366  12.221  1.0955  0.0287  0.4180
12726TIP3   OH259592   6.112   2.081  17.139 -0.4839 -0.1375  0.4697
12726TIP3    H159593   6.196   2.034  17.140 -0.1933  0.3294  2.4704
12726TIP3    H259594   6.137   2.172  17.124 -0.5272  0.0919  1.6402
12727TIP3   OH259595   4.231   0.252  12.724 -0.1806 -0.0102 -0.4927
12727TIP3    H159596   4.204   0.161  12.711 -1.4192  0.1088  0.9203
12727TIP3    H259597   4.269   0.253  12.812  1.1314  0.5700 -1.0506
12728TIP3   OH259598   1.589   3.293  16.453  0.0457 -0.7752  0.7609
12728TIP3    H159599   1.619   3.203  16.464 -1.6231 -1.5085 -0.2294
12728TIP3    H259600   1.634   3.323  16.374 -0.0564 -1.0609  0.5904
12729TIP3   OH259601   6.515   4.858  13.671  0.0353  0.1588  0.3885
12729TIP3    H159602   6.541   4.775  13.630 -0.0641  0.0375  0.5683
12729TIP3    H259603   6.439   4.887  13.621  2.2695  2.0969 -2.1857
12730TIP3   OH259604   0.561   4.473  16.584 -0.0559 -0.6909  0.4367
12730TIP3    H159605   0.603   4.390  16.607  1.2948 -0.1667 -0.0034
12730TIP3    H259606   0.630   4.539  16.597 -0.7661  0.2240 -0.2833
12731TIP3   OH259607   1.514   6.682  12.743  0.3054 -0.4848 -0.2250
12731TIP3    H159608   1.461   6.753  12.706 -0.0810 -1.5216 -1.7835
12731TIP3    H259609   1.476   6.665  12.828 -0.6012  0.1138 -0.4972
12732TIP3   OH259610   6.293   3.038  14.894  0.5550 -0.1090 -0.5152
12732TIP3    H159611   6.259   2.955  14.862  1.7572 -0.9338  0.2853
12732TIP3    H259612   6.223   3.101  14.874 -0.6004 -1.3816 -0.6687
12733TIP3   OH259613   3.183   5.591   5.594  0.1533  0.1775 -0.7963
12733TIP3    H159614   3.145   5.663   5.643 -0.7668  0.9209 -2.5426
12733TIP3    H259615   3.208   5.527   5.662 -2.2957  0.5374  0.5612
12734TIP3   OH259616   2.351   3.082  15.837 -0.2136  0.3618  0.0543
12734TIP3    H159617   2.274   3.112  15.788  0.1938  1.7714  0.2365
12734TIP3    H259618   2.358   2.989  15.815 -1.8381  0.2409 -0.1438
12735TIP3   OH259619   5.284   6.664  15.098  0.5167  0.4189 -0.1360
12735TIP3    H159620   5.199   6.682  15.137  0.1280 -1.4947  0.0424
12735TIP3    H259621   5.270   6.674  15.004  0.2060  0.5209 -0.0807
12736TIP3   OH259622   3.154   0.580  11.347  0.6031 -0.2866 -0.0184
12736TIP3    H159623   3.186   0.663  11.382  1.9588 -0.9445  0.3647
12736TIP3    H259624   3.170   0.586  11.253  2.4048 -0.7807  0.2092
12737TIP3   OH259625   5.110   3.152  15.829  0.5498 -0.4929  0.3538
12737TIP3    H159626   5.098   3.069  15.781 -2.1620  0.2094 -0.3477
12737TIP3    H259627   5.162   3.206  15.769 -0.6974 -0.4896 -0.7697
12738TIP3   OH259628   2.616   1.581  16.530 -0.1696  0.2494 -0.1694
12738TIP3    H159629   2.537   1.628  16.505 -1.8754 -1.7504  1.1061
12738TIP3    H259630   2.595   1.488  16.515  1.2974 -0.4687  1.7567
12739TIP3   OH259631   6.405   4.083  14.750 -0.5240 -0.7622  0.2898
12739TIP3    H159632   6.433   4.129  14.671 -1.4439 -1.4330 -0.4553
12739TIP3    H259633   6.361   4.150  14.803  1.0823 -0.0557  0.7733
12740TIP3   OH259634   6.141   2.268   3.270  0.4789  0.1695 -0.5072
12740TIP3    H159635   6.166   2.213   3.344  0.6690  0.2654 -0.4981
12740TIP3    H259636   6.179   2.353   3.290  1.1216  0.0187 -1.0424
12741TIP3   OH259637   1.457   0.332   4.237  0.3745  0.7383 -0.4590
12741TIP3    H159638   1.487   0.423   4.230 -1.0257  1.2966  0.3272
12741TIP3    H259639   1.492   0.302   4.321 -1.3453  1.4669  0.5721
12742TIP3   OH259640   0.357   2.916  15.228  0.4088 -0.7354  0.0634
12742TIP3    H159641   0.451   2.929  15.222  0.6348 -1.1458  2.0399
12742TIP3    H259642   0.340   2.834  15.183  0.8176 -0.1601 -1.1830
12743TIP3   OH259643   2.123   5.142   1.801  0.0157  0.4191  0.0511
12743TIP3    H159644   2.053   5.100   1.852  0.8190 -2.1229 -0.7565
12743TIP3    H259645   2.113   5.235   1.818 -2.1337 -0.0395  1.7630
12744TIP3   OH259646   4.449   3.987  16.428  0.6185  0.5000 -0.5608
12744TIP3    H159647   4.459   3.895  16.454 -1.9856  0.1021 -0.6586
12744TIP3    H259648   4.531   4.028  16.454  0.7938 -1.2732  2.1458
12745TIP3   OH259649   2.472   3.911   1.031 -0.2441  0.0845  0.0869
12745TIP3    H159650   2.455   3.821   1.002  2.0479 -0.1936 -0.5590
12745TIP3    H259651   2.542   3.942   0.974 -1.7660  2.7461 -0.4742
12746TIP3   OH259652   2.564   2.577  16.094 -0.6671 -0.7607 -0.5218
12746TIP3    H159653   2.533   2.649  16.039 -1.9832 -1.2656 -0.4847
12746TIP3    H259654   2.558   2.610  16.183  0.1787 -0.4060 -0.5897
12747TIP3   OH259655   3.378   4.257  12.052 -0.0530  0.5436  0.6515
12747TIP3    H159656   3.457   4.310  12.050  0.9608 -0.9219  0.3869
12747TIP3    H259657   3.409   4.167  12.064 -1.6471 -0.1255  0.0702
12748TIP3   OH259658   4.150   2.403  15.254 -0.2771  0.7257 -1.0509
12748TIP3    H159659   4.189   2.360  15.177  1.2760 -1.9895  1.0451
12748TIP3    H259660   4.217   2.465  15.283  0.1460  0.1080 -0.6608
12749TIP3   OH259661   3.746   1.374   1.214 -0.7357  0.1965  0.0498
12749TIP3    H159662   3.727   1.350   1.305  0.3941 -0.5495  0.1084
12749TIP3    H259663   3.739   1.469   1.213  0.3434  0.3243  1.2119
12750TIP3   OH259664   6.262   1.408   0.432 -0.4083 -0.1185  1.1217
12750TIP3    H159665   6.228   1.497   0.427  0.0086  0.2425  3.4737
12750TIP3    H259666   6.289   1.387   0.343 -2.7448  1.1723  0.0105
12751TIP3   OH259667   4.839   5.481  17.115  0.1998 -0.0654 -0.3057
12751TIP3    H159668   4.847   5.571  17.083 -1.7888  1.0107  1.9783
12751TIP3    H259669   4.746   5.470  17.135  0.4209 -2.5851 -0.2807
12752TIP3   OH259670   6.657   2.517   3.938 -0.4564  0.4443 -0.2439
12752TIP3    H159671   6.678   2.424   3.942  0.1300  0.4952 -1.5048
12752TIP3    H259672   6.641   2.543   4.029 -2.6108 -1.3103 -0.0573
12753TIP3   OH259673   0.626   6.447  15.448 -0.5379 -0.4502  0.0678
12753TIP3    H159674   0.554   6.504  15.421 -0.1835  0.6820  1.3810
12753TIP3    H259675   0.692   6.456  15.379 -0.9905 -0.2341 -0.3407
12754TIP3   OH259676   4.167   0.025   1.165 -0.0568  0.4202  0.1472
12754TIP3    H159677   4.093   0.081   1.140 -1.4671 -1.6140 -0.5139
12754TIP3    H259678   4.145  -0.007   1.252 -0.3035 -0.6919 -0.3052
12755TIP3   OH259679   0.588   2.901   4.118 -0.3841  0.3311 -0.3513
12755TIP3    H159680   0.683   2.898   4.109 -0.2306  1.1166  0.8218
12755TIP3    H259681   0.571   2.868   4.206 -0.8900  3.5027  0.8522
12756TIP3   OH259682   2.706   2.103   5.236  0.7807 -0.1295 -0.3179
12756TIP3    H159683   2.686   2.023   5.284 -0.7679  1.1681  1.3897
12756TIP3    H259684   2.785   2.083   5.187 -0.8344 -3.4525 -1.9038
12757TIP3   OH259685   4.400   1.207   1.561  0.0727  0.8376 -0.4888
12757TIP3    H159686   4.305   1.198   1.548  0.2302 -0.8498 -0.8020
12757TIP3    H259687   4.430   1.253   1.483 -0.1872 -1.0382 -1.7714
12758TIP3   OH259688   4.173   4.899  15.553 -0.5721 -0.2734 -0.3069
12758TIP3    H159689   4.239   4.966  15.569 -3.3177  2.5945  0.0459
12758TIP3    H259690   4.153   4.864  15.640 -1.3440  0.8047 -0.0288
12759TIP3   OH259691   1.610   1.205   1.961 -0.1288 -0.0288 -0.2894
12759TIP3    H159692   1.576   1.184   1.874  1.6298 -0.4125 -0.9093
12759TIP3    H259693   1.631   1.121   2.000 -0.2203  0.1823  0.2268
12760TIP3   OH259694   1.913   1.699  13.704  0.2712 -0.3195 -1.0572
12760TIP3    H159695   1.869   1.663  13.627 -1.5550  0.7539 -0.5886
12760TIP3    H259696   1.879   1.788  13.711 -0.2594 -0.6556  1.4504
12761TIP3   OH259697   1.752   5.596   3.665  0.3620  0.2319  0.6599
12761TIP3    H159698   1.719   5.571   3.752 -1.1427 -1.5297 -0.3466
12761TIP3    H259699   1.778   5.513   3.625  1.5456  1.0813 -0.4194
12762TIP3   OH259700   5.350   5.422  13.662  0.1530  0.0712 -0.2248
12762TIP3    H159701   5.303   5.339  13.659 -1.7879  1.1039 -0.2496
12762TIP3    H259702   5.310   5.475  13.593  0.0422  1.6454  0.9737
12763TIP3   OH259703   0.720   3.393   2.871  0.5071 -0.1408 -0.8616
12763TIP3    H159704   0.760   3.465   2.919 -0.3633 -1.5170  2.1337
12763TIP3    H259705   0.632   3.425   2.849  0.4534  0.0330 -0.3917
12764TIP3   OH259706   6.023   1.640   4.580 -0.5069  0.0581  0.0289
12764TIP3    H159707   6.012   1.590   4.661 -2.1138  0.0047 -0.1828
12764TIP3    H259708   6.086   1.709   4.602  1.0968 -1.5164  0.5544
12765TIP3   OH259709   6.342   1.786  14.688 -0.5796  0.3106 -0.1339
12765TIP3    H159710   6.278   1.854  14.671  1.1004  1.6055 -1.7998
12765TIP3    H259711   6.365   1.753  14.601  1.3592  0.2744  0.3336
12766TIP3   OH259712   3.179   4.011  12.919 -0.4718 -0.5269  0.0019
12766TIP3    H159713   3.272   4.010  12.897 -0.7256  0.4376 -1.2103
12766TIP3    H259714   3.145   4.090  12.879 -2.0793 -1.5235 -0.7179
12767TIP3   OH259715   3.012   4.784  16.601  0.3007 -0.3259 -0.0798
12767TIP3    H159716   2.944   4.746  16.656 -1.6890  2.6113 -0.2907
12767TIP3    H259717   2.999   4.744  16.515 -0.5144 -0.5418  0.1409
12768TIP3   OH259718   4.903   0.936   1.713 -0.2208 -0.3810  0.2489
12768TIP3    H159719   4.934   1.012   1.762 -0.3263 -0.9880  1.2797
12768TIP3    H259720   4.817   0.962   1.680 -0.4281 -0.1972  0.9387
12769TIP3   OH259721   4.879   4.952   0.069 -0.1679  0.1148 -0.5072
12769TIP3    H159722   4.876   4.870   0.120 -0.5339 -0.3091 -1.2002
12769TIP3    H259723   4.930   5.012   0.124  0.7450 -0.8050 -0.3186
12770TIP3   OH259724   4.374   2.186   4.956 -0.1433  0.5323 -0.3834
12770TIP3    H159725   4.286   2.221   4.941 -0.8589 -1.5638 -1.4289
12770TIP3    H259726   4.390   2.201   5.049 -1.1683  1.8613 -0.3923
12771TIP3   OH259727   0.575   0.297  15.557  0.3974 -0.2532 -0.1066
12771TIP3    H159728   0.576   0.316  15.463  0.5417 -4.0007 -1.0189
12771TIP3    H259729   0.663   0.319  15.588  0.1515  1.6250 -0.6448
12772TIP3   OH259730   1.287   6.482  16.863 -0.0010 -0.3001  0.5033
12772TIP3    H159731   1.293   6.545  16.935  0.4857  0.2619 -0.0199
12772TIP3    H259732   1.193   6.473  16.847 -0.0608  1.3362 -0.2958
12773TIP3   OH259733   0.826   5.940  12.016  0.2730  0.6648 -0.0212
12773TIP3    H159734   0.735   5.910  12.011 -0.0004  1.5209 -0.2702
12773TIP3    H259735   0.877   5.868  11.978 -0.0612 -0.7564  2.0101
12774TIP3   OH259736   6.465   5.850   1.411 -0.0506  0.2762 -0.0200
12774TIP3    H159737   6.524   5.885   1.344  1.2202 -0.1284  0.8399
12774TIP3    H259738   6.378   5.874   1.381  0.3371 -1.0562 -2.5203
12775TIP3   OH259739   2.160   2.449  15.107 -0.1000 -0.1011 -0.1313
12775TIP3    H159740   2.239   2.399  15.089 -0.6462 -1.5037  1.1545
12775TIP3    H259741   2.088   2.390  15.086 -0.8640  1.3382 -1.8156
12776TIP3   OH259742   4.436   1.951   6.341  0.4894 -0.3595  0.2982
12776TIP3    H159743   4.405   1.906   6.263  0.5604  0.0433  0.0321
12776TIP3    H259744   4.440   2.043   6.315 -2.5615  0.3102  1.6719
12777TIP3   OH259745   4.343   6.400   4.897  0.1994  0.0867 -0.5900
12777TIP3    H159746   4.355   6.407   4.802  2.6199 -0.9186 -0.4382
12777TIP3    H259747   4.258   6.358   4.907  0.6862 -1.5126 -2.4159
12778TIP3   OH259748   4.780   2.365   4.039  0.2426 -0.2861  0.1156
12778TIP3    H159749   4.812   2.425   4.105  0.9448  0.2415 -0.6815
12778TIP3    H259750   4.742   2.421   3.971  0.0804 -0.7816 -0.2132
12779TIP3   OH259751   2.957   2.040  13.657  0.4581 -0.4343  0.2183
12779TIP3    H159752   2.923   2.128  13.677 -0.9000 -1.2165  1.5431
12779TIP3    H259753   2.884   1.981  13.676  1.5711 -1.9188  0.0389
12780TIP3   OH259754   2.507   4.761  17.166 -0.4007  0.1804 -0.5898
12780TIP3    H159755   2.527   4.679  17.120 -1.1314  0.4961 -1.5025
12780TIP3    H259756   2.476   4.733  17.252 -1.9603 -0.6167 -1.3538
12781TIP3   OH259757   0.642   2.881  11.860 -0.1749 -0.5942  0.5374
12781TIP3    H159758   0.700   2.824  11.910  0.3108 -0.4244  0.1724
12781TIP3    H259759   0.659   2.859  11.768 -2.3061 -2.1520  0.4310
12782TIP3   OH259760   1.360   2.232  16.019 -0.3945  0.1652 -0.2686
12782TIP3    H159761   1.402   2.178  16.086 -0.7211 -0.3275 -0.4596
12782TIP3    H259762   1.340   2.314  16.065 -2.3618 -0.8489  0.8259
12783TIP3   OH259763   5.374   4.973   3.529  0.4524 -0.5944 -0.0227
12783TIP3    H159764   5.304   5.028   3.563 -0.1451 -2.0608  1.1725
12783TIP3    H259765   5.378   4.995   3.436  0.5791  1.8207  0.4822
12784TIP3   OH259766   1.768   4.786   3.931  0.8134  0.8644 -0.3413
12784TIP3    H159767   1.694   4.824   3.884 -0.0912  0.4866  0.7070
12784TIP3    H259768   1.797   4.855   3.991  0.5353  0.6211  0.0786
12785TIP3   OH259769   2.899   1.208   5.590  0.8394 -0.0888 -0.2890
12785TIP3    H159770   2.861   1.224   5.676  1.0722 -1.2043  0.0339
12785TIP3    H259771   2.841   1.253   5.529 -0.2091 -0.5994  0.3172
12786TIP3   OH259772   4.577   1.326   0.803 -0.9751 -0.1478 -1.2377
12786TIP3    H159773   4.574   1.233   0.783 -2.4273 -1.2049  2.8268
12786TIP3    H259774   4.661   1.339   0.847 -1.0978  0.2603 -1.1155
12787TIP3   OH259775   6.557   3.225   0.934  0.6140  0.4261  0.6015
12787TIP3    H159776   6.526   3.146   0.889  0.5860 -0.4046  2.0247
12787TIP3    H259777   6.477   3.273   0.955  0.6665  1.2770 -0.9680
12788TIP3   OH259778   0.065   2.620  13.111  0.0818 -0.3802 -0.0393
12788TIP3    H159779   0.049   2.699  13.060 -1.0030 -1.9666 -2.3420
12788TIP3    H259780  -0.017   2.604  13.157  0.8933  0.7616  1.9483
12789TIP3   OH259781   6.741   6.236  14.269 -0.4468  0.2209 -0.3435
12789TIP3    H159782   6.824   6.246  14.316 -0.5743 -1.4570  0.2887
12789TIP3    H259783   6.680   6.292  14.317 -0.4904 -1.2005  1.3298
12790TIP3   OH259784   0.984   0.482   2.340  0.4494  0.1402  1.1667
12790TIP3    H159785   0.997   0.567   2.297 -0.2300 -0.4369 -0.2730
12790TIP3    H259786   0.895   0.456   2.313  0.4638 -0.7932  1.9957
12791TIP3   OH259787   0.367   6.171   5.274  0.2339  0.2236  0.5238
12791TIP3    H159788   0.372   6.266   5.268  0.7872  0.3949  2.7514
12791TIP3    H259789   0.283   6.154   5.319  0.2324 -0.3311  0.3210
12792TIP3   OH259790   0.786   3.440  14.980  0.0351  0.5230  0.0256
12792TIP3    H159791   0.817   3.512  14.926 -0.1044  1.3305  0.9985
12792TIP3    H259792   0.758   3.373  14.918  1.6137  0.6753 -0.8937
12793TIP3   OH259793   5.017   0.913   3.016 -0.1888  0.3862 -0.4222
12793TIP3    H159794   5.006   0.988   3.075  2.1537  0.0468  0.5608
12793TIP3    H259795   4.953   0.849   3.047  1.8765 -0.3318  2.8283
12794TIP3   OH259796   1.870   6.430  17.076  0.1552 -0.3622 -0.2974
12794TIP3    H159797   1.845   6.375  17.149  1.5969  0.3154  0.7493
12794TIP3    H259798   1.897   6.513  17.116  0.5030  0.2003 -1.6339
12795TIP3   OH259799   5.396   5.124  11.366  0.5655 -0.4049  0.0792
12795TIP3    H159800   5.364   5.062  11.300 -0.4148 -1.0914  1.1684
12795TIP3    H259801   5.445   5.070  11.428  2.3804  0.3816 -0.5993
12796TIP3   OH259802   0.036   1.204  11.301 -0.5559 -0.0324 -0.6415
12796TIP3    H159803   0.026   1.279  11.359 -0.6891  1.0469 -2.0246
12796TIP3    H259804   0.115   1.221  11.251 -0.2426 -1.1220 -0.5567
12797TIP3   OH259805   6.417   1.194  11.444 -0.5211 -0.0379 -0.4161
12797TIP3    H159806   6.466   1.225  11.368  2.5847 -0.2277  1.3407
12797TIP3    H259807   6.434   1.100  11.447 -1.6851 -0.2467 -0.2135
12798TIP3   OH259808   6.596   6.382  13.040 -0.4998  0.3784  0.7197
12798TIP3    H159809   6.533   6.317  13.072  0.4619  0.7249  3.6818
12798TIP3    H259810   6.681   6.350  13.069 -0.0104  2.9862  2.6013
12799TIP3   OH259811   2.520   4.205   3.902 -0.4058  0.6235 -0.1579
12799TIP3    H159812   2.490   4.120   3.934  1.4816  0.3901  1.2148
12799TIP3    H259813   2.496   4.267   3.970  1.2368  0.5803  0.5149
12800TIP3   OH259814   6.738   0.904   0.611  0.2210 -0.1159 -0.1276
12800TIP3    H159815   6.705   0.882   0.698  0.5359  0.5785  0.1673
12800TIP3    H259816   6.787   0.826   0.583 -2.2269 -1.4912 -0.8899
12801TIP3   OH259817   3.379   2.307   1.648 -0.2725  0.2780  0.4126
12801TIP3    H159818   3.300   2.332   1.695 -0.3219  1.2015 -0.1333
12801TIP3    H259819   3.387   2.213   1.662 -0.7508  0.3862  1.5494
12802TIP3   OH259820   5.602   3.811  12.214 -0.0328 -0.1250 -0.4020
12802TIP3    H159821   5.645   3.800  12.298  1.6768 -1.2556 -1.3564
12802TIP3    H259822   5.590   3.905  12.205  1.3772  0.1566  0.3705
12803TIP3   OH259823   3.825   0.144   1.406 -0.5195 -0.0841  0.0939
12803TIP3    H159824   3.840   0.224   1.458 -0.5216  0.0742 -0.1456
12803TIP3    H259825   3.911   0.121   1.373 -0.3303 -0.7939  1.0286
12804TIP3   OH259826   3.088   5.988  16.363 -0.1711  0.1719  0.6466
12804TIP3    H159827   3.074   5.935  16.285 -1.5845  0.8583  0.3936
12804TIP3    H259828   3.073   6.078  16.333 -3.1985  0.2899  2.1717
12805TIP3   OH259829   5.867   4.850   4.753  0.4626  0.6952  0.4575
12805TIP3    H159830   5.799   4.901   4.796  1.1952  0.2790  2.1801
12805TIP3    H259831   5.924   4.916   4.713  1.2123  1.2590  2.3696
12806TIP3   OH259832   6.636   5.267  14.345 -0.1710 -0.1299 -0.2528
12806TIP3    H159833   6.675   5.188  14.306 -0.5038 -0.4972  0.1462
12806TIP3    H259834   6.711   5.315  14.380 -0.0107 -0.5125 -0.0633
12807TIP3   OH259835   2.597   6.171  14.534  0.3899 -0.4755 -0.3431
12807TIP3    H159836   2.587   6.214  14.449  0.0411 -2.3660 -1.3307
12807TIP3    H259837   2.691   6.157  14.543  0.4044 -0.5599 -0.5967
12808TIP3   OH259838   5.712   4.592   4.663  0.2509  0.1415  0.7498
12808TIP3    H159839   5.793   4.643   4.664  0.3681  0.0217 -0.5649
12808TIP3    H259840   5.646   4.650   4.700  0.7181  0.6324  0.8237
12809TIP3   OH259841   6.494   5.524   3.512 -0.1426 -0.1737  0.0587
12809TIP3    H159842   6.560   5.539   3.579  1.5032  0.3697 -1.6047
12809TIP3    H259843   6.537   5.469   3.447 -1.8203 -1.0306 -0.3894
12810TIP3   OH259844   2.502   1.926  14.166  0.4308 -0.1540 -0.3080
12810TIP3    H159845   2.498   1.954  14.075 -3.6100 -1.0638 -0.5931
12810TIP3    H259846   2.418   1.953  14.204  1.2260 -1.3644  2.6484
12811TIP3   OH259847   3.418   4.439   2.649 -0.1499  0.5848  0.1251
12811TIP3    H159848   3.485   4.377   2.622 -1.4464 -1.0109  0.4546
12811TIP3    H259849   3.462   4.496   2.712  0.9778 -0.1947  0.0602
12812TIP3   OH259850   2.432   1.569  12.433 -0.2285  0.4196 -0.4906
12812TIP3    H159851   2.397   1.639  12.489  2.0185 -2.3780  5.1208
12812TIP3    H259852   2.362   1.504  12.430  0.3575 -0.3106  0.9759
12813TIP3   OH259853   1.620   3.195  13.221  0.5167  0.4792 -0.3327
12813TIP3    H159854   1.629   3.158  13.310 -1.4296  0.6871 -0.0131
12813TIP3    H259855   1.706   3.234  13.203  0.9477  0.4679  1.4690
12814TIP3   OH259856   2.924   4.688   5.599 -0.1134  0.0921  0.1756
12814TIP3    H159857   2.942   4.732   5.516 -0.9917  1.8255  0.8549
12814TIP3    H259858   2.995   4.625   5.609  0.6889  0.7226 -1.2768
12815TIP3   OH259859   3.869   1.101   1.174  0.3321 -0.4556  0.1709
12815TIP3    H159860   3.823   1.050   1.240  0.1133 -0.3749  0.0807
12815TIP3    H259861   3.831   1.189   1.180  0.9897 -0.1899  0.6109
12816TIP3   OH259862   4.766   5.696  15.591  0.4070  0.1189 -0.0101
12816TIP3    H159863   4.762   5.605  15.563 -0.0658 -0.2258  1.1131
12816TIP3    H259864   4.678   5.730  15.574  0.4408  0.2216  0.0172
12817TIP3   OH259865   3.359   4.551  12.728 -0.2273 -0.2164 -0.2082
12817TIP3    H159866   3.453   4.533  12.732 -0.0233  0.9968  0.8692
12817TIP3    H259867   3.328   4.496  12.656  1.0736 -1.6249  0.2506
12818TIP3   OH259868   4.730   5.322   3.008  0.0600 -0.2007 -0.4324
12818TIP3    H159869   4.798   5.284   2.952  0.7295  0.9299 -0.4255
12818TIP3    H259870   4.692   5.392   2.954 -2.2749 -1.8398 -1.0817
12819TIP3   OH259871   4.787   1.712  14.898 -0.1068 -0.0913 -0.4689
12819TIP3    H159872   4.696   1.695  14.873 -0.8140 -0.3571  1.9855
12819TIP3    H259873   4.825   1.626  14.913 -0.3261  0.0691  1.1940
12820TIP3   OH259874   2.901   2.644   0.768 -0.2373  0.3377 -0.1339
12820TIP3    H159875   2.845   2.568   0.783 -2.3177  1.8108  0.0722
12820TIP3    H259876   2.898   2.657   0.673  1.7055 -0.9081 -0.4204
12821TIP3   OH259877   5.635   0.382  16.512  0.0791 -0.5174  0.1832
12821TIP3    H159878   5.606   0.291  16.512 -0.3507 -0.4048 -1.2773
12821TIP3    H259879   5.681   0.393  16.429 -1.5294  1.0612 -0.5719
12822TIP3   OH259880   5.146   0.425  17.360 -0.2101 -0.2868 -0.1431
12822TIP3    H159881   5.185   0.362  17.421 -0.3938  0.7977  1.1410
12822TIP3    H259882   5.221   0.468  17.319 -0.0463  0.2587  0.6978
12823TIP3   OH259883   5.431   6.001   3.681  0.0860  0.2562 -0.3377
12823TIP3    H159884   5.377   5.958   3.747  0.7318 -1.7344 -1.0176
12823TIP3    H259885   5.521   5.990   3.713  0.3083  0.5122 -0.8579
12824TIP3   OH259886   1.827   0.715   0.284 -0.7389  0.2911 -0.2201
12824TIP3    H159887   1.855   0.751   0.200  0.4143  0.2530  0.1439
12824TIP3    H259888   1.735   0.690   0.269 -0.6890  0.7032 -1.3244
12825TIP3   OH259889   2.990   4.298  17.224  0.3590 -0.5309 -0.0650
12825TIP3    H159890   3.080   4.273  17.201  0.0233 -1.0330 -0.8874
12825TIP3    H259891   2.935   4.241  17.170 -0.4504  0.1225  0.0538
12826TIP3   OH259892   3.195   4.907  14.798 -0.6819 -0.0576  0.3882
12826TIP3    H159893   3.185   4.980  14.737 -0.6135  0.3541  0.8660
12826TIP3    H259894   3.170   4.943  14.883  1.0103 -0.0992  0.9323
12827TIP3   OH259895   4.055   4.118   4.436  0.5970 -0.3383  0.0462
12827TIP3    H159896   4.146   4.132   4.408  1.0650  1.5394  2.1797
12827TIP3    H259897   4.056   4.035   4.483  0.5770 -1.6541 -2.1573
12828TIP3   OH259898   4.067   3.405  14.612 -0.3236  0.1988  0.2906
12828TIP3    H159899   4.084   3.499  14.601 -0.2292  0.1119 -0.3298
12828TIP3    H259900   3.973   3.399  14.629 -0.4314  0.3669 -0.2247
12829TIP3   OH259901   3.388   6.690  15.680  0.7510 -0.7731  0.3225
12829TIP3    H159902   3.311   6.661  15.632  0.2588  2.5678 -1.1455
12829TIP3    H259903   3.384   6.641  15.763 -3.1296 -0.5706  0.4488
12830TIP3   OH259904   0.699   4.680  13.744 -0.1360  0.3205  0.5067
12830TIP3    H159905   0.618   4.727  13.763  0.7664  1.5837  1.3846
12830TIP3    H259906   0.768   4.743  13.762  1.0248 -0.2721 -1.5856
12831TIP3   OH259907   3.115   6.328  16.502 -0.5351 -0.1947  0.5156
12831TIP3    H159908   3.147   6.291  16.419 -3.1423 -2.0924  0.2248
12831TIP3    H259909   3.159   6.277  16.570 -1.4573 -1.5197  0.1642
12832TIP3   OH259910   5.393   0.684   1.702  0.3553 -0.0228 -0.1541
12832TIP3    H159911   5.304   0.718   1.712 -0.9390 -2.8031 -1.1325
12832TIP3    H259912   5.408   0.632   1.781  0.7552 -0.2685 -0.3842
12833TIP3   OH259913   6.162   6.623   6.079 -0.3363 -0.5491 -0.6271
12833TIP3    H159914   6.093   6.568   6.043  0.2920 -2.0505  0.3439
12833TIP3    H259915   6.153   6.613   6.174  0.8756 -0.3720 -0.4781
12834TIP3   OH259916   5.640   0.209  11.632 -0.4428 -0.6717 -0.8243
12834TIP3    H159917   5.698   0.263  11.686 -1.3797  0.2673 -0.7254
12834TIP3    H259918   5.699   0.148  11.587  0.4246 -1.0024  0.7021
12835TIP3   OH259919   1.593   2.825   2.354  0.4528 -0.3806 -0.3153
12835TIP3    H159920   1.660   2.775   2.307  0.1359 -0.3524 -0.8134
12835TIP3    H259921   1.630   2.840   2.440  0.2849 -2.0560  0.0836
12836TIP3   OH259922   4.682   3.426   3.519 -0.4568  0.4370 -0.5577
12836TIP3    H159923   4.668   3.515   3.553  2.9932  0.9508 -0.1474
12836TIP3    H259924   4.693   3.439   3.425 -0.4538  0.3755 -0.5654
12837TIP3   OH259925   4.831   0.370  16.513  0.6681 -0.1148  0.2350
12837TIP3    H159926   4.751   0.357  16.565  0.5237 -0.9299 -0.1851
12837TIP3    H259927   4.884   0.430  16.567 -1.1348  2.2729 -0.4415
12838TIP3   OH259928   2.555   5.395  13.293  0.4992 -0.0763  0.2303
12838TIP3    H159929   2.460   5.409  13.297  0.2617 -0.1384 -2.7969
12838TIP3    H259930   2.565   5.310  13.251  1.9043 -0.1269  0.6321
12839TIP3   OH259931   3.895   3.221  13.564  0.2214 -0.4084 -0.1598
12839TIP3    H159932   3.849   3.237  13.482 -0.4461  3.1769  0.7742
12839TIP3    H259933   3.987   3.233  13.544  0.2033 -1.0205 -0.6434
12840TIP3   OH259934   2.881   5.335  11.882  0.2714 -0.1916 -0.0557
12840TIP3    H159935   2.977   5.342  11.877  0.3564 -1.2692 -0.0379
12840TIP3    H259936   2.863   5.242  11.869 -0.7853  0.0189 -0.1338
12841TIP3   OH259937   3.243   2.960  12.254 -0.0708 -0.4299  0.4441
12841TIP3    H159938   3.202   3.047  12.255 -0.3519 -0.5453 -0.4768
12841TIP3    H259939   3.329   2.974  12.295 -0.5051  0.0739  1.2177
12842TIP3   OH259940   1.444   3.320   3.532  0.3116  0.6782  0.4061
12842TIP3    H159941   1.351   3.298   3.535  0.4016  0.2935  3.0110
12842TIP3    H259942   1.469   3.309   3.440 -1.7026 -1.3896  0.0136
12843TIP3   OH259943   4.731   0.046   5.278 -0.6207  0.0872  0.7242
12843TIP3    H159944   4.791   0.120   5.265  1.2886 -1.3433  1.1094
12843TIP3    H259945   4.739   0.024   5.370  0.0847 -1.6104  0.2932
12844TIP3   OH259946   1.156   4.155   2.596 -0.3214 -0.2957 -0.4999
12844TIP3    H159947   1.187   4.072   2.559  0.4438  0.4520 -1.6010
12844TIP3    H259948   1.062   4.155   2.579 -0.3120 -0.8942 -0.5774
12845TIP3   OH259949   5.550   3.929   0.477 -0.6368  0.2075  0.3844
12845TIP3    H159950   5.621   3.992   0.485 -0.9881  0.6923 -0.3218
12845TIP3    H259951   5.471   3.978   0.496 -0.9573  0.0920 -0.6301
12846TIP3   OH259952   0.870   5.051   5.900 -0.1461 -0.2194  0.2113
12846TIP3    H159953   0.818   4.974   5.875  0.1732 -0.8051  1.2994
12846TIP3    H259954   0.873   5.047   5.996  0.3457  0.8462  0.2464
12847TIP3   OH259955   0.674   5.260  11.169 -0.7922  0.2006 -0.0157
12847TIP3    H159956   0.691   5.194  11.237 -0.9590  0.7476  0.5731
12847TIP3    H259957   0.758   5.273  11.126 -0.7158 -0.2637 -0.0109
12848TIP3   OH259958   2.083   4.550  13.769  0.2573 -0.1186 -0.2307
12848TIP3    H159959   2.148   4.550  13.839  0.6143 -2.0533 -0.5071
12848TIP3    H259960   2.022   4.481  13.793 -0.0842 -0.2480 -1.4176
12849TIP3   OH259961   0.929   0.673  11.295 -0.9325 -0.2426  0.6118
12849TIP3    H159962   0.877   0.647  11.219 -0.9288  0.5705  0.3192
12849TIP3    H259963   0.986   0.742  11.262  2.0255 -2.6241  0.3444
12850TIP3   OH259964   0.652   3.454  11.670 -0.2571 -0.5046 -0.2852
12850TIP3    H159965   0.651   3.367  11.631 -0.7018  0.3087 -2.2435
12850TIP3    H259966   0.567   3.461  11.714  0.1745 -1.3840  0.7135
12851TIP3   OH259967   1.885   4.400   0.965 -0.3043 -0.2440  0.7383
12851TIP3    H159968   1.953   4.359   1.019 -0.2932  0.7958  1.5516
12851TIP3    H259969   1.929   4.422   0.883 -0.0541 -0.9211  0.6875
12852TIP3   OH259970   1.103   5.637  15.155 -0.0944  0.6365  0.0252
12852TIP3    H159971   1.047   5.696  15.105  1.3167  0.9112 -1.3144
12852TIP3    H259972   1.108   5.676  15.242 -1.1102  1.1753 -0.1444
12853TIP3   OH259973   1.633   1.256  14.805 -0.3897 -0.0560  0.8987
12853TIP3    H159974   1.574   1.181  14.794 -2.6109  1.5652  1.0514
12853TIP3    H259975   1.674   1.267  14.719 -0.1487 -1.3253  0.8332
12854TIP3   OH259976   4.102   2.645  15.865 -0.4538  0.1579  0.5117
12854TIP3    H159977   4.154   2.646  15.785 -1.0046  1.9418  0.1310
12854TIP3    H259978   4.122   2.561  15.906 -1.1904 -1.4396 -2.1497
12855TIP3   OH259979   4.576   0.316  15.339 -0.3788  0.0187 -0.4296
12855TIP3    H159980   4.502   0.297  15.397  0.8751 -1.3719  0.7876
12855TIP3    H259981   4.621   0.389  15.380 -0.4834  0.2036 -0.6360
12856TIP3   OH259982   2.280   0.505  14.477 -0.5430  0.6048 -0.2547
12856TIP3    H159983   2.305   0.486  14.386 -1.4359  0.5078 -0.4845
12856TIP3    H259984   2.319   0.434  14.527 -2.1033 -0.7499 -0.8708
12857TIP3   OH259985   5.722   2.072   4.148  0.4177 -0.1840 -0.1581
12857TIP3    H159986   5.635   2.088   4.110  0.8278 -0.0573 -1.0622
12857TIP3    H259987   5.782   2.076   4.074  1.2151 -0.1847  0.4728
12858TIP3   OH259988   0.350   0.221   0.949  0.2019 -0.4332  0.1483
12858TIP3    H159989   0.291   0.205   0.875 -0.5211 -3.1335  1.1889
12858TIP3    H259990   0.295   0.266   1.013  0.5462  0.9714 -0.4956
12859TIP3   OH259991   6.504   3.317   5.291 -0.1144  0.5213 -0.4074
12859TIP3    H159992   6.409   3.311   5.282 -0.1744 -1.6079  0.7309
12859TIP3    H259993   6.520   3.297   5.384  1.4786 -0.3766 -0.8309
12860TIP3   OH259994   0.846   2.402  11.015 -0.5437  0.2751 -0.4274
12860TIP3    H159995   0.902   2.380  10.941 -1.7215 -1.2835 -0.8901
12860TIP3    H259996   0.766   2.437  10.976 -1.0346 -0.2252  0.1218
12861TIP3   OH259997   5.428   5.276   4.319  0.1757 -0.1429 -0.7294
12861TIP3    H159998   5.353   5.232   4.360 -0.3162 -0.0284 -1.4880
12861TIP3    H259999   5.389   5.339   4.258  0.8847  0.9600 -0.0615
12862TIP3   OH260000   0.885   6.475  10.870  0.0903 -0.4015  0.1601
12862TIP3    H160001   0.827   6.528  10.815  1.4215 -0.3449 -1.2649
12862TIP3    H260002   0.880   6.517  10.957  0.3469  1.5041 -0.6802
12863TIP3   OH260003   1.879   0.505  14.165  0.9448  0.3352  0.2803
12863TIP3    H160004   1.817   0.443  14.202  0.9646 -0.3678 -0.8269
12863TIP3    H260005   1.855   0.589  14.204 -0.3284 -0.0239  0.3078
12864TIP3   OH260006   1.342   2.921   6.178 -0.0589 -0.1000  0.0858
12864TIP3    H160007   1.301   2.983   6.118  0.4704 -0.5164 -0.7297
12864TIP3    H260008   1.304   2.941   6.264 -1.1107  0.2609 -0.4490
12865TIP3   OH260009   2.568   5.735   1.127 -0.1810  0.3092  0.1509
12865TIP3    H160010   2.563   5.646   1.162 -0.8137  0.1892 -0.2313
12865TIP3    H260011   2.511   5.786   1.184 -0.6326  0.2596 -0.2476
12866TIP3   OH260012   6.190   2.198  16.768  0.5873 -0.1027 -0.4246
12866TIP3    H160013   6.247   2.194  16.845  1.9723 -2.9634 -1.4642
12866TIP3    H260014   6.105   2.166  16.799 -0.1967  2.7661  0.7785
12867TIP3   OH260015   5.179   6.350   0.845  0.0755 -0.1744 -0.5536
12867TIP3    H160016   5.170   6.387   0.933 -1.8439 -0.7573 -0.4765
12867TIP3    H260017   5.222   6.420   0.795 -0.6083  0.9386  0.3581
12868TIP3   OH260018   3.885   5.721  14.502  0.0414 -0.0947 -0.0766
12868TIP3    H160019   3.919   5.792  14.557 -1.4345 -0.0725  0.8536
12868TIP3    H260020   3.895   5.753  14.413  0.2166  0.9004  0.2872
12869TIP3   OH260021   6.220   0.940  11.226 -0.0202  0.3649  0.0684
12869TIP3    H160022   6.311   0.916  11.210  0.2469  0.7469  0.9853
12869TIP3    H260023   6.170   0.878  11.174  0.7867  1.5985 -2.3551
12870TIP3   OH260024   1.436   0.174   0.336 -0.1001 -0.3752  0.0778
12870TIP3    H160025   1.436   0.241   0.268 -1.2402  0.2465  0.6621
12870TIP3    H260026   1.503   0.201   0.397  0.2877 -0.4371 -0.3173
12871TIP3   OH260027   0.574   5.772  12.081  0.0470  0.0843  0.4271
12871TIP3    H160028   0.634   5.703  12.108 -2.2978 -3.5655 -2.6266
12871TIP3    H260029   0.493   5.753  12.128 -0.7126  0.5991 -0.6418
12872TIP3   OH260030   3.761   6.627   1.149 -0.2734 -0.0053 -0.6307
12872TIP3    H160031   3.747   6.597   1.239  2.8335  1.6823  0.5662
12872TIP3    H260032   3.796   6.550   1.104  1.5648 -0.0063  0.6637
12873TIP3   OH260033   1.816   3.683  15.096  0.1519 -0.0378 -0.1924
12873TIP3    H160034   1.799   3.688  15.190 -1.5318  1.0666 -0.5157
12873TIP3    H260035   1.758   3.613  15.065 -0.6182  0.7820 -0.6496
12874TIP3   OH260036   6.431   2.946   0.904 -0.6775 -0.2568 -0.2823
12874TIP3    H160037   6.495   2.920   0.838  0.6614  1.6193  0.1881
12874TIP3    H260038   6.459   2.900   0.984 -0.0462  0.3777 -0.1345
12875TIP3   OH260039   4.305   3.495   5.121 -0.0413 -0.4730  0.1443
12875TIP3    H160040   4.306   3.590   5.119 -1.6869 -0.4379 -1.2330
12875TIP3    H260041   4.221   3.472   5.161  0.0750 -1.3428 -0.0764
12876TIP3   OH260042   1.053   5.069  14.649  0.1923  0.0594  0.0155
12876TIP3    H160043   1.004   5.140  14.608 -0.0953  0.4028  0.9064
12876TIP3    H260044   1.009   4.989  14.620 -0.1294  0.3046 -0.1782
12877TIP3   OH260045   4.044   4.309  13.460  0.0157  0.4757  0.0757
12877TIP3    H160046   3.987   4.232  13.471  0.3808  0.3686  1.3131
12877TIP3    H260047   4.044   4.351  13.545  0.2037  1.6014 -0.4709
12878TIP3   OH260048   2.392   1.118   2.421  0.3535 -0.9272  0.0901
12878TIP3    H160049   2.426   1.207   2.435  1.6238 -1.3014 -0.4466
12878TIP3    H260050   2.315   1.113   2.477  1.0128  0.0890  1.1529
12879TIP3   OH260051   0.275   3.481  11.059  0.1844  0.7363  0.3966
12879TIP3    H160052   0.311   3.405  11.105  0.7113  1.0578  0.5225
12879TIP3    H260053   0.348   3.543  11.054  0.4366  0.3413 -1.7399
12880TIP3   OH260054   4.290   6.640   0.864  0.0719 -0.3335  0.6985
12880TIP3    H160055   4.335   6.723   0.850  0.2191 -0.8388 -2.5581
12880TIP3    H260056   4.201   6.664   0.889  0.6009  0.7355  1.6369
12881TIP3   OH260057   5.864   1.361   4.259  0.0291 -0.2488 -0.1066
12881TIP3    H160058   5.829   1.345   4.347 -0.3286  0.6810 -0.0723
12881TIP3    H260059   5.818   1.439   4.229 -1.8643 -2.0134 -2.1899
12882TIP3   OH260060   2.098   2.715   5.431  0.0151 -0.2329  0.3012
12882TIP3    H160061   2.062   2.801   5.409  0.4057 -0.3621 -0.9664
12882TIP3    H260062   2.024   2.655   5.422 -0.1094 -0.1177  0.5536
12883TIP3   OH260063   1.640   3.613  14.279 -0.3298  0.5041  0.2078
12883TIP3    H160064   1.572   3.662  14.233  0.7075  0.0284 -1.9500
12883TIP3    H260065   1.721   3.642  14.239  0.6398 -0.0535  1.6917
12884TIP3   OH260066   0.313   3.820  13.857 -0.7942 -0.6445  0.0726
12884TIP3    H160067   0.405   3.792  13.856 -0.1652  1.1888 -1.5562
12884TIP3    H260068   0.307   3.880  13.931 -0.3485  0.1281 -0.5059
12885TIP3   OH260069   3.257   0.129  16.263 -0.5238  0.1350  0.1602
12885TIP3    H160070   3.214   0.198  16.314 -0.1254  0.3080  0.2652
12885TIP3    H260071   3.204   0.121  16.184 -0.7637  0.3256  0.3026
12886TIP3   OH260072   1.518   6.248   3.632  0.6573 -0.4932 -0.7235
12886TIP3    H160073   1.566   6.288   3.705  0.2084  1.1189 -1.2538
12886TIP3    H260074   1.493   6.161   3.663 -0.0281  0.3669  1.2752
12887TIP3   OH260075   1.841   6.412  16.500  0.2177  0.1382  0.5018
12887TIP3    H160076   1.866   6.471  16.429  2.1399 -0.1407  0.8713
12887TIP3    H260077   1.837   6.325  16.458  0.0679  0.1589  0.4747
12888TIP3   OH260078   0.676   1.308  14.023 -0.5148 -0.1552  0.7914
12888TIP3    H160079   0.751   1.297  14.083 -0.4525  1.7498  1.1250
12888TIP3    H260080   0.670   1.224  13.977  0.3795 -1.1611  2.3909
12889TIP3   OH260081   3.886   1.468  15.677 -0.0438 -0.2677  0.1991
12889TIP3    H160082   3.819   1.457  15.610 -0.3359  1.5494  0.1408
12889TIP3    H260083   3.955   1.520  15.635  1.8074 -2.7085  0.0372
12890TIP3   OH260084   1.257   2.692  12.010  0.2848 -0.4374  0.0299
12890TIP3    H160085   1.233   2.764  11.951 -2.3602 -0.8797  0.4302
12890TIP3    H260086   1.230   2.613  11.963  3.4018 -1.3153 -0.5303
12891TIP3   OH260087   4.049   1.440  13.493 -0.0153  0.7313 -0.2841
12891TIP3    H160088   4.058   1.462  13.585 -1.2838 -1.1353  0.3684
12891TIP3    H260089   4.024   1.522  13.450  1.4131  1.8054  0.8566
12892TIP3   OH260090   1.696   2.074   6.104 -0.1555  0.1042  0.0830
12892TIP3    H160091   1.620   2.123   6.136 -0.5103 -0.3765  0.0032
12892TIP3    H260092   1.771   2.131   6.119 -0.6249  0.8768 -0.4804
12893TIP3   OH260093   4.854   3.395   3.241  0.5726  0.1567  0.9426
12893TIP3    H160094   4.797   3.344   3.184 -0.5304  1.2487  1.0170
12893TIP3    H260095   4.877   3.472   3.188  0.4688  0.6151  1.5565
12894TIP3   OH260096   4.068   5.022   1.275  0.6230 -0.1156  0.0397
12894TIP3    H160097   3.993   5.031   1.217  1.6100 -0.1796 -1.3103
12894TIP3    H260098   4.037   5.050   1.360 -0.7579  0.4287 -0.6183
12895TIP3   OH260099   2.480   0.764   3.593  0.2374  0.1312  0.4837
12895TIP3    H160100   2.400   0.717   3.569 -0.7218  0.3560  2.9359
12895TIP3    H260101   2.544   0.696   3.612  0.1924 -0.0731 -0.0770
12896TIP3   OH260102   2.734   3.020  14.847 -0.6357 -0.5609 -0.5086
12896TIP3    H160103   2.685   2.938  14.855 -1.1522 -0.3441 -1.3088
12896TIP3    H260104   2.728   3.042  14.754 -0.9322  0.6549 -0.2155
12897TIP3   OH260105   5.432   3.056  13.827  0.4938  0.1074  0.1009
12897TIP3    H160106   5.363   3.122  13.818  1.4958  1.4337  1.6450
12897TIP3    H260107   5.506   3.091  13.777  0.5320 -0.5994 -0.3464
12898TIP3   OH260108   5.950   3.032  14.130  0.7241 -0.0267 -0.6359
12898TIP3    H160109   5.860   3.012  14.155  0.9911  1.8338  2.3415
12898TIP3    H260110   6.000   2.955  14.159  0.5076  0.5360  1.4491
12899TIP3   OH260111   4.538   2.159  15.338 -0.2610  0.3355  0.0109
12899TIP3    H160112   4.582   2.183  15.420  0.4904  1.4266 -0.6814
12899TIP3    H260113   4.583   2.080  15.309  2.3284  2.1885 -1.4071
12900TIP3   OH260114   6.039   4.678   5.624 -0.1814 -0.3681 -0.3091
12900TIP3    H160115   5.951   4.673   5.660  0.4234  0.0666  1.3175
12900TIP3    H260116   6.027   4.704   5.533 -1.8189 -2.3214 -0.7157
12901TIP3   OH260117   0.841   6.094   3.391 -0.6744  0.4029  0.1343
12901TIP3    H160118   0.766   6.049   3.430 -0.6339 -0.9057 -1.2265
12901TIP3    H260119   0.802   6.168   3.343 -1.2249 -0.7577 -1.2776
12902TIP3   OH260120   2.273   5.428  16.629 -0.1504 -0.4682  0.6975
12902TIP3    H160121   2.345   5.491  16.628 -0.0014 -0.6386  0.7707
12902TIP3    H260122   2.197   5.480  16.654 -0.0911 -0.2468  0.4175
12903TIP3   OH260123   1.703   1.334  13.689 -0.8461  0.2177 -0.0035
12903TIP3    H160124   1.676   1.358  13.778  0.3861 -1.6270  0.9365
12903TIP3    H260125   1.720   1.418  13.646  1.3241  1.1821  2.4495
12904TIP3   OH260126   2.707   4.557  11.628 -0.3533  0.1343  0.6329
12904TIP3    H160127   2.725   4.611  11.551  1.2438 -0.5014  0.5095
12904TIP3    H260128   2.623   4.516  11.610 -0.3362  0.5498 -0.4547
12905TIP3   OH260129   0.311   5.694  16.492  0.1356 -0.1140 -0.5935
12905TIP3    H160130   0.272   5.781  16.499  0.9402  0.1854  0.2919
12905TIP3    H260131   0.402   5.705  16.519  0.7825 -0.8703 -2.2750
12906TIP3   OH260132   3.426   0.297  17.147 -0.2879  0.1277 -0.1421
12906TIP3    H160133   3.378   0.325  17.069 -1.1878 -2.1852 -0.4775
12906TIP3    H260134   3.428   0.375  17.203 -1.9850  1.0800 -1.3291
12907TIP3   OH260135   5.629   0.693  13.967 -0.3404 -0.2073 -0.5360
12907TIP3    H160136   5.716   0.668  13.937 -0.3152 -0.5351 -0.1950
12907TIP3    H260137   5.596   0.752  13.899  1.3379  2.3756  0.6967
12908TIP3   OH260138   0.304   3.297   4.111  0.0690  0.4775 -0.1020
12908TIP3    H160139   0.258   3.214   4.125  0.4203  0.2265 -0.4238
12908TIP3    H260140   0.240   3.351   4.065 -0.0413  0.2647 -0.2056
12909TIP3   OH260141   5.453   4.141  11.025 -0.0567 -0.2519  0.0069
12909TIP3    H160142   5.409   4.116  10.944  0.4717 -0.7892 -0.1200
12909TIP3    H260143   5.410   4.223  11.051 -1.1416 -0.7574 -0.1072
12910TIP3   OH260144   3.066   1.790  14.895  0.4373  0.0566  0.0921
12910TIP3    H160145   3.041   1.745  14.976 -0.2371 -1.4600 -0.9226
12910TIP3    H260146   2.983   1.803  14.849  0.7604  1.3485 -0.1620
12911TIP3   OH260147   5.388   4.583   1.673  0.1144  1.1907 -0.6604
12911TIP3    H160148   5.365   4.628   1.754  0.1389 -2.8632  1.9062
12911TIP3    H260149   5.316   4.522   1.658  1.2380  0.1831 -2.3333
12912TIP3   OH260150   0.133   3.671   4.435 -0.1073  0.0642 -0.1913
12912TIP3    H160151   0.189   3.595   4.421 -1.5320 -1.4332  1.6318
12912TIP3    H260152   0.099   3.660   4.524 -1.8077  1.8714 -0.5308
12913TIP3   OH260153   1.233   5.184  13.098 -0.2872 -0.1396  0.3081
12913TIP3    H160154   1.300   5.218  13.038 -2.1906 -0.3037 -2.0774
12913TIP3    H260155   1.261   5.095  13.118 -0.5215 -0.7966 -1.9856
12914TIP3   OH260156   2.095   3.556  13.454  0.0229 -0.1386 -0.3964
12914TIP3    H160157   2.042   3.578  13.531  0.7640 -0.7379  0.3042
12914TIP3    H260158   2.173   3.611  13.461  0.1550 -0.2908 -0.6399
12915TIP3   OH260159   0.364   3.074  15.706  0.1612 -0.5127 -0.0383
12915TIP3    H160160   0.367   2.981  15.685 -0.2003 -0.7233  0.8235
12915TIP3    H260161   0.293   3.109  15.653  1.2424 -0.4196 -1.4928
12916TIP3   OH260162   3.602   1.499  10.859 -0.3662 -0.2183  0.0857
12916TIP3    H160163   3.674   1.555  10.828  0.2253 -1.5178 -1.0059
12916TIP3    H260164   3.524   1.536  10.819 -0.2468  0.8334  0.7733
12917TIP3   OH260165   0.863   0.224  17.316 -0.0610 -0.3774  0.5353
12917TIP3    H160166   0.817   0.307  17.307  1.4391  0.4313  0.0061
12917TIP3    H260167   0.814   0.163  17.260 -0.9752  0.2185  0.6739
12918TIP3   OH260168   4.273   2.279   5.413 -0.4246  0.2934 -0.0386
12918TIP3    H160169   4.323   2.251   5.336  0.1958 -0.2706  0.5640
12918TIP3    H260170   4.229   2.200   5.443 -0.8691  0.5673  0.0397
12919TIP3   OH260171   6.340   5.579  10.829 -0.0234 -0.9391  0.3916
12919TIP3    H160172   6.351   5.576  10.924  1.2813  0.5207  0.3363
12919TIP3    H260173   6.248   5.603  10.816 -0.1402 -0.8550  1.2924
12920TIP3   OH260174   3.602   6.024   5.296 -0.3320 -0.1405 -0.7228
12920TIP3    H160175   3.678   5.971   5.322 -0.2358  0.7226  0.9160
12920TIP3    H260176   3.638   6.112   5.285 -1.5146  1.2182  3.9051
12921TIP3   OH260177   6.076   2.764  17.094 -0.0145  0.1663  0.2125
12921TIP3    H160178   6.086   2.857  17.113 -1.8158  0.5282 -0.4072
12921TIP3    H260179   6.101   2.755  17.002  1.2526 -0.1923  0.5717
12922TIP3   OH260180   3.864   0.505  16.816  0.0916 -0.1503 -0.0406
12922TIP3    H160181   3.908   0.570  16.761  0.1299  0.0632  0.2401
12922TIP3    H260182   3.924   0.492  16.890 -0.7491  0.8689  0.8475
12923TIP3   OH260183   1.656   2.850  14.117  0.3192  0.0439 -0.0719
12923TIP3    H160184   1.645   2.796  14.039 -0.6758 -1.2369  0.9016
12923TIP3    H260185   1.731   2.811  14.163 -0.2276 -0.3569  0.4948
12924TIP3   OH260186   5.747   0.541   3.347  0.1079  0.5109 -0.1265
12924TIP3    H160187   5.755   0.601   3.273 -1.3757  1.0004  0.0911
12924TIP3    H260188   5.685   0.583   3.406 -1.7876 -1.6753 -0.4341
12925TIP3   OH260189   1.240   3.352  15.268  0.1767 -0.2422  0.6425
12925TIP3    H160190   1.180   3.288  15.230 -0.5347 -0.4908  2.1197
12925TIP3    H260191   1.318   3.348  15.212  0.1836 -2.4258  0.7367
12926TIP3   OH260192   2.947   0.635   5.657 -0.3472 -0.3127 -0.3398
12926TIP3    H160193   2.946   0.613   5.750 -0.6561  0.6469 -0.1023
12926TIP3    H260194   2.886   0.573   5.617 -0.5554 -0.4436  0.1709
12927TIP3   OH260195   3.890   6.092  12.462 -0.4437  0.6432 -0.0589
12927TIP3    H160196   3.898   6.019  12.400  1.4095 -0.0861  0.9695
12927TIP3    H260197   3.912   6.170  12.412  1.8320 -0.0293 -0.1775
12928TIP3   OH260198   0.805   1.056  12.474 -0.1260 -0.3436  0.4777
12928TIP3    H160199   0.855   1.018  12.546  0.9403 -0.7558 -0.4546
12928TIP3    H260200   0.801   0.987  12.408 -2.2448 -0.4528  0.6360
12929TIP3   OH260201   5.296   5.201   0.749  0.0202 -0.7635  0.0540
12929TIP3    H160202   5.298   5.120   0.697 -2.4102 -0.4921 -0.6170
12929TIP3    H260203   5.378   5.201   0.797  1.8178 -1.7153 -2.7858
12930TIP3   OH260204   4.374   5.853   4.782 -0.5216 -0.6137  0.4874
12930TIP3    H160205   4.309   5.891   4.723 -2.1791 -1.0171  1.9652
12930TIP3    H260206   4.422   5.928   4.817  0.6147 -0.3725 -1.3999
12931TIP3   OH260207   4.041   4.470   1.971 -0.2689 -0.3955 -0.3537
12931TIP3    H160208   4.074   4.429   2.052  0.7432  0.7556 -0.1460
12931TIP3    H260209   3.947   4.478   1.985 -0.2961 -1.4088  0.1523
12932TIP3   OH260210   4.734   6.136  15.399  1.0431 -0.4196 -0.2246
12932TIP3    H160211   4.720   6.226  15.372  0.0168 -0.5911 -0.2800
12932TIP3    H260212   4.808   6.141  15.460 -0.4132  0.7856  1.5574
12933TIP3   OH260213   6.393   6.689  12.905  0.4394 -0.2487  0.1302
12933TIP3    H160214   6.488   6.678  12.903  0.4300 -0.2056 -1.0316
12933TIP3    H260215   6.373   6.708  12.997  1.8406  2.3308 -0.0140
12934TIP3   OH260216   3.920   4.560   0.270  0.6063  0.2467  0.2572
12934TIP3    H160217   3.989   4.527   0.212  0.6091  0.3698  0.1897
12934TIP3    H260218   3.856   4.600   0.210 -0.6227 -1.7903  0.1220
12935TIP3   OH260219   6.726   5.143  12.452 -0.5997  0.1432  0.0388
12935TIP3    H160220   6.693   5.167  12.366 -1.3567  1.3330  0.6353
12935TIP3    H260221   6.671   5.069  12.480 -0.4147 -0.1813 -0.4417
12936TIP3   OH260222   1.945   3.138   4.760 -0.6044 -0.4518 -0.3519
12936TIP3    H160223   2.040   3.125   4.759 -0.6579 -0.8718 -0.5643
12936TIP3    H260224   1.921   3.150   4.668 -0.5104  1.7165 -0.1326
12937TIP3   OH260225   4.205   5.211  16.342  0.3522 -0.0577 -0.4013
12937TIP3    H160226   4.165   5.296  16.323  0.4549 -0.1519 -1.0912
12937TIP3    H260227   4.288   5.213  16.294  0.4411 -0.4702 -0.2673
12938TIP3   OH260228   4.482   5.180   3.096 -0.2195 -0.0210 -0.1172
12938TIP3    H160229   4.463   5.205   3.186 -0.2060 -0.9985  0.1647
12938TIP3    H260230   4.572   5.209   3.082 -0.5057  0.9126 -0.1125
12939TIP3   OH260231   2.053   3.737   5.082  0.0983  0.3878 -0.1137
12939TIP3    H160232   2.007   3.764   5.161  1.3539  1.4716  0.2896
12939TIP3    H260233   2.053   3.641   5.085  1.4943  0.3881  2.0765
12940TIP3   OH260234   1.626   6.435  11.229 -0.4879 -0.6730  0.4990
12940TIP3    H160235   1.694   6.387  11.182 -0.1198  1.5297 -1.4168
12940TIP3    H260236   1.560   6.454  11.162 -1.3042  0.2098  1.5216
12941TIP3   OH260237   1.280   3.651  10.988 -0.3317  0.2902 -0.3080
12941TIP3    H160238   1.224   3.578  10.963  0.4711 -0.3569 -0.2657
12941TIP3    H260239   1.233   3.695  11.058  0.2535 -1.6848  1.4487
12942TIP3   OH260240   6.461   4.918   0.024 -0.1030 -0.1988 -0.0129
12942TIP3    H160241   6.472   4.823   0.031 -0.3596 -0.1781  0.8359
12942TIP3    H260242   6.506   4.941  -0.057  0.7597 -0.9278  0.2355
12943TIP3   OH260243   4.749   1.969  14.864  0.1983  0.2277  0.3202
12943TIP3    H160244   4.840   1.998  14.877  1.1124  0.1742 -4.2527
12943TIP3    H260245   4.751   1.875  14.884  1.6446 -0.1054 -1.1384
12944TIP3   OH260246   5.841   3.559   2.597  0.0270  0.1292  0.2608
12944TIP3    H160247   5.765   3.557   2.655  0.7721 -1.6714  1.2688
12944TIP3    H260248   5.916   3.564   2.657  0.7561  1.8558 -0.7044
12945TIP3   OH260249   6.235   0.925  17.138  0.3103  0.2281  0.3250
12945TIP3    H160250   6.294   0.850  17.137 -0.1862 -0.2121  1.5618
12945TIP3    H260251   6.266   0.979  17.211 -0.8037 -0.0340  1.0260
12946TIP3   OH260252   5.733   2.586  12.213 -0.1077 -0.3560  0.2310
12946TIP3    H160253   5.752   2.549  12.127  0.3182 -0.9617  0.5737
12946TIP3    H260254   5.647   2.626  12.204 -0.5165 -1.3151 -0.1954
12947TIP3   OH260255   0.714   2.142  11.139  0.1089 -0.5047 -0.4276
12947TIP3    H160256   0.766   2.063  11.151 -1.2584 -1.3634  0.1267
12947TIP3    H260257   0.654   2.120  11.067  1.2121  0.8630 -1.8428
12948TIP3   OH260258   3.111   5.310  17.143 -1.1102 -0.3038 -0.4717
12948TIP3    H160259   3.161   5.233  17.169 -1.4918 -1.0016 -1.7112
12948TIP3    H260260   3.025   5.298  17.182 -0.7261  0.2593  0.5876
12949TIP3   OH260261   5.103   6.460  12.729 -0.0472  0.0556 -0.4262
12949TIP3    H160262   5.024   6.514  12.738  0.4890  0.9607 -0.9329
12949TIP3    H260263   5.173   6.515  12.765 -0.0184 -1.8473  2.7713
12950TIP3   OH260264   5.544   0.960   3.834 -0.2969  1.2133  0.2170
12950TIP3    H160265   5.558   0.912   3.752  0.0176 -0.1936  1.0654
12950TIP3    H260266   5.450   0.950   3.851 -0.4671  1.9765 -0.2443
12951TIP3   OH260267   6.253   6.697  12.082  0.3888 -0.0777 -0.9926
12951TIP3    H160268   6.165   6.664  12.061  1.3209 -1.7768 -2.6268
12951TIP3    H260269   6.299   6.621  12.118  0.6540  1.3073  1.8566
12952TIP3   OH260270   6.001   6.550  15.159  0.5890 -0.8980  0.9706
12952TIP3    H160271   5.981   6.462  15.192  2.0276 -2.1189 -1.1322
12952TIP3    H260272   6.092   6.544  15.130 -0.0016  0.5218 -1.4922
12953TIP3   OH260273   5.161   5.766   1.449 -0.1052 -0.3292  0.5717
12953TIP3    H160274   5.197   5.743   1.364 -0.3441 -0.0828  0.4022
12953TIP3    H260275   5.094   5.700   1.466  1.2641 -1.5669  1.4705
12954TIP3   OH260276   0.885   0.879   4.172 -0.4615  0.4672 -0.4147
12954TIP3    H160277   0.919   0.821   4.240 -1.1629  0.6608  0.1199
12954TIP3    H260278   0.929   0.962   4.188  1.6394 -0.2375 -2.0669
12955TIP3   OH260279   4.140   1.671  14.856 -0.0497  0.3350  0.0466
12955TIP3    H160280   4.110   1.589  14.896 -2.4556  1.4140  0.6638
12955TIP3    H260281   4.103   1.669  14.768 -2.2747  1.7327  0.8508
12956TIP3   OH260282   1.043   4.943   3.129 -0.5933 -0.5927 -0.1890
12956TIP3    H160283   1.108   4.942   3.198 -0.5403 -1.1940 -0.2403
12956TIP3    H260284   1.015   5.034   3.123  0.7031 -0.2067 -0.6052
12957TIP3   OH260285   5.597   2.152   3.040 -0.3269 -0.0066  0.9167
12957TIP3    H160286   5.548   2.092   2.984 -2.2241  1.1175  1.3149
12957TIP3    H260287   5.577   2.239   3.007  3.6263  0.5005 -0.6517
12958TIP3   OH260288   3.598   3.988  15.966 -0.6002 -0.1968  0.3289
12958TIP3    H160289   3.527   4.009  16.028  0.4219  0.8857  1.1831
12958TIP3    H260290   3.626   3.900  15.992  0.6930  0.7342  2.3546
12959TIP3   OH260291   5.283   0.912  11.108  0.6348  0.0599  0.1293
12959TIP3    H160292   5.279   0.910  11.203 -1.3997  1.4126  0.1503
12959TIP3    H260293   5.191   0.911  11.080  0.7642  5.1179 -1.5184
12960TIP3   OH260294   2.348   4.267   1.148 -0.3123 -0.2320 -0.0320
12960TIP3    H160295   2.393   4.290   1.066 -0.9869 -0.9962 -0.6281
12960TIP3    H260296   2.413   4.284   1.216  0.4394 -0.0777 -0.7723
12961TIP3   OH260297   1.335   1.601   0.745 -0.0983  0.6910  0.0723
12961TIP3    H160298   1.264   1.601   0.809 -0.0261  1.9376  0.1785
12961TIP3    H260299   1.315   1.528   0.687 -0.0234 -0.6343  1.6602
12962TIP3   OH260300   0.594   4.214   3.639 -0.0216  0.4598 -0.0036
12962TIP3    H160301   0.674   4.203   3.691 -0.4126  2.0399  1.0070
12962TIP3    H260302   0.623   4.207   3.548  1.1447  0.2541  0.3692
12963TIP3   OH260303   4.309   6.163   3.472  0.0768 -0.9152 -0.2519
12963TIP3    H160304   4.259   6.201   3.545  1.2791 -0.8514  0.5620
12963TIP3    H260305   4.251   6.173   3.396 -0.9951 -0.5174  0.5862
12964TIP3   OH260306   0.136   3.869  15.311  0.0673  0.3758 -0.6149
12964TIP3    H160307   0.215   3.893  15.358  0.4251 -1.7424 -0.0451
12964TIP3    H260308   0.161   3.795  15.255 -1.4517 -0.2465 -0.5406
12965TIP3   OH260309   5.366   1.004   1.415  0.5844  0.1793 -0.4146
12965TIP3    H160310   5.274   1.026   1.400  0.3327 -1.6604 -1.9749
12965TIP3    H260311   5.376   0.916   1.378  2.2981 -0.8984  2.3148
12966TIP3   OH260312   1.467   3.124  12.000 -0.1278 -0.0795  0.1263
12966TIP3    H160313   1.430   3.159  11.919  0.4470  0.3632  0.0505
12966TIP3    H260314   1.484   3.201  12.054  2.2141 -0.0925 -0.4906
12967TIP3   OH260315   4.172   5.576   2.727 -0.1457 -0.6964  0.1378
12967TIP3    H160316   4.246   5.515   2.722  0.7368  0.4434 -1.6876
12967TIP3    H260317   4.103   5.535   2.676  0.2142 -0.5110 -0.5133
12968TIP3   OH260318   6.721   0.354   5.451  0.3793 -1.1358  0.0278
12968TIP3    H160319   6.691   0.367   5.541 -0.9422 -0.6384 -0.4566
12968TIP3    H260320   6.725   0.442   5.414  0.4628 -1.3681 -0.5262
12969TIP3   OH260321   2.403   0.806   0.517 -0.0245  0.3245  0.2106
12969TIP3    H160322   2.442   0.885   0.481 -1.0982  0.5970 -0.3883
12969TIP3    H260323   2.453   0.789   0.597  1.3809  0.5772 -0.5803
12970TIP3   OH260324   6.563   0.450   0.236 -0.1631 -0.1043  0.1442
12970TIP3    H160325   6.506   0.374   0.226  0.9643 -1.2340  1.8068
12970TIP3    H260326   6.652   0.414   0.231  0.4113  0.8550  2.3140
12971TIP3   OH260327   4.511   2.711   4.781 -0.1258  0.2922  0.0440
12971TIP3    H160328   4.460   2.710   4.861 -1.1788  1.7311 -0.5710
12971TIP3    H260329   4.574   2.782   4.794  0.3412 -0.0989 -0.0386
12972TIP3   OH260330   5.420   6.415  17.285 -0.1743 -0.3214  0.3704
12972TIP3    H160331   5.324   6.422  17.282 -0.0775  1.3620  0.5973
12972TIP3    H260332   5.438   6.329  17.246 -1.6543  0.3487 -2.0301
12973TIP3   OH260333   1.223   3.079  15.802 -0.3672 -0.1749  0.8970
12973TIP3    H160334   1.258   3.106  15.888 -0.1994  1.6276  0.3175
12973TIP3    H260335   1.134   3.115  15.801 -0.3578 -0.1641  0.3201
12974TIP3   OH260336   0.900   1.163   6.316  0.0396  0.1506 -0.1631
12974TIP3    H160337   0.899   1.182   6.410  1.6613 -0.7256  0.0609
12974TIP3    H260338   0.840   1.227   6.278  1.0017  1.9398  1.2099
12975TIP3   OH260339   6.640   0.244   0.728 -0.5411  0.1242 -0.3071
12975TIP3    H160340   6.590   0.322   0.705 -0.0992  0.2247 -0.9828
12975TIP3    H260341   6.731   0.270   0.714 -0.3160 -0.1405  0.6309
12976TIP3   OH260342   4.739   4.233  11.006  0.0892  0.4097 -0.5836
12976TIP3    H160343   4.646   4.251  11.019  0.5307  1.7657  1.0937
12976TIP3    H260344   4.749   4.142  11.034 -0.0360  1.5638  4.2406
12977TIP3   OH260345   0.981   0.637  15.328 -0.1120  0.0976  0.2384
12977TIP3    H160346   1.049   0.659  15.264 -1.3101  0.0550 -1.1104
12977TIP3    H260347   1.017   0.665  15.412  0.9356  1.5420 -0.6414
12978TIP3   OH260348   5.052   1.297   5.858  0.3284 -0.0176  0.1233
12978TIP3    H160349   5.090   1.267   5.776 -1.8235  0.4822 -1.1185
12978TIP3    H260350   5.007   1.220   5.893 -2.1164  0.6851 -1.2418
12979TIP3   OH260351   6.191   2.997  14.450 -0.0759 -0.1890  0.2623
12979TIP3    H160352   6.221   3.075  14.496 -1.7592 -0.7975  2.6016
12979TIP3    H260353   6.264   2.935  14.456  1.4947  1.2638 -2.1116
12980TIP3   OH260354   5.984   0.490   1.567 -0.0064 -0.4072 -0.1166
12980TIP3    H160355   6.045   0.420   1.587 -0.5520 -0.8514  0.0243
12980TIP3    H260356   6.039   0.565   1.547  0.5778 -0.6059  0.7012
12981TIP3   OH260357   1.659   4.452  12.924 -0.7985 -0.2574 -0.2812
12981TIP3    H160358   1.623   4.400  12.852  0.3963 -1.8963  0.2307
12981TIP3    H260359   1.726   4.395  12.963  0.6187  1.7099  0.2969
12982TIP3   OH260360   2.924   0.360  12.428  0.0551 -0.2456  0.5297
12982TIP3    H160361   2.886   0.272  12.420  0.3696 -0.4388  1.0874
12982TIP3    H260362   2.949   0.383  12.339 -1.2216 -0.1749  0.1729
12983TIP3   OH260363   2.798   2.220  12.196 -0.0936 -1.3856  0.1010
12983TIP3    H160364   2.880   2.171  12.198 -0.1844 -1.5748 -0.5220
12983TIP3    H260365   2.822   2.308  12.168 -0.2793 -1.8451 -1.5970
12984TIP3   OH260366   0.145   1.789   4.574 -0.1720 -0.3835  0.2999
12984TIP3    H160367   0.160   1.847   4.500 -2.0789  0.2758  0.3961
12984TIP3    H260368   0.160   1.701   4.539 -1.1797 -0.0887 -0.9099
12985TIP3   OH260369   2.296   0.559  13.675  0.3266  0.5243  0.0701
12985TIP3    H160370   2.381   0.529  13.643  0.3966  0.1850  0.5545
12985TIP3    H260371   2.238   0.485  13.662  0.3437  0.4017  0.6628
12986TIP3   OH260372   3.584   4.194  13.083 -0.4322 -0.7593 -0.6167
12986TIP3    H160373   3.568   4.254  13.156 -1.8645 -1.0873 -0.6238
12986TIP3    H260374   3.676   4.168  13.093  0.0998  1.0617 -0.3599
12987TIP3   OH260375   3.534   5.383   3.094 -0.2771 -0.9993 -0.3149
12987TIP3    H160376   3.599   5.375   3.164 -0.2724 -1.0234 -0.3220
12987TIP3    H260377   3.529   5.478   3.078 -1.3054 -0.8551  0.6878
12988TIP3   OH260378   3.203   5.733  13.541 -0.5834 -0.6116  0.0376
12988TIP3    H160379   3.188   5.717  13.634 -0.9125 -0.3003  0.0386
12988TIP3    H260380   3.290   5.774  13.538 -1.3756  1.1905  0.4022
12989TIP3   OH260381   0.270   6.482   4.040  0.0280 -0.3399  0.4596
12989TIP3    H160382   0.300   6.550   4.100  0.7071  0.5924 -0.8913
12989TIP3    H260383   0.196   6.521   3.994 -0.1452 -0.8423  0.3080
12990TIP3   OH260384   2.174   4.500   3.957  0.3644 -0.1776 -0.1721
12990TIP3    H160385   2.269   4.507   3.956  0.4042 -0.5851  0.5775
12990TIP3    H260386   2.157   4.407   3.969 -0.0950  0.1711  2.5052
12991TIP3   OH260387   4.483   0.032   3.957  0.7863  0.0637 -0.1026
12991TIP3    H160388   4.556   0.094   3.950  0.1839  0.6155 -2.2559
12991TIP3    H260389   4.504  -0.037   3.894 -2.2980  2.2542 -3.9829
12992TIP3   OH260390   3.198   3.409   4.296 -0.4150 -0.0934  0.2597
12992TIP3    H160391   3.177   3.497   4.264  1.2796 -0.6695 -2.7698
12992TIP3    H260392   3.132   3.352   4.255  0.4180 -0.5934 -0.4081
12993TIP3   OH260393   6.246   0.601   1.874 -0.1356  0.4571 -0.5308
12993TIP3    H160394   6.278   0.684   1.840 -1.7809  1.8688  1.1446
12993TIP3    H260395   6.314   0.573   1.935  0.0008  1.0724 -0.3960
12994TIP3   OH260396   1.007   0.107  13.949 -0.1125 -0.7068 -0.2887
12994TIP3    H160397   0.976   0.091  13.860  1.7765 -1.8771 -0.7845
12994TIP3    H260398   1.024   0.020  13.985  2.6342 -0.2051 -0.1301
12995TIP3   OH260399   4.529   3.504  14.769 -0.5132 -0.1285  0.0911
12995TIP3    H160400   4.497   3.445  14.701  0.6793 -1.2719  0.4721
12995TIP3    H260401   4.580   3.448  14.827  0.5996  1.2598  0.5208
12996TIP3   OH260402   1.649   6.264   0.439 -0.0967 -0.1389 -0.1324
12996TIP3    H160403   1.666   6.229   0.527 -1.4470  1.1268  0.6867
12996TIP3    H260404   1.715   6.223   0.383  1.3782 -0.2900  1.6292
12997TIP3   OH260405   4.402   4.387  14.821 -0.3067  0.2778  0.2390
12997TIP3    H160406   4.465   4.341  14.766 -0.9282 -1.2795  0.7942
12997TIP3    H260407   4.366   4.320  14.879 -2.0486  1.2337  0.3409
12998TIP3   OH260408   1.046   5.311   1.234 -0.2610  0.3517  0.1696
12998TIP3    H160409   1.119   5.299   1.174  0.1269  2.2465  0.1884
12998TIP3    H260410   0.971   5.329   1.178 -1.0072 -2.5451  0.1033
12999TIP3   OH260411   2.132   6.068  16.418 -0.6934 -0.3921  0.2570
12999TIP3    H160412   2.165   6.088  16.506 -0.9536 -1.0383  0.5084
12999TIP3    H260413   2.210   6.071  16.362 -0.7604  1.5808  0.2190
13000TIP3   OH260414   2.226   0.230  12.854 -0.0559 -0.0669  0.7827
13000TIP3    H160415   2.208   0.139  12.877  0.3590 -0.1909  0.6231
13000TIP3    H260416   2.192   0.281  12.929  2.1992 -0.5201  2.2153
13001TIP3   OH260417   0.440   1.132  17.102  0.0845 -0.7006 -0.2044
13001TIP3    H160418   0.400   1.093  17.024  0.0311  0.5384 -0.8230
13001TIP3    H260419   0.532   1.106  17.097  0.2316 -0.0670 -1.0811
13002TIP3   OH260420   0.082   3.052  17.398 -0.2126 -0.6073 -0.0588
13002TIP3    H160421   0.024   2.976  17.410 -3.9411  1.5350 -2.4290
13002TIP3    H260422   0.141   3.025  17.327 -1.0396 -1.5386 -0.4263
13003TIP3   OH260423   1.638   5.608  14.530  0.1805  0.2953 -0.4209
13003TIP3    H160424   1.607   5.698  14.541 -0.5268  0.1589 -1.2348
13003TIP3    H260425   1.565   5.553  14.557  0.2663 -0.0288 -0.8233
13004TIP3   OH260426   4.334   5.618   4.245  0.5368 -0.3072  0.2294
13004TIP3    H160427   4.239   5.623   4.257  0.7060  0.3000  1.4371
13004TIP3    H260428   4.365   5.708   4.260  1.3596 -0.6116  0.4063
13005TIP3   OH260429   1.890   4.611   5.758  0.0977  0.0687  0.2755
13005TIP3    H160430   1.882   4.580   5.848 -0.5575 -0.1566  0.1454
13005TIP3    H260431   1.802   4.604   5.722  0.4561 -0.3894 -0.5600
13006TIP3   OH260432   6.094   4.178  12.507 -0.1547  0.1130  0.0133
13006TIP3    H160433   6.067   4.186  12.598  1.1900  1.2438  0.3459
13006TIP3    H260434   6.077   4.265  12.470  0.8125  0.1461 -0.3764
13007TIP3   OH260435   4.945   0.107  14.493 -0.6986 -0.2252  0.1188
13007TIP3    H160436   4.881   0.055  14.444 -0.8466  1.5462 -1.7448
13007TIP3    H260437   4.894   0.146  14.564 -0.7190 -2.0530  1.1449
13008TIP3   OH260438   2.228   4.744  12.122  0.7113  0.3172 -0.4300
13008TIP3    H160439   2.227   4.800  12.199  0.1223 -1.0851  0.6204
13008TIP3    H260440   2.321   4.740  12.098  0.7312  1.9935 -0.7580
13009TIP3   OH260441   5.922   3.853   3.956  0.3141  0.3019  0.2992
13009TIP3    H160442   5.985   3.872   4.026  0.9308 -1.3563  0.2498
13009TIP3    H260443   5.967   3.878   3.876  0.0339  1.1744  0.4038
13010TIP3   OH260444   5.722   0.568   1.547  0.6441 -0.1807  0.4944
13010TIP3    H160445   5.803   0.517   1.546  0.9778  0.2339  2.7277
13010TIP3    H260446   5.653   0.503   1.537  1.1872 -0.6807 -0.0953
13011TIP3   OH260447   3.799   3.957  14.804  0.3160  0.2772  0.2451
13011TIP3    H160448   3.704   3.965  14.800  0.4173  2.1938  0.9191
13011TIP3    H260449   3.822   3.988  14.891  1.6138  0.3272 -0.0969
13012TIP3   OH260450   5.935   6.623   6.668  0.0176 -0.3315  0.3086
13012TIP3    H160451   6.008   6.658   6.720  0.3579 -1.3685  0.5654
13012TIP3    H260452   5.910   6.695   6.610 -0.6700  1.0462  2.1856
13013TIP3   OH260453   6.709   4.383   4.993  0.2654  0.7560  0.4652
13013TIP3    H160454   6.726   4.433   4.913  1.0601 -2.6270 -1.6892
13013TIP3    H260455   6.616   4.358   4.987  0.9107 -1.6432 -0.8909
13014TIP3   OH260456   4.356   3.779   4.702 -0.2700 -0.2099 -0.2747
13014TIP3    H160457   4.341   3.830   4.781 -2.9775 -1.8541  0.4174
13014TIP3    H260458   4.449   3.789   4.685  0.4745  0.1617  3.1756
13015TIP3   OH260459   1.706   4.790  13.623 -0.5644 -0.5225  0.2575
13015TIP3    H160460   1.650   4.817  13.550  1.3094  1.0943 -0.6677
13015TIP3    H260461   1.758   4.868  13.644  1.3002 -1.9027  1.0958
13016TIP3   OH260462   6.599   4.974   3.560  0.1813  0.2471  0.5710
13016TIP3    H160463   6.617   5.056   3.606  3.3001 -1.0289  1.8376
13016TIP3    H260464   6.625   4.992   3.469 -0.3639  0.9832  0.5435
13017TIP3   OH260465   3.014   5.828  15.299 -0.0662  0.7175 -0.4117
13017TIP3    H160466   2.949   5.844  15.231 -0.1199  1.8691 -0.1032
13017TIP3    H260467   3.001   5.898  15.363  0.5235  0.1287  0.3831
13018TIP3   OH260468   4.752   4.635   4.512 -0.2372 -0.4237 -0.0509
13018TIP3    H160469   4.794   4.682   4.585  0.9957 -2.7383  0.8321
13018TIP3    H260470   4.737   4.702   4.446  1.5630  1.1890  1.0718
13019TIP3   OH260471   0.193   0.736   5.316  0.1708 -0.1830 -1.0873
13019TIP3    H160472   0.129   0.794   5.274 -2.3464 -1.7508  0.3128
13019TIP3    H260473   0.198   0.768   5.407  1.1926 -0.2494 -1.1117
13020TIP3   OH260474   0.854   2.581   0.528  0.1757 -0.2563 -0.0569
13020TIP3    H160475   0.850   2.567   0.623 -0.2478  1.1466  0.1533
13020TIP3    H260476   0.927   2.526   0.499  0.3859 -0.6196  1.1004
13021TIP3   OH260477   0.040   3.739  12.666 -0.6448  0.0915 -0.1579
13021TIP3    H160478  -0.008   3.773  12.590  1.4030  0.3961 -1.3876
13021TIP3    H260479   0.076   3.655  12.637  2.8529  1.6210 -0.8054
13022TIP3   OH260480   1.123   0.047   1.038  0.1574 -0.3003 -0.3258
13022TIP3    H160481   1.152   0.092   1.117 -0.7883  1.0585 -0.7088
13022TIP3    H260482   1.199   0.048   0.980  0.7811 -1.0978  0.4572
13023TIP3   OH260483   1.437   4.072   0.435  0.7879  0.0689  0.2672
13023TIP3    H160484   1.514   4.042   0.483  0.8177  0.1504  0.2712
13023TIP3    H260485   1.459   4.059   0.343  0.6597 -0.2557  0.2818
13024TIP3   OH260486   5.956   0.156  16.741 -0.9159 -0.4766 -0.4195
13024TIP3    H160487   5.924   0.238  16.703 -0.3468  0.0136  0.1195
13024TIP3    H260488   5.935   0.163  16.834  1.1965  0.1311  0.0702
13025TIP3   OH260489   4.561   3.983   5.943  0.4383  0.0981  0.4283
13025TIP3    H160490   4.604   3.900   5.966  2.4513  1.2560  1.0909
13025TIP3    H260491   4.525   4.014   6.026  1.2151  0.6947  0.5563
13026TIP3   OH260492   5.631   1.381  12.455  0.0962  0.1525 -0.5483
13026TIP3    H160493   5.675   1.423  12.381  2.5313  1.8114  1.6548
13026TIP3    H260494   5.580   1.452  12.495  1.8083  0.3536  1.4423
13027TIP3   OH260495   4.486   2.994  14.239  0.0801 -0.6048 -0.1193
13027TIP3    H160496   4.558   2.989  14.177  0.1630 -1.6424  0.0550
13027TIP3    H260497   4.407   3.000  14.184  0.2564  0.0323 -0.3089
13028TIP3   OH260498   4.452   4.686   4.794 -0.0862  0.2511  0.0887
13028TIP3    H160499   4.359   4.669   4.808 -0.2348  1.1221  0.1963
13028TIP3    H260500   4.456   4.734   4.712  0.2396  0.4361  0.2109
13029TIP3   OH260501   5.707   3.180  12.816 -0.5602  0.1756 -0.2599
13029TIP3    H160502   5.681   3.106  12.870  2.2795 -1.0002 -0.2864
13029TIP3    H260503   5.745   3.243  12.877 -1.4162  0.8681 -0.4282
13030TIP3   OH260504   0.499   2.516   2.262  0.3878 -1.0582 -0.1868
13030TIP3    H160505   0.472   2.602   2.229 -1.2458 -0.7383  1.7504
13030TIP3    H260506   0.477   2.519   2.355  0.6050 -3.4840 -0.0107
13031TIP3   OH260507   4.050   6.084  15.795  0.1677 -0.4174  0.5914
13031TIP3    H160508   4.058   5.996  15.757 -0.7010 -1.1582  2.0271
13031TIP3    H260509   4.007   6.070  15.879 -0.4458  1.4575  0.6419
13032TIP3   OH260510   4.292   2.025  17.346  0.6627 -0.0557 -0.5249
13032TIP3    H160511   4.259   2.115  17.357  1.3875  0.1194  0.3534
13032TIP3    H260512   4.298   2.014  17.251 -2.0737 -0.1845 -0.7615
13033TIP3   OH260513   0.392   0.307   0.257 -0.0908 -0.0437  0.2826
13033TIP3    H160514   0.344   0.332   0.178 -1.8793  1.5445  1.7946
13033TIP3    H260515   0.390   0.384   0.313  0.4551 -1.3438  2.2130
13034TIP3   OH260516   0.449   2.784   5.208  0.5213  0.3324 -0.0770
13034TIP3    H160517   0.502   2.862   5.193 -0.0074  1.0077  1.4271
13034TIP3    H260518   0.510   2.711   5.196  1.4021  1.0370  0.0609
13035TIP3   OH260519   5.500   2.532  16.280  0.6829  0.7945  0.2880
13035TIP3    H160520   5.512   2.471  16.207 -1.5284 -1.2006  1.4473
13035TIP3    H260521   5.578   2.587  16.278  1.6265 -0.4515 -2.3522
13036TIP3   OH260522   4.738   0.584  16.355 -0.2795 -0.8424  0.4497
13036TIP3    H160523   4.819   0.537  16.370 -0.6574 -1.3901  0.7974
13036TIP3    H260524   4.669   0.521  16.376 -0.8503 -1.2701 -2.3525
13037TIP3   OH260525   4.236   0.751   1.556  0.5485 -0.0732 -0.0619
13037TIP3    H160526   4.280   0.785   1.479  1.4663  0.9516  0.8862
13037TIP3    H260527   4.304   0.746   1.623 -0.1099 -1.4212  0.5597
13038TIP3   OH260528   5.601   0.475  12.967 -0.1290 -0.2178  0.5034
13038TIP3    H160529   5.681   0.526  12.976  0.4076 -0.9317 -0.1415
13038TIP3    H260530   5.602   0.414  13.041  0.3199 -0.7472  0.0695
13039TIP3   OH260531   3.855   2.846   4.081 -0.5144 -0.3900 -0.1525
13039TIP3    H160532   3.794   2.878   4.015 -1.3638 -1.3459  0.1536
13039TIP3    H260533   3.813   2.768   4.117 -0.0678  0.1125  1.5213
13040TIP3   OH260534   3.621   2.948   5.923  0.5911  0.2125 -0.0099
13040TIP3    H160535   3.643   2.865   5.966  0.4202  1.0175  1.7480
13040TIP3    H260536   3.543   2.979   5.969  0.3921  1.1360 -0.9337
13041TIP3   OH260537   4.031   2.228   2.475 -0.2879  0.7814 -0.2909
13041TIP3    H160538   4.058   2.142   2.508 -1.3630  0.9144  1.0233
13041TIP3    H260539   4.061   2.229   2.384  0.8498 -0.4791  0.0398
13042TIP3   OH260540   3.786   4.823  14.917 -0.2829  0.0665 -0.0917
13042TIP3    H160541   3.784   4.907  14.872 -0.7121 -0.1624 -0.5166
13042TIP3    H260542   3.706   4.822  14.969 -1.0244 -0.6554 -1.1943
13043TIP3   OH260543   1.592   0.537  13.894 -0.1514  0.7160 -0.2910
13043TIP3    H160544   1.545   0.577  13.967 -1.7640  1.6334 -1.7428
13043TIP3    H260545   1.601   0.445  13.919  2.3416  1.5538  2.4886
13044TIP3   OH260546   6.389   4.818   1.623  0.2042 -0.2604  0.4751
13044TIP3    H160547   6.340   4.762   1.563  0.5683  0.6121 -0.6673
13044TIP3    H260548   6.424   4.757   1.689 -0.4505 -1.1956 -0.0169
13045TIP3   OH260549   1.108   5.230  11.799 -0.4901 -0.5099  0.2603
13045TIP3    H160550   1.150   5.312  11.824  0.2423 -1.4621  2.3582
13045TIP3    H260551   1.034   5.256  11.745 -0.2088  1.5204  0.7963
13046TIP3   OH260552   0.809   6.266  13.653 -0.0181 -0.4306  0.6400
13046TIP3    H160553   0.726   6.313  13.649 -0.0817 -0.5445  0.6067
13046TIP3    H260554   0.804   6.215  13.734  1.0014  1.3730  1.9297
13047TIP3   OH260555   6.328   0.184  13.913  0.4214 -0.2121  0.5824
13047TIP3    H160556   6.288   0.269  13.933 -0.1125 -0.9707  3.0014
13047TIP3    H260557   6.420   0.195  13.936  0.3487 -0.2855  0.9135
13048TIP3   OH260558   4.492   5.769   0.353 -0.3495  0.9521 -0.0601
13048TIP3    H160559   4.504   5.788   0.446 -0.9157  0.7718  0.0514
13048TIP3    H260560   4.456   5.681   0.350 -1.2795  1.3348 -0.4002
13049TIP3   OH260561   5.360   5.995   1.456 -0.7471 -0.1807  0.0004
13049TIP3    H160562   5.392   5.914   1.417  0.5402  1.0165 -1.5472
13049TIP3    H260563   5.291   5.967   1.516  0.3191 -2.4927  0.2461
13050TIP3   OH260564   0.912   4.968   0.373  0.5831 -0.2055 -0.2157
13050TIP3    H160565   0.823   4.975   0.407  1.3784 -1.5429  2.3866
13050TIP3    H260566   0.942   5.058   0.366 -0.5905  0.2167 -0.0534
13051TIP3   OH260567   0.923   1.777  12.796  0.0702  0.2018  0.6985
13051TIP3    H160568   0.940   1.685  12.777  0.5810  0.3920  0.2013
13051TIP3    H260569   0.903   1.779  12.889  2.0042 -0.1523  1.1613
13052TIP3   OH260570   0.002   4.679  11.385 -0.2249  0.7497  0.1164
13052TIP3    H160571   0.035   4.729  11.460 -1.7336 -0.2151  1.5008
13052TIP3    H260572   0.020   4.735  11.310  2.0816  1.4074  1.0629
13053TIP3   OH260573   5.738   1.310   2.396  0.2869 -0.1124 -0.1771
13053TIP3    H160574   5.755   1.218   2.378  1.8178  0.2516 -0.7078
13053TIP3    H260575   5.706   1.345   2.313 -0.9042 -0.2752  0.1901
13054TIP3   OH260576   1.056   3.723  14.221  0.4239 -0.1964  0.3965
13054TIP3    H160577   1.112   3.714  14.298 -0.2365  0.2974  0.9598
13054TIP3    H260578   1.018   3.811  14.230 -0.9804 -0.7789  0.4281
13055TIP3   OH260579   3.477   0.743  13.565 -0.0344  0.1803  0.5883
13055TIP3    H160580   3.544   0.676  13.552  1.1820  0.9171  2.7051
13055TIP3    H260581   3.509   0.818  13.516  0.1550  0.1983  0.7405
13056TIP3   OH260582   1.252   3.879  15.393 -0.2558  0.0267 -0.6107
13056TIP3    H160583   1.193   3.805  15.406 -0.7222  0.5098  0.0494
13056TIP3    H260584   1.207   3.936  15.331 -0.6555  0.5697  0.1662
13057TIP3   OH260585   3.069   1.379   2.094  0.5049 -0.4421 -0.4223
13057TIP3    H160586   3.080   1.328   2.174 -1.0510 -1.3557 -0.7552
13057TIP3    H260587   3.156   1.416   2.078  1.1086 -1.0954  1.0979
13058TIP3   OH260588   6.445   3.385  13.033  0.1765 -0.2381  0.0703
13058TIP3    H160589   6.512   3.320  13.052  0.7432 -0.1379 -1.4974
13058TIP3    H260590   6.472   3.425  12.950 -2.0142 -0.4607 -0.8003
13059TIP3   OH260591   2.728   5.547  15.695  0.7602 -0.7912 -0.1836
13059TIP3    H160592   2.748   5.551  15.788  0.1245 -0.4380 -0.0528
13059TIP3    H260593   2.656   5.485  15.689 -0.2939  0.3809 -0.2224
13060TIP3   OH260594   0.831   2.161  14.685 -0.6084  0.1088  0.0998
13060TIP3    H160595   0.816   2.215  14.607 -1.8709 -2.7039 -1.7493
13060TIP3    H260596   0.748   2.165  14.733 -0.4025  0.4794  0.4330
13061TIP3   OH260597   2.310   6.530  12.519 -0.3033 -0.1788 -0.1564
13061TIP3    H160598   2.346   6.563  12.601  1.5776  0.6219 -1.2388
13061TIP3    H260599   2.386   6.503  12.468 -1.4718 -1.3487 -1.3730
13062TIP3   OH260600   2.106   5.054   2.840  0.4429  0.1957  0.1017
13062TIP3    H160601   2.030   5.104   2.871  0.0873  0.3877 -1.0380
13062TIP3    H260602   2.109   5.071   2.746 -0.4723 -2.9035 -0.6103
13063TIP3   OH260603   4.260   5.809   1.665 -0.3300  0.1417  0.2769
13063TIP3    H160604   4.291   5.888   1.708 -0.6841  0.6093 -0.3121
13063TIP3    H260605   4.235   5.837   1.577 -2.8134 -0.0713  0.8212
13064TIP3   OH260606   0.053   4.739  14.490  0.1047  0.1781 -0.2782
13064TIP3    H160607   0.147   4.724  14.485 -0.0734 -1.9198  1.4713
13064TIP3    H260608   0.040   4.783  14.574 -0.5449 -0.0362 -0.2622
13065TIP3   OH260609   6.134   4.017   3.891 -0.1681  0.0460 -0.2462
13065TIP3    H160610   6.116   4.105   3.923 -0.7219 -0.4551  0.8707
13065TIP3    H260611   6.226   4.001   3.914 -0.3963 -0.0912  0.6076
13066TIP3   OH260612   3.101   0.892   3.032  0.2695  0.4294  0.1233
13066TIP3    H160613   3.102   0.852   3.120 -0.1226 -0.6299 -0.3347
13066TIP3    H260614   3.068   0.980   3.046  1.8303  0.8682  1.2752
13067TIP3   OH260615   6.455   6.440  15.938 -0.1452  0.0739 -0.4137
13067TIP3    H160616   6.540   6.407  15.908  0.7578  0.5618  1.4701
13067TIP3    H260617   6.392   6.404  15.875  1.1437 -2.5370 -0.3582
13068TIP3   OH260618   6.404   3.593   1.564 -0.1471 -0.4117  0.6539
13068TIP3    H160619   6.314   3.563   1.550  0.1114 -0.5765 -0.8144
13068TIP3    H260620   6.434   3.620   1.477  1.2078 -0.3049  1.1323
13069TIP3   OH260621   5.253   5.418   0.989  0.0928 -0.0148  0.0424
13069TIP3    H160622   5.244   5.502   0.944 -0.6012 -0.1066 -0.0105
13069TIP3    H260623   5.266   5.354   0.918 -0.8021 -0.1327 -0.0267
13070TIP3   OH260624   0.348   2.698  13.200  0.0193 -0.4753 -0.3889
13070TIP3    H160625   0.285   2.692  13.129 -1.0841 -0.7296  0.5866
13070TIP3    H260626   0.433   2.685  13.158 -0.6785 -1.4712 -1.5287
13071TIP3   OH260627   3.422   2.141  15.016  0.1383  0.4867 -0.3939
13071TIP3    H160628   3.514   2.153  14.995  0.5193 -0.9537  0.3204
13071TIP3    H260629   3.403   2.209  15.080  0.2512  1.8250 -1.7508
13072TIP3   OH260630   1.424   2.225   4.237 -0.4114  0.0127 -0.5620
13072TIP3    H160631   1.461   2.242   4.150  0.9546  1.4051  0.2267
13072TIP3    H260632   1.343   2.276   4.239 -0.2244  0.3285 -0.8731
13073TIP3   OH260633   0.549   6.310  14.027  0.0321  0.2069  0.6324
13073TIP3    H160634   0.541   6.340  13.937  0.0905  1.4687  1.0207
13073TIP3    H260635   0.542   6.215  14.022 -1.4541  0.3405 -0.5400
13074TIP3   OH260636   4.812   6.451   0.049  0.4282 -0.6038  0.0211
13074TIP3    H160637   4.746   6.519   0.038  0.6145 -0.2980  0.7692
13074TIP3    H260638   4.809   6.429   0.142  0.1170 -1.8868 -0.2673
13075TIP3   OH260639   4.209   1.665  14.203 -0.0455 -0.1157  0.3135
13075TIP3    H160640   4.209   1.612  14.282  0.1462 -1.4087 -0.5214
13075TIP3    H260641   4.141   1.731  14.217 -0.2963 -0.5898  1.3734
13076TIP3   OH260642   4.031   2.870   6.471  0.0565 -0.4263 -0.0677
13076TIP3    H160643   3.980   2.951   6.467  0.6397 -0.0270  0.4923
13076TIP3    H260644   4.002   2.821   6.394 -0.6120  0.1225 -0.1840
13077TIP3   OH260645   1.856   6.392   5.689 -0.0980 -0.2816 -0.2928
13077TIP3    H160646   1.853   6.399   5.594  0.4030 -0.7832 -0.3501
13077TIP3    H260647   1.949   6.387   5.710 -0.1893  0.2859  0.2619
13078TIP3   OH260648   0.203   0.227  10.843 -0.3299  0.5372 -0.4417
13078TIP3    H160649   0.237   0.309  10.879 -0.9971  0.8652 -0.5422
13078TIP3    H260650   0.266   0.160  10.871 -0.0073  1.0214  0.0051
13079TIP3   OH260651   3.925   5.221   4.960  0.3249  0.6557 -0.0370
13079TIP3    H160652   3.857   5.226   5.027  0.6617  2.1084  0.2332
13079TIP3    H260653   3.926   5.129   4.934 -0.1472  0.1546  1.5969
13080TIP3   OH260654   1.665   4.194  11.888  0.0882  0.1996 -0.0653
13080TIP3    H160655   1.727   4.266  11.898 -1.3740  1.3939  0.9195
13080TIP3    H260656   1.719   4.115  11.887  1.6519  1.2221  0.0373
13081TIP3   OH260657   5.336   6.292  16.400  0.6409 -0.2069 -0.6099
13081TIP3    H160658   5.354   6.385  16.413 -0.2942 -0.0985  0.1047
13081TIP3    H260659   5.310   6.285  16.308 -0.8376  0.5459 -0.2904
13082TIP3   OH260660   5.038   3.842   2.876 -0.1960  0.1249  0.4532
13082TIP3    H160661   5.087   3.867   2.797 -0.4746 -1.1370 -0.1452
13082TIP3    H260662   5.052   3.915   2.937  0.9904  0.5814 -0.3298
13083TIP3   OH260663   4.059   3.235  10.405 -0.3663  0.1274  0.3178
13083TIP3    H160664   4.093   3.275  10.325 -1.9566  0.7811 -0.0669
13083TIP3    H260665   3.973   3.202  10.381 -0.9942  0.5587  1.8186
13084TIP3   OH260666   1.819   1.574   5.255  0.7410 -0.1962 -0.0286
13084TIP3    H160667   1.769   1.634   5.310  1.3476  0.2928  0.0012
13084TIP3    H260668   1.753   1.530   5.201  0.2826  0.4998 -0.0509
13085TIP3   OH260669   4.099   4.030  14.809  0.6594  0.1706 -0.1546
13085TIP3    H160670   4.019   3.978  14.813  1.3517 -0.8772  0.9044
13085TIP3    H260671   4.109   4.054  14.717 -0.0085 -1.0699 -0.5603
13086TIP3   OH260672   1.250   0.991   1.551 -1.4555  0.1505 -0.1957
13086TIP3    H160673   1.175   1.050   1.546 -0.4418  1.4334 -1.1379
13086TIP3    H260674   1.289   0.995   1.463 -0.5658 -0.8783  0.1271
13087TIP3   OH260675   1.102   5.832   4.129 -0.1016  0.3792  0.1486
13087TIP3    H160676   1.196   5.817   4.130 -0.2230 -0.4541  1.2741
13087TIP3    H260677   1.093   5.925   4.109  1.0500  0.9189  1.9230
13088TIP3   OH260678   4.789   0.124  16.318 -0.2700  0.2516 -0.3716
13088TIP3    H160679   4.778   0.213  16.352 -0.7162  0.0203  0.1132
13088TIP3    H260680   4.700   0.095  16.299 -0.3634 -0.8818  1.5487
13089TIP3   OH260681   1.150   4.407   3.009 -0.1390  0.3943  0.2625
13089TIP3    H160682   1.192   4.344   2.950 -2.8663  0.3707 -1.8353
13089TIP3    H260683   1.198   4.489   2.994 -1.2827  0.6159 -2.7962
13090TIP3   OH260684   3.544   1.428  13.745 -0.0115 -0.1839  0.0718
13090TIP3    H160685   3.528   1.350  13.797  2.4523 -0.7825  0.0706
13090TIP3    H260686   3.525   1.501  13.804 -3.3713 -0.6603 -0.2551
13091TIP3   OH260687   5.172   6.460   3.053 -0.2427  0.3714  0.6054
13091TIP3    H160688   5.230   6.498   3.119 -0.4792  0.7058  0.6264
13091TIP3    H260689   5.095   6.431   3.103  0.0790 -0.4509  0.6368
13092TIP3   OH260690   0.177   3.057  13.343  0.1173 -0.0653  0.4554
13092TIP3    H160691   0.103   2.998  13.330  0.1192 -0.1520  0.8481
13092TIP3    H260692   0.225   3.053  13.260 -0.9090  0.8297 -0.2044
13093TIP3   OH260693   5.643   3.231   2.031 -0.3828 -0.2269 -0.1948
13093TIP3    H160694   5.659   3.270   1.945  0.0724  0.1726  0.0636
13093TIP3    H260695   5.655   3.137   2.017 -0.5326 -0.1835 -0.6162
13094TIP3   OH260696   3.414   5.642   5.416  0.0281 -0.6994  0.1162
13094TIP3    H160697   3.438   5.723   5.461 -0.7476  0.0754 -0.8188
13094TIP3    H260698   3.332   5.615   5.457 -0.6763  0.0042 -0.7856
13095TIP3   OH260699   1.670   3.147   5.230  0.1653  0.6116 -0.1781
13095TIP3    H160700   1.577   3.163   5.218 -0.2107 -1.0356  0.2209
13095TIP3    H260701   1.711   3.177   5.149 -0.4886  2.6808  0.2013
13096TIP3   OH260702   4.100   3.546   1.725  0.2453 -0.6929  0.0985
13096TIP3    H160703   4.159   3.492   1.672  0.7723 -0.6479  0.6288
13096TIP3    H260704   4.156   3.615   1.760 -0.6189  0.8652 -1.4385
13097TIP3   OH260705   6.311   1.721  13.842 -0.0640  0.5553 -0.2081
13097TIP3    H160706   6.236   1.777  13.820 -0.3294  0.1459 -0.3650
13097TIP3    H260707   6.387   1.778  13.835 -0.2462  0.6993 -1.1570
13098TIP3   OH260708   4.794   1.838   4.641  0.3613 -0.0109 -0.0364
13098TIP3    H160709   4.872   1.865   4.593  0.1747  1.8753  0.6134
13098TIP3    H260710   4.757   1.920   4.673 -2.1610 -0.8128 -0.7073
13099TIP3   OH260711   0.406   3.765   3.083  0.2965 -0.4346  0.1010
13099TIP3    H160712   0.396   3.766   3.178  1.0395  0.2292  0.1748
13099TIP3    H260713   0.497   3.788   3.068  0.4363 -1.4759 -0.7435
13100TIP3   OH260714   4.193   1.018  15.510 -0.4494 -0.4185 -0.2028
13100TIP3    H160715   4.171   0.968  15.588 -0.1307  1.2440  0.9949
13100TIP3    H260716   4.282   0.991  15.488 -0.0935 -0.0263  0.7228
13101TIP3   OH260717   5.993   2.402  13.245 -0.2197 -0.0427 -0.0847
13101TIP3    H160718   5.921   2.419  13.185 -0.5444 -1.1966 -0.0374
13101TIP3    H260719   6.071   2.436  13.201 -0.6309  0.2136 -0.6130
13102TIP3   OH260720   3.635   1.619  11.957 -0.0736 -0.3231  0.0083
13102TIP3    H160721   3.644   1.579  11.870 -2.1102 -1.0372  0.0783
13102TIP3    H260722   3.645   1.546  12.018 -3.3726 -0.7797  0.1513
13103TIP3   OH260723   3.050   4.085  13.831 -1.1331  0.2815 -0.2695
13103TIP3    H160724   3.003   4.065  13.751 -1.1133 -0.2231 -0.1602
13103TIP3    H260725   3.079   3.999  13.864 -0.1804  0.5677 -0.3111
13104TIP3   OH260726   5.168   4.286  16.477 -0.2065 -0.0712 -0.1861
13104TIP3    H160727   5.174   4.361  16.535  0.3036 -0.7439  0.6652
13104TIP3    H260728   5.258   4.253  16.471 -0.4583 -0.7581 -0.3333
13105TIP3   OH260729   5.546   3.991   2.383 -0.4056 -0.1600 -0.1407
13105TIP3    H160730   5.510   3.906   2.360 -0.8678  0.2014 -0.7701
13105TIP3    H260731   5.612   4.009   2.316  0.9524 -0.7864  0.9641
13106TIP3   OH260732   5.683   3.345  10.635 -0.2297  0.0646  0.0234
13106TIP3    H160733   5.653   3.436  10.639 -1.6671 -0.3877  3.2322
13106TIP3    H260734   5.736   3.335  10.714 -0.7928 -2.0644  0.1910
13107TIP3   OH260735   2.221   3.922  14.277 -0.2921 -0.3087 -0.0566
13107TIP3    H160736   2.288   3.970  14.228  0.1878 -0.9370 -0.0278
13107TIP3    H260737   2.141   3.973  14.264  0.0508  0.0959 -0.6375
13108TIP3   OH260738   3.916   6.240  15.255  0.3905  0.2316 -0.0769
13108TIP3    H160739   3.979   6.196  15.313 -0.8462 -1.9405 -0.3029
13108TIP3    H260740   3.845   6.268  15.313  0.3743  0.4164 -0.1845
13109TIP3   OH260741   5.829   5.872  12.334  0.2088 -0.3276  0.2007
13109TIP3    H160742   5.792   5.785  12.326  0.1249 -0.3838  1.0622
13109TIP3    H260743   5.923   5.860  12.320  0.2639 -0.6432  0.8084
13110TIP3   OH260744   0.665   2.728  12.372  0.3025 -0.7273  0.0804
13110TIP3    H160745   0.637   2.648  12.330 -2.9882  0.8992 -1.1488
13110TIP3    H260746   0.741   2.757  12.321 -0.6495 -1.2852 -1.7304
13111TIP3   OH260747   2.944   1.710   3.292 -0.2196  0.0691 -0.0550
13111TIP3    H160748   2.899   1.696   3.376  0.9970  1.2122  0.8345
13111TIP3    H260749   3.021   1.654   3.296 -0.6296 -0.5582 -0.8146
13112TIP3   OH260750   0.975   0.268  11.312  0.0065  0.2337  0.3771
13112TIP3    H160751   0.920   0.297  11.240 -0.6717 -2.1090 -0.1509
13112TIP3    H260752   1.049   0.329  11.312 -1.0863  1.6322 -0.8275
13113TIP3   OH260753   5.483   1.106  13.418  0.2453  0.9298 -0.1993
13113TIP3    H160754   5.578   1.098  13.412  0.2240 -0.4017  0.7164
13113TIP3    H260755   5.467   1.140  13.506 -0.1469  0.3131 -0.0255
13114TIP3   OH260756   3.301   1.357   1.631 -0.3275  0.0985  0.0422
13114TIP3    H160757   3.316   1.289   1.697 -1.5058 -1.0045 -0.7895
13114TIP3    H260758   3.346   1.434   1.666 -0.4692 -0.6011  1.8756
13115TIP3   OH260759   3.968   6.036   1.777 -0.3613  0.0404 -0.2492
13115TIP3    H160760   3.881   6.003   1.757 -0.9680  0.0567  2.0313
13115TIP3    H260761   3.971   6.123   1.736 -1.0201 -0.3741 -1.1972
13116TIP3   OH260762   5.849   6.511  15.721 -0.2514 -0.4553  0.2190
13116TIP3    H160763   5.771   6.561  15.697 -0.0625  0.0057  0.5570
13116TIP3    H260764   5.874   6.546  15.807  1.5317  0.8121 -0.7749
13117TIP3   OH260765   3.096   2.222  16.156  0.5422 -0.1358  0.0394
13117TIP3    H160766   3.133   2.153  16.102  1.4918  0.9012 -0.6921
13117TIP3    H260767   3.084   2.182  16.242 -0.6321 -1.6992 -0.8184
13118TIP3   OH260768   0.992   5.943   4.530  0.5142 -0.2817  0.7043
13118TIP3    H160769   0.922   5.926   4.593  0.3788 -1.2874  0.3094
13118TIP3    H260770   0.950   5.930   4.444  0.1905  2.8723  0.2668
13119TIP3   OH260771   5.889   2.456  16.032 -0.4072 -0.2236  0.1885
13119TIP3    H160772   5.968   2.507  16.013  0.3934 -1.1585  0.8947
13119TIP3    H260773   5.851   2.438  15.946 -1.2372  2.2836 -0.0671
13120TIP3   OH260774   0.846   2.290  14.132  0.1877  0.4638  0.0684
13120TIP3    H160775   0.824   2.383  14.140 -2.1184 -0.0636  0.8018
13120TIP3    H260776   0.779   2.255  14.073  1.3171 -0.6569 -0.5860
13121TIP3   OH260777   6.163   0.018   5.640 -0.6262 -0.2504 -0.5262
13121TIP3    H160778   6.150  -0.077   5.643 -0.3676 -0.2925 -0.6500
13121TIP3    H260779   6.164   0.045   5.731  2.0147 -0.7707 -0.3025
13122TIP3   OH260780   2.637   6.347  11.289 -0.5892 -0.2993 -0.4015
13122TIP3    H160781   2.542   6.344  11.278 -0.5192  0.2739 -1.1924
13122TIP3    H260782   2.661   6.257  11.311 -1.4773 -0.1681  1.2995
13123TIP3   OH260783   0.296   4.031  14.047  0.0849 -0.2393  0.2283
13123TIP3    H160784   0.211   4.074  14.043  0.6454  0.8727  0.0358
13123TIP3    H260785   0.321   4.033  14.139 -1.1129 -2.6552  0.6834
13124TIP3   OH260786   4.398   3.682  14.055  0.5429 -0.1439  0.3306
13124TIP3    H160787   4.486   3.703  14.024  1.3886  1.0751  3.1727
13124TIP3    H260788   4.406   3.595  14.093  0.0129 -0.8128 -1.0451
13125TIP3   OH260789   5.629   5.439  13.244 -0.1151 -0.0244 -0.7026
13125TIP3    H160790   5.548   5.387  13.241 -0.8417  0.8427  1.6272
13125TIP3    H260791   5.671   5.414  13.326 -0.4355  2.8237  0.4747
13126TIP3   OH260792   3.850   3.644   1.041  0.0267  0.9215  0.1008
13126TIP3    H160793   3.945   3.630   1.048 -0.3642 -1.4640  1.9551
13126TIP3    H260794   3.824   3.672   1.129 -1.0064  1.6355 -0.4150
13127TIP3   OH260795   3.567   3.603   3.565 -0.4049 -0.0985 -0.1316
13127TIP3    H160796   3.587   3.564   3.650 -1.3944 -0.7720 -0.1854
13127TIP3    H260797   3.651   3.636   3.533  0.3222 -1.4596  0.3042
13128TIP3   OH260798   2.186   4.140  14.616  0.4783 -0.2728 -0.3481
13128TIP3    H160799   2.218   4.052  14.635  0.7090 -0.3174 -0.9244
13128TIP3    H260800   2.219   4.194  14.688 -0.0748 -0.7463  0.2661
13129TIP3   OH260801   2.192   1.814   2.131  0.4420  0.1447 -0.3995
13129TIP3    H160802   2.194   1.741   2.069  1.3766  0.1822 -0.4278
13129TIP3    H260803   2.205   1.892   2.076  0.2414  0.2650 -0.2764
13130TIP3   OH260804   4.290   5.449  17.040 -0.5383  0.0213  0.1124
13130TIP3    H160805   4.269   5.464  16.948 -0.2643 -1.1045 -0.1509
13130TIP3    H260806   4.206   5.439  17.083 -0.6488 -0.9288 -0.2952
13131TIP3   OH260807   2.918   3.040  13.904  0.6462  0.0645  0.4096
13131TIP3    H160808   2.980   3.025  13.976 -0.4448 -0.7243  1.2361
13131TIP3    H260809   2.879   2.954  13.888 -0.1499  0.5148 -0.1570
13132TIP3   OH260810   4.831   3.715  11.597  0.4499 -0.2015  0.1882
13132TIP3    H160811   4.878   3.689  11.518  0.3809  0.6811 -0.1506
13132TIP3    H260812   4.857   3.806  11.612  1.0815 -0.5853  1.6344
13133TIP3   OH260813   6.509   3.559  11.999  0.2636  0.3551 -0.2878
13133TIP3    H160814   6.592   3.601  12.019 -0.5527  2.0234 -0.2771
13133TIP3    H260815   6.489   3.587  11.910 -1.0326  1.2751  0.2615
13134TIP3   OH260816   5.379   2.153   4.389 -0.0700 -0.0305  0.1660
13134TIP3    H160817   5.288   2.130   4.404 -0.9285  1.0507 -2.6237
13134TIP3    H260818   5.382   2.248   4.400 -0.5876  0.7417 -4.4200
13135TIP3   OH260819   3.382   3.429   2.348 -0.4563  0.1476 -0.5472
13135TIP3    H160820   3.473   3.408   2.368 -0.7721 -0.0053  0.7955
13135TIP3    H260821   3.387   3.493   2.277  0.6213 -1.3691 -1.9015
13136TIP3   OH260822   3.071   4.199   3.970 -0.1980  0.0853  0.3010
13136TIP3    H160823   3.114   4.123   4.010 -1.7187 -0.4341  1.0306
13136TIP3    H260824   3.138   4.267   3.970  1.1540 -1.1859 -0.2035
13137TIP3   OH260825   6.701   4.520   4.747  0.8912 -0.4120  0.5171
13137TIP3    H160826   6.609   4.523   4.718  1.1737 -0.1724 -0.3814
13137TIP3    H260827   6.751   4.504   4.667  1.6828  0.0419  0.9067
13138TIP3   OH260828   4.986   2.616   1.623 -0.1840  0.8336  0.3654
13138TIP3    H160829   4.941   2.566   1.556  0.0627  1.5584 -0.3626
13138TIP3    H260830   4.924   2.620   1.696  0.0052 -0.9695  0.6650
13139TIP3   OH260831   0.052   3.446  14.857 -0.4730 -0.2453  0.0585
13139TIP3    H160832   0.128   3.503  14.868  0.3965 -1.0495 -1.3782
13139TIP3    H260833   0.010   3.477  14.777 -1.0462 -0.4810  0.2602
13140TIP3   OH260834   2.076   0.119  11.960  0.5582  0.1529 -0.4869
13140TIP3    H160835   1.996   0.081  11.922 -0.9170  2.7573 -0.2368
13140TIP3    H260836   2.062   0.113  12.054 -0.7121  2.9273 -0.3791
13141TIP3   OH260837   5.374   3.337   1.731  0.7469 -0.3389  0.3909
13141TIP3    H160838   5.335   3.412   1.775 -1.9217 -0.4340 -1.5595
13141TIP3    H260839   5.372   3.360   1.638 -0.7811 -3.0142 -0.3473
13142TIP3   OH260840   5.019   2.590   5.499 -0.5039 -0.1264 -1.0402
13142TIP3    H160841   5.033   2.499   5.523 -0.7450  0.2831  0.8118
13142TIP3    H260842   5.105   2.632   5.512 -0.4983  0.0073 -1.4755
13143TIP3   OH260843   6.562   2.588   3.691 -0.1064 -0.1990 -0.1781
13143TIP3    H160844   6.553   2.499   3.658 -2.7592  0.1033 -0.4783
13143TIP3    H260845   6.585   2.577   3.783  1.3253 -1.1284 -0.6166
13144TIP3   OH260846   2.418   2.821  16.901 -0.4408  0.0635 -0.4388
13144TIP3    H160847   2.382   2.733  16.913  0.1484 -0.0418  0.6330
13144TIP3    H260848   2.480   2.811  16.828 -0.3806 -0.4140 -0.3282
13145TIP3   OH260849   1.147   4.263  16.814  0.0565  0.5526 -0.3306
13145TIP3    H160850   1.056   4.235  16.800  0.0621  0.1446  0.4072
13145TIP3    H260851   1.153   4.276  16.909  1.6205 -2.4255  0.0750
13146TIP3   OH260852   1.785   1.641   3.774  0.1909 -0.5193 -0.3562
13146TIP3    H160853   1.729   1.678   3.706  0.3303 -1.5667 -1.0746
13146TIP3    H260854   1.723   1.606   3.839  0.0580  0.5593  0.1119
13147TIP3   OH260855   2.951   2.869  13.217  0.4916 -0.1650 -0.0678
13147TIP3    H160856   2.978   2.921  13.293 -0.1033 -1.5569  1.1464
13147TIP3    H260857   2.928   2.934  13.151 -1.6415  1.2061  1.8545
13148TIP3   OH260858   5.054   4.835   1.257 -0.1897  0.5542 -0.0058
13148TIP3    H160859   5.148   4.815   1.261 -0.2363  0.4965  1.5365
13148TIP3    H260860   5.022   4.786   1.181  1.4485  2.5529 -2.1054
13149TIP3   OH260861   1.933   4.092  14.533 -0.2669  0.1605 -0.2934
13149TIP3    H160862   1.928   3.997  14.527 -1.0749  0.2548 -1.4300
13149TIP3    H260863   2.022   4.110  14.563 -0.1426 -0.9460  0.0371
13150TIP3   OH260864   5.437   1.955   1.272  0.1386  0.3081 -0.3673
13150TIP3    H160865   5.450   1.860   1.269  2.3377  0.5505 -0.5500
13150TIP3    H260866   5.392   1.975   1.190 -0.5669 -0.5792 -0.2178
13151TIP3   OH260867   2.701   6.003   1.158 -0.3892  0.0947  0.3212
13151TIP3    H160868   2.722   5.944   1.086 -0.6561 -0.6864  0.8648
13151TIP3    H260869   2.681   6.087   1.116  0.4547 -0.0640 -0.4369
13152TIP3   OH260870   6.383   3.491   1.031  0.1400 -0.4101  0.0574
13152TIP3    H160871   6.317   3.464   0.967 -0.0624 -2.4651  1.0520
13152TIP3    H260872   6.381   3.587   1.028 -2.2069 -0.4126 -0.6283
13153TIP3   OH260873   1.050   2.300   0.769  0.3509  0.3309 -0.0106
13153TIP3    H160874   1.060   2.229   0.832  0.8388  1.6329  1.4445
13153TIP3    H260875   1.010   2.259   0.692  2.2135 -1.8606  0.0903
13154TIP3   OH260876   1.290   4.799   6.123 -0.1704 -0.4331 -1.0032
13154TIP3    H160877   1.299   4.709   6.154 -0.0494  0.0123  0.3247
13154TIP3    H260878   1.220   4.836   6.177  0.8339  0.7234 -0.4330
13155TIP3   OH260879   1.869   6.403  15.434  0.5332 -0.8395  0.2795
13155TIP3    H160880   1.859   6.367  15.522  1.5902  0.8390  1.1593
13155TIP3    H260881   1.922   6.339  15.387  1.8811 -0.7614  1.6024
13156TIP3   OH260882   4.950   5.224  17.012  0.2429 -0.6428 -0.4639
13156TIP3    H160883   4.919   5.248  17.099 -0.6434 -0.0065 -0.9446
13156TIP3    H260884   4.925   5.297  16.956  1.3737 -0.7513 -1.1440
13157TIP3   OH260885   5.228   4.226   3.614  0.6010  0.0545  0.2343
13157TIP3    H160886   5.275   4.277   3.548  0.5223  0.9833  0.8774
13157TIP3    H260887   5.263   4.258   3.698  0.0860 -0.5018  0.6669
13158TIP3   OH260888   1.145   0.750  12.829  0.4480 -0.0000  0.0614
13158TIP3    H160889   1.208   0.805  12.783 -0.6377  2.1266  1.0148
13158TIP3    H260890   1.153   0.775  12.921 -1.3701 -0.1033  0.2753
13159TIP3   OH260891   2.248   1.466  11.920 -0.6302  0.3225  0.0871
13159TIP3    H160892   2.275   1.402  11.855  2.6627  1.4621  0.1513
13159TIP3    H260893   2.246   1.549  11.873  1.8009  1.1589  1.2715
13160TIP3   OH260894   1.277   6.454  11.476 -0.1205 -0.5641  0.4259
13160TIP3    H160895   1.356   6.422  11.433  0.8633  0.3850  1.4429
13160TIP3    H260896   1.223   6.489  11.406 -0.6186 -3.0633 -0.5513
13161TIP3   OH260897   5.347   6.047  15.556 -0.1313 -0.1474 -0.2997
13161TIP3    H160898   5.406   5.982  15.594  0.3373  0.4651  0.0198
13161TIP3    H260899   5.288   6.070  15.628 -0.3595 -0.2875 -0.4407
13162TIP3   OH260900   4.605   3.088   9.909 -0.6740  0.3316  0.6072
13162TIP3    H160901   4.626   3.181   9.901 -0.2654  0.2144  0.3045
13162TIP3    H260902   4.650   3.060   9.988 -1.7647  0.6597  1.3583
13163TIP3   OH260903   1.990   2.449  16.071  0.1799  0.0811  0.2154
13163TIP3    H160904   1.983   2.401  15.988 -1.7780 -0.4335  0.6322
13163TIP3    H260905   1.900   2.467  16.096  0.6196 -1.3390  3.1527
13164TIP3   OH260906   3.098   4.118   4.885 -0.6172 -0.1082  0.2163
13164TIP3    H160907   3.126   4.171   4.811 -0.8635 -1.5775 -0.9770
13164TIP3    H260908   3.004   4.131   4.890 -0.4777  0.6882  0.8497
13165TIP3   OH260909   4.699   3.983   0.677 -0.1657  0.2466 -0.6185
13165TIP3    H160910   4.782   4.027   0.695 -0.1631 -0.3595  0.9715
13165TIP3    H260911   4.655   4.040   0.613 -0.2639  2.7321  1.4874
13166TIP3   OH260912   0.697   4.130  12.834  0.1592 -0.1372 -0.0324
13166TIP3    H160913   0.767   4.116  12.770  1.8546 -0.4938  1.8341
13166TIP3    H260914   0.668   4.220  12.817  0.8178 -0.0926 -1.0503
13167TIP3   OH260915   4.826   5.554  12.720  0.3179  0.3033  0.2021
13167TIP3    H160916   4.817   5.649  12.723  0.0283  0.3486 -1.2507
13167TIP3    H260917   4.899   5.539  12.659  0.2438 -0.4037  0.2753
13168TIP3   OH260918   4.899   2.185   5.134 -0.1497 -0.6510 -0.4528
13168TIP3    H160919   4.990   2.176   5.160 -0.4838 -0.3105  0.8989
13168TIP3    H260920   4.901   2.183   5.038  1.1784 -1.4385 -0.4261
13169TIP3   OH260921   6.735   2.914   3.936  0.0408  0.9250 -0.7693
13169TIP3    H160922   6.648   2.904   3.897 -0.2977  1.9467 -0.3162
13169TIP3    H260923   6.751   3.008   3.935  1.6063  0.6903 -1.8073
13170TIP3   OH260924   0.583   3.986  13.049  0.0164 -0.2039 -0.4063
13170TIP3    H160925   0.662   3.970  13.102  0.1797 -1.3235 -0.9446
13170TIP3    H260926   0.614   4.041  12.977 -0.4118  2.2066  1.1217
13171TIP3   OH260927   3.657   6.058  15.408 -0.1360  0.3075  0.4554
13171TIP3    H160928   3.563   6.071  15.423  0.0279  2.5276 -0.0508
13171TIP3    H260929   3.700   6.114  15.472  0.8798 -0.9352  0.8957
13172TIP3   OH260930   1.384   1.911   2.894 -0.5005 -0.1070  0.3511
13172TIP3    H160931   1.331   1.943   2.821  0.8502  0.6118 -0.3659
13172TIP3    H260932   1.349   1.824   2.913  0.9639 -1.7191 -3.2539
13173TIP3   OH260933   3.193   5.894   3.456 -0.2705 -0.0190  0.2167
13173TIP3    H160934   3.273   5.845   3.472 -1.6119 -1.8652  1.8276
13173TIP3    H260935   3.123   5.834   3.482 -2.1698  1.6829 -0.6712
13174TIP3   OH260936   1.456   6.259  13.087  0.9823  0.2612 -0.3865
13174TIP3    H160937   1.485   6.170  13.065 -0.3710 -0.3492  0.1711
13174TIP3    H260938   1.389   6.279  13.022 -1.1170 -0.5008  1.4262
13175TIP3   OH260939   6.391   1.608   0.613  0.2772  0.3434 -0.6153
13175TIP3    H160940   6.455   1.666   0.654  0.0248  0.3118 -0.1776
13175TIP3    H260941   6.369   1.651   0.530  0.7267  0.4431 -0.6856
13176TIP3   OH260942   5.401   6.550   1.408  0.6038 -0.1483 -0.6034
13176TIP3    H160943   5.440   6.576   1.324  2.9097 -1.0776  0.1097
13176TIP3    H260944   5.436   6.463   1.425 -1.3987 -0.8199  0.4181
13177TIP3   OH260945   5.275   4.995   4.183  0.1754 -0.1167 -0.4277
13177TIP3    H160946   5.181   5.015   4.183  0.3455  0.8152  0.8500
13177TIP3    H260947   5.300   4.998   4.276  0.9634 -2.9496 -0.4539
13178TIP3   OH260948   0.394   1.056   4.716  0.3135  0.3921  0.6957
13178TIP3    H160949   0.452   1.036   4.642 -1.2181 -0.4557 -0.3154
13178TIP3    H260950   0.417   0.991   4.782  0.7126  0.2465  0.4177
13179TIP3   OH260951   3.998   6.327  15.018  0.2075  0.2246 -0.7309
13179TIP3    H160952   4.084   6.367  15.025  0.8262 -0.8542 -1.9464
13179TIP3    H260953   3.974   6.306  15.108  1.5282 -0.1058 -0.4411
13180TIP3   OH260954   4.366   5.991  13.866  0.1002  0.6427  0.2984
13180TIP3    H160955   4.361   6.087  13.862 -1.2793  0.5669 -0.3787
13180TIP3    H260956   4.368   5.964  13.774 -1.2594 -0.0414  0.4556
13181TIP3   OH260957   6.279   0.259  14.679  0.4282 -0.2000  0.6127
13181TIP3    H160958   6.260   0.288  14.768  0.8478  0.9280  0.3551
13181TIP3    H260959   6.193   0.247  14.639  0.2356 -0.9384  1.2278
13182TIP3   OH260960   1.633   1.802   2.959  0.1542  0.0834 -0.0741
13182TIP3    H160961   1.546   1.840   2.943 -0.0622  0.2860  1.4411
13182TIP3    H260962   1.694   1.874   2.942 -0.1021  0.4550  0.5324
13183TIP3   OH260963   5.776   5.210  10.432 -0.1288 -0.0726  0.2197
13183TIP3    H160964   5.813   5.130  10.470 -2.4011 -0.6297  1.4013
13183TIP3    H260965   5.805   5.280  10.491  1.0999 -0.1000 -0.3083
13184TIP3   OH260966   3.037   6.378   5.042  0.1793  0.1823  0.4336
13184TIP3    H160967   3.105   6.321   5.079 -1.5501 -0.3299  3.0361
13184TIP3    H260968   3.041   6.457   5.095 -0.1895  0.8268 -0.4797
13185TIP3   OH260969   3.150   4.710  16.817  0.4388 -0.4202 -0.2240
13185TIP3    H160970   3.223   4.676  16.764  0.6916  0.9352 -0.8054
13185TIP3    H260971   3.099   4.763  16.756 -1.1732 -1.5024  0.1364
13186TIP3   OH260972   1.639   6.310  12.857 -0.5840 -0.5125 -0.1866
13186TIP3    H160973   1.605   6.328  12.944 -0.9389 -0.7516 -0.2731
13186TIP3    H260974   1.704   6.379  12.842 -0.6782 -0.3424  0.1771
13187TIP3   OH260975   5.638   2.587   4.012  0.3648  0.1102 -0.5570
13187TIP3    H160976   5.646   2.498   3.977 -0.5882 -0.0026 -0.5107
13187TIP3    H260977   5.582   2.578   4.089 -0.0564  0.8045 -0.7686
13188TIP3   OH260978   4.610   4.228   5.411  0.2376  0.1363 -0.2216
13188TIP3    H160979   4.558   4.148   5.399  1.3170 -0.4968 -0.8642
13188TIP3    H260980   4.545   4.298   5.408 -0.4943 -0.5150 -2.4686
13189TIP3   OH260981   1.069   2.555   6.550  0.3578 -0.5373 -0.6214
13189TIP3    H160982   0.998   2.496   6.576  0.5751  0.0302  1.3985
13189TIP3    H260983   1.135   2.496   6.512 -0.8956 -1.1341 -1.9832
13190TIP3   OH260984   0.849   6.522  17.363 -0.2365 -0.2329 -0.1261
13190TIP3    H160985   0.757   6.520  17.336 -0.2334 -0.5549 -0.1202
13190TIP3    H260986   0.877   6.431  17.358 -0.0731 -0.2132  0.4290
13191TIP3   OH260987   1.495   4.318  12.057 -0.1734 -0.1390  0.0764
13191TIP3    H160988   1.568   4.373  12.086 -0.8302  0.4060  0.7293
13191TIP3    H260989   1.534   4.231  12.045  0.3330 -0.1534  1.6168
13192TIP3   OH260990   2.384   2.127   0.521 -0.1522 -0.2694  0.5368
13192TIP3    H160991   2.305   2.097   0.565 -1.7702  0.9559 -1.3702
13192TIP3    H260992   2.416   2.050   0.474 -2.2378 -0.0046 -1.4633
13193TIP3   OH260993   4.843   1.961   0.653 -0.4523 -0.1092 -0.5492
13193TIP3    H160994   4.918   1.992   0.602 -0.1268 -2.6896 -1.7781
13193TIP3    H260995   4.786   2.038   0.662  0.8144  1.1092 -2.3778
13194TIP3   OH260996   5.936   0.850  10.869  0.5973 -0.2104 -0.2419
13194TIP3    H160997   5.911   0.806  10.787 -1.2425  0.3375 -0.0219
13194TIP3    H260998   5.974   0.933  10.840  2.3889 -1.0954 -0.5891
13195TIP3   OH260999   4.208   6.195  17.039 -0.0927 -0.6092 -0.3461
13195TIP3    H161000   4.185   6.245  16.960  1.4525  0.3824 -0.2048
13195TIP3    H261001   4.281   6.243  17.077 -0.2900 -1.5382  1.2627
13196TIP3   OH261002   4.130   2.964   3.063  0.0205 -0.3647 -0.3431
13196TIP3    H161003   4.059   2.934   3.119 -0.1023 -0.9983 -0.8278
13196TIP3    H261004   4.104   3.053   3.038 -0.6848 -0.6389 -0.6343
13197TIP3   OH261005   4.108   3.065   4.366  0.2069 -0.5294  0.8633
13197TIP3    H161006   4.098   3.073   4.271 -0.2237  0.5400  0.9933
13197TIP3    H261007   4.197   3.030   4.377 -0.2031 -1.9290  0.0354
13198TIP3   OH261008   4.792   1.798   4.153 -0.0529  0.3413  0.3453
13198TIP3    H161009   4.773   1.880   4.199  0.4948  1.7972 -1.8788
13198TIP3    H261010   4.714   1.781   4.101 -0.0045 -0.3430  0.4886
13199TIP3   OH261011   1.706   4.730  12.942  0.6475  0.0155  0.4124
13199TIP3    H161012   1.724   4.641  12.912 -0.3603 -0.2289  0.5149
13199TIP3    H261013   1.697   4.722  13.037  1.6115  0.4127  0.5444
13200TIP3   OH261014   6.680   4.759  12.169 -0.1529  0.3304 -0.7999
13200TIP3    H161015   6.675   4.851  12.142  0.4211  0.3247 -0.9383
13200TIP3    H261016   6.616   4.751  12.239 -1.9251  0.2680 -2.3467
13201TIP3   OH261017   3.619   1.737  13.264 -0.2779  0.1773  0.0330
13201TIP3    H161018   3.667   1.813  13.298  2.0565 -2.3750  3.0492
13201TIP3    H261019   3.539   1.734  13.316 -0.8761  1.0745 -0.8056
13202TIP3   OH261020   5.179   5.359   1.515  0.3921  0.0426 -0.3715
13202TIP3    H161021   5.180   5.268   1.545 -0.1216  0.2232  0.2157
13202TIP3    H261022   5.110   5.401   1.567 -1.1953  0.1697 -2.4252
13203TIP3   OH261023   2.368   2.203   4.236  0.6534  0.2089  0.2840
13203TIP3    H161024   2.389   2.295   4.219 -0.6259  0.5688  0.5332
13203TIP3    H261025   2.319   2.205   4.319  0.8609 -0.7355  0.4406
13204TIP3   OH261026   3.383   6.382   0.187 -0.2036 -0.0937  0.0334
13204TIP3    H161027   3.417   6.350   0.103  1.0241 -0.7275  0.7308
13204TIP3    H261028   3.292   6.354   0.189 -0.5575  0.8491 -1.5278
13205TIP3   OH261029   0.141   6.603  15.324  0.0821 -0.1977 -0.4256
13205TIP3    H161030   0.182   6.680  15.363 -2.4957  1.6681 -1.0703
13205TIP3    H261031   0.214   6.551  15.291  2.1086  0.3462  2.7535
13206TIP3   OH261032   1.557   5.360  16.679 -0.4091  0.0271 -0.9492
13206TIP3    H161033   1.498   5.436  16.674  0.8053  0.9524 -2.0595
13206TIP3    H261034   1.573   5.349  16.773 -0.8155  0.9887 -0.7506
13207TIP3   OH261035   1.925   6.675   6.361  0.0151 -0.0884  0.0643
13207TIP3    H161036   2.014   6.682   6.394  0.0693  0.5047 -0.2021
13207TIP3    H261037   1.918   6.584   6.331  0.4593 -0.1975  0.2797
13208TIP3   OH261038   4.073   4.802   3.922  0.7795 -0.5197 -0.6876
13208TIP3    H161039   3.987   4.820   3.959  0.8843 -0.3417 -0.5247
13208TIP3    H261040   4.056   4.777   3.832  0.6792  1.2658 -1.2103
13209TIP3   OH261041   1.384   2.019  13.057 -0.5506 -0.6683  0.4097
13209TIP3    H161042   1.344   2.098  13.094 -0.7408 -1.2796  1.5675
13209TIP3    H261043   1.354   2.016  12.967 -0.0959  0.8761  0.1844
13210TIP3   OH261044   5.641   4.865  17.217  0.0096 -0.6236  0.6866
13210TIP3    H161045   5.616   4.901  17.133  2.6260  0.4000  0.2465
13210TIP3    H261046   5.676   4.778  17.197 -0.2955 -0.7908  0.8681
13211TIP3   OH261047   2.024   3.416  12.529 -0.6479 -0.0696 -0.2778
13211TIP3    H161048   2.041   3.479  12.459 -0.6241 -0.5525 -0.7161
13211TIP3    H261049   2.044   3.331  12.490  1.0418 -0.2405  0.8379
13212TIP3   OH261050   0.552   3.375   4.104  0.7377 -0.1067  0.2510
13212TIP3    H161051   0.544   3.459   4.058  0.0266 -1.1648 -1.6908
13212TIP3    H261052   0.463   3.339   4.105  1.2747 -1.5375 -0.4020
13213TIP3   OH261053   2.000   3.892   2.254  0.3650 -0.7158  0.0612
13213TIP3    H161054   2.001   3.807   2.298  0.5568 -1.0287 -0.5313
13213TIP3    H261055   2.039   3.953   2.317 -0.6394 -0.8697  0.8580
13214TIP3   OH261056   0.635   6.429   0.155  0.1355 -0.0711 -0.0983
13214TIP3    H161057   0.620   6.520   0.181 -0.8595 -0.2658  0.0299
13214TIP3    H261058   0.641   6.432   0.059 -1.5315 -0.0718 -0.2318
13215TIP3   OH261059   0.268   6.350  17.023  0.3160  0.1915  0.0344
13215TIP3    H161060   0.265   6.290  16.949 -0.0822  1.0349 -0.6567
13215TIP3    H261061   0.187   6.400  17.016  0.0536 -0.0008  1.3013
13216TIP3   OH261062   1.859   4.618  11.937  0.2388 -0.4987 -0.4506
13216TIP3    H161063   1.949   4.641  11.916  0.3157  1.0479  1.3226
13216TIP3    H261064   1.806   4.688  11.899 -0.2498 -1.4167 -1.5179
13217TIP3   OH261065   3.343   3.963   1.568  0.4238  0.3609  0.2383
13217TIP3    H161066   3.363   3.969   1.475 -0.3786 -0.8307 -0.0255
13217TIP3    H261067   3.298   4.046   1.589 -0.1862  0.2598 -0.6405
13218TIP3   OH261068   0.218   3.182   1.548 -0.4043  0.3642  0.5344
13218TIP3    H161069   0.269   3.157   1.471 -1.0993  0.9803 -0.1472
13218TIP3    H261070   0.268   3.148   1.622 -0.3007 -1.2406 -0.2328
13219TIP3   OH261071   4.363   1.039   5.918 -0.1541 -0.0991  0.2032
13219TIP3    H161072   4.457   1.032   5.938  0.4329 -0.9452 -2.4086
13219TIP3    H261073   4.330   1.105   5.979  1.9923 -0.2320  1.6174
13220TIP3   OH261074   1.993   3.535  14.496 -0.0983 -0.3899  0.1827
13220TIP3    H161075   2.045   3.464  14.459 -1.8911 -0.4111 -2.5276
13220TIP3    H261076   2.002   3.607  14.433 -0.3619  0.9346  1.5923
13221TIP3   OH261077   5.317   5.966   0.316 -0.1750 -0.0452 -0.0245
13221TIP3    H161078   5.315   6.016   0.397  1.3750  0.3397 -0.1921
13221TIP3    H261079   5.377   6.015   0.259 -0.3845 -0.8925 -1.0078
13222TIP3   OH261080   2.675   3.417   3.677  0.4372 -0.3608  0.4263
13222TIP3    H161081   2.715   3.345   3.725 -0.6836 -0.7620  0.8043
13222TIP3    H261082   2.581   3.409   3.696  0.3382  1.5583  0.9669
13223TIP3   OH261083   5.714   0.573  15.980  0.0376 -0.2433 -0.1412
13223TIP3    H161084   5.746   0.570  15.889 -1.4604  0.5483 -0.7351
13223TIP3    H261085   5.691   0.483  16.001  0.9556 -0.5294 -0.3265
13224TIP3   OH261086   4.935   5.306  16.751  0.8166  0.5672  0.3618
13224TIP3    H161087   4.882   5.265  16.683 -0.0173  0.0169  1.3154
13224TIP3    H261088   4.909   5.398  16.749 -0.5009  0.2394  1.0730
13225TIP3   OH261089   1.100   2.600  16.607  0.4621 -0.0469 -0.2750
13225TIP3    H161090   1.083   2.661  16.679 -0.1584  0.2156 -0.6286
13225TIP3    H261091   1.157   2.533  16.644  0.4219  0.2685  0.3669
13226TIP3   OH261092   4.177   1.684  16.410 -0.0310 -0.1463  0.7022
13226TIP3    H161093   4.124   1.670  16.488 -1.5807  1.4720  0.0249
13226TIP3    H261094   4.151   1.614  16.350 -1.0520  0.3241  0.5759
13227TIP3   OH261095   1.642   6.053   0.905  0.5380  0.2438 -0.5240
13227TIP3    H161096   1.567   6.111   0.915  1.0456  0.7813  0.2602
13227TIP3    H261097   1.625   5.981   0.966  0.2321 -0.1059 -1.0104
13228TIP3   OH261098   3.100   0.344   4.053  0.2011  0.1147 -0.0907
13228TIP3    H161099   3.194   0.336   4.038  0.6550 -1.6186  2.8490
13228TIP3    H261100   3.063   0.263   4.017 -0.4952  1.4176 -2.5645
13229TIP3   OH261101   1.516   3.737   3.080  0.4521  0.1078 -0.1744
13229TIP3    H161102   1.589   3.755   3.138 -1.0178 -0.8400  2.0984
13229TIP3    H261103   1.535   3.651   3.043  0.8886  0.2404 -0.2564
13230TIP3   OH261104   1.587   6.731   0.616 -0.2460 -0.0476  0.2743
13230TIP3    H161105   1.519   6.717   0.550  1.1810 -0.9950 -1.0751
13230TIP3    H261106   1.566   6.668   0.685 -0.4813 -0.6900 -0.3619
13231TIP3   OH261107   0.729   1.384  10.538  0.0708  0.1247 -0.0392
13231TIP3    H161108   0.801   1.326  10.516 -0.7292 -0.4362 -1.2998
13231TIP3    H261109   0.732   1.453  10.472 -1.2699 -0.5946 -0.9229
13232TIP3   OH261110   5.111   0.252   3.597 -0.3315 -0.1396  0.1906
13232TIP3    H161111   5.198   0.213   3.591 -0.7315 -1.0811  0.2778
13232TIP3    H261112   5.068   0.202   3.667 -0.7965  0.5954  0.4350
13233TIP3   OH261113   2.088   0.890  13.188 -0.1356  0.0025  0.2974
13233TIP3    H161114   2.034   0.909  13.111 -1.0246  0.0615  0.9164
13233TIP3    H261115   2.026   0.888  13.260  0.4150 -1.7773  0.7807
13234TIP3   OH261116   0.777   2.565  11.562 -0.1076 -0.0380 -0.0161
13234TIP3    H161117   0.734   2.649  11.544  0.3686 -0.1183 -1.7662
13234TIP3    H261118   0.732   2.531  11.639 -0.5837  1.6313  0.4832
13235TIP3   OH261119   2.831   0.694   3.179 -0.5918 -0.2801 -0.3113
13235TIP3    H161120   2.924   0.675   3.196 -0.4561 -0.2527 -1.0091
13235TIP3    H261121   2.813   0.650   3.096 -0.6446  1.4615 -1.2473
13236TIP3   OH261122   3.999   0.108  11.706  0.0286 -0.6648  0.8740
13236TIP3    H161123   3.997   0.115  11.610 -1.1470 -0.1452  0.9176
13236TIP3    H261124   4.031   0.019  11.722  1.3096 -0.3935  0.0355
13237TIP3   OH261125   5.915   6.272   5.614 -0.6030 -0.5878 -0.2348
13237TIP3    H161126   5.849   6.313   5.670  0.0475  1.3337 -0.8196
13237TIP3    H261127   5.907   6.316   5.530 -0.2726 -2.1072 -1.0965
13238TIP3   OH261128   1.369   4.596  15.750  0.2718  0.6928  0.2369
13238TIP3    H161129   1.377   4.500  15.747  0.0120  0.5829  2.0542
13238TIP3    H261130   1.314   4.618  15.674 -0.1126 -0.6551  0.0990
13239TIP3   OH261131   4.556   3.640   1.578  0.0585 -0.2036 -0.2666
13239TIP3    H161132   4.596   3.722   1.550 -0.3447  0.2540  0.4643
13239TIP3    H261133   4.514   3.661   1.662 -0.2514 -1.0946 -0.1866
13240TIP3   OH261134   1.475   4.590   3.314 -0.4716 -0.3019 -0.0594
13240TIP3    H161135   1.459   4.613   3.406 -0.7430  2.2576 -0.6693
13240TIP3    H261136   1.502   4.499   3.317  0.1241 -0.1366  2.6281
13241TIP3   OH261137   5.086   2.627  10.397 -0.7998 -0.2389 -0.4921
13241TIP3    H161138   5.077   2.578  10.316 -1.4313 -0.4348 -0.3126
13241TIP3    H261139   5.076   2.562  10.466 -0.1704 -0.0885 -0.2525
13242TIP3   OH261140   4.835   2.739   2.953  0.0201 -0.3335  0.2913
13242TIP3    H161141   4.890   2.672   2.995  0.4879 -0.0474  0.1488
13242TIP3    H261142   4.766   2.689   2.910  0.2585 -0.7162  0.3380
13243TIP3   OH261143   4.279   0.728  11.784 -0.3929  0.0903  0.4157
13243TIP3    H161144   4.310   0.786  11.853 -0.6444  0.4262  0.2455
13243TIP3    H261145   4.235   0.657  11.830  0.6351 -0.4110  0.6705
13244TIP3   OH261146   5.689   4.082   5.479 -0.6277  0.4771  0.3534
13244TIP3    H161147   5.595   4.087   5.459 -0.8430 -2.0338  0.3759
13244TIP3    H261148   5.698   4.002   5.531  2.0154 -1.8655 -3.1711
13245TIP3   OH261149   1.797   4.793  11.030  0.7963 -0.1545  0.1356
13245TIP3    H161150   1.853   4.758  10.960  2.1121  1.7653  0.1504
13245TIP3    H261151   1.800   4.888  11.017 -1.3690  0.0792  1.0114
13246TIP3   OH261152   5.866   2.286  10.718 -0.1188  0.3694 -0.4720
13246TIP3    H161153   5.782   2.333  10.714 -0.8800 -1.0249 -2.0165
13246TIP3    H261154   5.932   2.356  10.721 -1.2908  1.5027  0.2925
13247TIP3   OH261155   6.084   5.086   4.018 -0.0854  0.2068  0.0778
13247TIP3    H161156   6.129   5.110   3.937 -0.8109  0.3973 -0.2721
13247TIP3    H261157   6.047   4.999   4.000 -1.9579  1.0728 -0.5340
13248TIP3   OH261158   3.727   2.544  11.772  0.0792  0.0447 -0.5937
13248TIP3    H161159   3.818   2.558  11.798  0.0518  0.0748 -0.5124
13248TIP3    H261160   3.686   2.504  11.849 -0.4129  1.6732  0.0483
13249TIP3   OH261161   5.042   1.368   1.699 -0.5343  0.2698 -0.4624
13249TIP3    H161162   4.993   1.333   1.625 -1.8648  0.6326  0.2324
13249TIP3    H261163   5.005   1.455   1.714 -0.6308  0.0057  0.9385
13250TIP3   OH261164   6.746   4.468  14.586 -0.2600 -0.2665  0.4782
13250TIP3    H161165   6.752   4.462  14.681  4.5089 -0.4400  0.3634
13250TIP3    H261166   6.759   4.561  14.567  1.8921 -0.6348 -0.0265
13251TIP3   OH261167   1.257   5.567   4.643  0.1647 -0.3633 -0.1807
13251TIP3    H161168   1.165   5.557   4.668  0.4294 -0.5827  0.7453
13251TIP3    H261169   1.254   5.620   4.563 -0.6578  1.8514  1.2228
13252TIP3   OH261170   5.642   6.266   2.448 -0.0740  0.3138  0.0492
13252TIP3    H161171   5.704   6.338   2.461 -0.3091  0.2709  1.6324
13252TIP3    H261172   5.578   6.300   2.386  1.5460  0.3270 -1.7256
13253TIP3   OH261173   3.827   4.478   2.197  0.0897  0.0550  0.0807
13253TIP3    H161174   3.755   4.505   2.253 -0.3464 -0.0991 -0.4031
13253TIP3    H261175   3.899   4.459   2.258 -0.1147  0.6924  0.5324
13254TIP3   OH261176   0.385   3.031  12.451  0.1757 -0.1896 -0.4130
13254TIP3    H161177   0.325   2.994  12.515 -0.1023 -0.1389 -0.6449
13254TIP3    H261178   0.468   3.038  12.498 -0.4327  1.4427  0.4758
13255TIP3   OH261179   2.472   0.991   3.254  0.0818 -0.2597  0.0445
13255TIP3    H161180   2.501   1.028   3.337  0.3786 -2.5716  1.0368
13255TIP3    H261181   2.396   0.938   3.276  0.3923 -1.2145 -1.0961
13256TIP3   OH261182   0.762   5.661   3.320  0.4060  0.5517 -0.4994
13256TIP3    H161183   0.827   5.591   3.324 -0.3284 -0.0949  1.4535
13256TIP3    H261184   0.759   5.697   3.409  0.5749  2.9394 -1.3686
13257TIP3   OH261185   3.702   4.827  10.585 -0.9082  0.1279 -0.8526
13257TIP3    H161186   3.740   4.744  10.557 -2.4444 -0.4281 -1.3863
13257TIP3    H261187   3.611   4.822  10.558 -2.0579  0.3772  2.4934
13258TIP3   OH261188   6.403   3.728  15.159 -0.4334 -0.3487 -0.3343
13258TIP3    H161189   6.332   3.793  15.162 -0.0819  0.0333 -0.2153
13258TIP3    H261190   6.482   3.780  15.143 -0.1219 -0.7261 -0.0312
13259TIP3   OH261191   5.838   1.520  14.407 -0.0891  0.2601 -0.6099
13259TIP3    H161192   5.902   1.572  14.358 -0.5623  1.0431 -0.4048
13259TIP3    H261193   5.823   1.443  14.352  0.6638  0.3018 -0.8881
13260TIP3   OH261194   3.257   2.662   0.453 -0.0516  0.4634  0.4443
13260TIP3    H161195   3.279   2.748   0.419 -0.8358  1.0165  1.2947
13260TIP3    H261196   3.205   2.621   0.383  0.9993  0.3517 -0.2875
13261TIP3   OH261197   3.497   0.490  17.329 -0.0009  0.1457 -0.3858
13261TIP3    H161198   3.560   0.438  17.379 -0.7440  1.0416  1.5876
13261TIP3    H261199   3.550   0.553  17.281  0.6855  0.1450  0.3529
13262TIP3   OH261200   2.998   0.144  14.206 -0.2226 -0.5606  0.8053
13262TIP3    H161201   2.998   0.125  14.112  2.3315  0.9213  0.4023
13262TIP3    H261202   2.977   0.060  14.247 -2.0597 -1.1086 -1.0393
13263TIP3   OH261203   0.325   3.980  12.917  0.2579 -0.0191 -0.3021
13263TIP3    H161204   0.413   3.949  12.934  0.5182 -0.4787 -2.2189
13263TIP3    H261205   0.325   4.072  12.946  1.3967  0.0176 -0.3984
13264TIP3   OH261206   1.621   1.782   2.110  0.0354  0.3417 -0.7187
13264TIP3    H161207   1.578   1.718   2.167 -0.7844 -0.1509 -1.8378
13264TIP3    H261208   1.698   1.737   2.076  1.3413  1.1241  1.0578
13265TIP3   OH261209   1.161   3.397  17.095 -0.6183  0.0743  0.2030
13265TIP3    H161210   1.131   3.427  17.009  0.5638 -2.8740 -1.3866
13265TIP3    H261211   1.084   3.404  17.151 -1.7518  0.9897 -1.3840
13266TIP3   OH261212   6.621   6.318  12.294 -0.6249  0.0470 -0.7822
13266TIP3    H161213   6.688   6.379  12.327 -2.1439  0.4478  1.7739
13266TIP3    H261214   6.581   6.365  12.221  1.4621 -0.0044 -2.0694
13267TIP3   OH261215   5.205   1.249  15.701  0.3510  0.9332 -0.3197
13267TIP3    H161216   5.271   1.318  15.692  2.0454 -0.7192 -1.1266
13267TIP3    H261217   5.249   1.169  15.672 -0.8348 -0.9207  2.5239
13268TIP3   OH261218   3.773   2.826  13.631  0.7013  0.1298  0.4710
13268TIP3    H161219   3.746   2.830  13.540 -0.4472  0.8036  0.8128
13268TIP3    H261220   3.692   2.813  13.680  1.0538  1.4816  1.5034
13269TIP3   OH261221   3.921   2.862  15.618  0.2119  0.5744  0.3883
13269TIP3    H161222   3.932   2.769  15.598 -0.1041  0.9773 -1.9762
13269TIP3    H261223   3.996   2.884  15.672  1.5412 -0.5704 -0.9024
13270TIP3   OH261224   5.647   1.123   0.286 -0.3434 -0.5488  0.2815
13270TIP3    H161225   5.713   1.074   0.237 -0.4359 -1.6430  1.2172
13270TIP3    H261226   5.639   1.077   0.369 -0.4260  1.0844  1.2244
13271TIP3   OH261227   3.814   2.082   2.119 -0.0627  0.5442  0.0946
13271TIP3    H161228   3.785   1.995   2.091 -1.4528  0.9175  0.3123
13271TIP3    H261229   3.898   2.066   2.162 -0.1595 -0.6550 -0.1218
13272TIP3   OH261230   2.613   5.130   2.791 -0.0731  0.2936  0.0484
13272TIP3    H161231   2.687   5.191   2.796  0.4738 -0.4252  1.2476
13272TIP3    H261232   2.603   5.098   2.880 -0.4589 -1.2323 -0.5100
13273TIP3   OH261233   2.165   4.334   2.980 -0.0683  0.2092 -0.0395
13273TIP3    H161234   2.252   4.322   2.941 -0.0834 -0.1058  0.0231
13273TIP3    H261235   2.179   4.322   3.074 -0.2488 -0.2291 -0.0680
13274TIP3   OH261236   0.779   6.258   2.480 -0.3649 -0.1147  0.4077
13274TIP3    H161237   0.777   6.308   2.562  0.0696 -0.1164  0.4221
13274TIP3    H261238   0.779   6.166   2.508 -0.0653 -0.1142  0.4100
13275TIP3   OH261239   1.525   0.542   3.447  0.2038 -0.0331  0.2805
13275TIP3    H161240   1.519   0.624   3.398 -0.0798  0.3836  0.9942
13275TIP3    H261241   1.607   0.549   3.496  1.3988 -1.2009 -1.4295
13276TIP3   OH261242   5.492   0.646   4.169  0.3819  0.6221  0.6292
13276TIP3    H161243   5.405   0.661   4.205 -0.9986  0.9722 -2.4991
13276TIP3    H261244   5.510   0.554   4.185 -2.0122 -0.2721 -1.2830
13277TIP3   OH261245   0.931   3.680   5.818 -0.3423 -0.0874  0.0752
13277TIP3    H161246   0.933   3.776   5.814  0.4507 -0.0626  0.7145
13277TIP3    H261247   0.875   3.660   5.893 -1.0697 -0.1480 -0.4754
13278TIP3   OH261248   3.224   0.425   0.223  0.2842  0.1335  0.1890
13278TIP3    H161249   3.288   0.355   0.217 -0.9827 -1.0041 -0.4963
13278TIP3    H261250   3.175   0.406   0.303 -0.5767 -0.2308 -0.4130
13279TIP3   OH261251   5.326   5.765   5.316 -0.5471 -0.1307 -0.2480
13279TIP3    H161252   5.259   5.812   5.265 -1.4514 -1.1559 -0.0370
13279TIP3    H261253   5.285   5.751   5.401  0.6360  0.8253  0.5095
13280TIP3   OH261254   6.451   0.217  12.546 -0.2488  0.2081 -0.3909
13280TIP3    H161255   6.414   0.176  12.468  0.4250  0.3693 -0.8038
13280TIP3    H261256   6.377   0.258  12.589 -0.6007  0.2605 -1.0403
13281TIP3   OH261257   5.018   4.279   2.500 -0.4690  0.3158  0.3071
13281TIP3    H161258   4.950   4.326   2.453  0.7680  2.0034  0.0813
13281TIP3    H261259   5.100   4.307   2.459  0.4075 -1.3791  0.7780
13282TIP3   OH261260   2.138   1.603   4.116 -0.3948  1.0625 -0.3639
13282TIP3    H161261   2.089   1.560   4.047 -0.5408  0.8466 -0.1282
13282TIP3    H261262   2.149   1.693   4.086  0.7187  0.6463 -1.2979
13283TIP3   OH261263   1.295   2.103   3.872 -0.0009  0.1159  0.0492
13283TIP3    H161264   1.321   2.067   3.788 -2.0848  0.5073 -0.8383
13283TIP3    H261265   1.346   2.184   3.881  0.7632 -0.3039 -0.4823
13284TIP3   OH261266   5.541   1.960  16.560  0.1365 -0.5809 -0.1334
13284TIP3    H161267   5.531   1.883  16.504  0.8851 -1.4548  0.9072
13284TIP3    H261268   5.516   1.929  16.648  0.3906  0.3791  0.2901
13285TIP3   OH261269   2.195   0.623   0.076  0.5571  0.0603  0.1455
13285TIP3    H161270   2.260   0.667   0.131  0.6578  0.6742 -0.4435
13285TIP3    H261271   2.157   0.694   0.023  0.7514 -0.5651 -0.8591
13286TIP3   OH261272   0.004   3.501   1.763 -0.1639  0.0213 -0.1283
13286TIP3    H161273  -0.087   3.492   1.791  0.1324  0.1229  0.9279
13286TIP3    H261274   0.012   3.592   1.735 -0.0518  0.4197  1.1303
13287TIP3   OH261275   1.330   2.616   1.488 -0.3180  0.0623 -0.0948
13287TIP3    H161276   1.414   2.618   1.534  0.6577 -1.9645 -1.6274
13287TIP3    H261277   1.268   2.581   1.552  0.3866 -0.0310  0.5450
13288TIP3   OH261278   1.126   5.385  13.266 -0.2682 -0.1416 -0.4872
13288TIP3    H161279   1.194   5.440  13.305 -0.3176 -0.5608  0.2022
13288TIP3    H261280   1.172   5.337  13.197  0.5674 -1.6536  1.0478
13289TIP3   OH261281   0.635   2.590   5.119  0.0531 -0.3062 -0.3767
13289TIP3    H161282   0.710   2.593   5.060  0.8620 -0.5577  0.6083
13289TIP3    H261283   0.614   2.497   5.127 -0.7542 -0.2007 -1.1055
13290TIP3   OH261284   1.111   5.197  11.453 -0.3629 -0.5512 -0.0433
13290TIP3    H161285   1.155   5.112  11.458  0.0494 -0.4240 -1.3441
13290TIP3    H261286   1.165   5.248  11.393 -0.9715  0.4163  0.2273
13291TIP3   OH261287   5.753   1.966   5.303  0.1419  0.6849 -0.2723
13291TIP3    H161288   5.838   1.996   5.270  0.6189 -0.0681  0.2226
13291TIP3    H261289   5.714   2.044   5.342  2.0358  0.4472  2.3758
13292TIP3   OH261290   2.082   5.686   4.023 -0.4964  0.8627 -0.5546
13292TIP3    H161291   2.009   5.712   3.968  0.0189  0.7747 -1.2981
13292TIP3    H261292   2.087   5.591   4.015  0.6217  0.9931 -1.7317
13293TIP3   OH261293   5.886   5.785  14.376  0.2396 -0.8465  0.5454
13293TIP3    H161294   5.807   5.810  14.423  0.4573 -0.6638  0.8185
13293TIP3    H261295   5.895   5.851  14.307  1.3810  0.4930  1.9021
13294TIP3   OH261296   6.172   6.001   6.572 -0.0466  0.2492  0.5082
13294TIP3    H161297   6.244   5.938   6.577  0.2143  0.4263 -0.7929
13294TIP3    H261298   6.184   6.057   6.649 -0.4142 -1.4009  1.8048
13295TIP3   OH261299   4.967   4.423  15.354 -0.6381  0.6348 -0.2521
13295TIP3    H161300   4.930   4.358  15.414  0.3597 -0.5727 -0.9131
13295TIP3    H261301   5.061   4.422  15.372 -0.5089  1.3195 -0.8346
13296TIP3   OH261302   3.838   0.866  10.957 -0.6481  0.7010  0.6914
13296TIP3    H161303   3.878   0.932  11.015 -0.5642 -0.2965  1.8168
13296TIP3    H261304   3.908   0.804  10.940 -0.8590  0.6431  0.0392
13297TIP3   OH261305   1.988   5.428  15.967  0.2514 -0.6721 -0.6385
13297TIP3    H161306   2.029   5.479  15.898  0.1769 -1.6669 -1.4571
13297TIP3    H261307   2.060   5.377  16.006  0.2698 -0.2208 -0.0650
13298TIP3   OH261308   5.831   2.220  15.222 -0.7888  0.2215  0.0830
13298TIP3    H161309   5.758   2.163  15.198 -0.2998  0.1304 -1.2663
13298TIP3    H261310   5.817   2.240  15.315 -1.7353 -0.9502  0.2095
13299TIP3   OH261311   0.069   4.679   6.629 -0.0395 -0.5432 -0.6019
13299TIP3    H161312   0.046   4.602   6.577 -1.1296 -0.5811 -0.0836
13299TIP3    H261313   0.099   4.643   6.713 -2.1542 -0.3915  0.2663
13300TIP3   OH261314   3.863   3.473   1.833 -0.6896 -0.1675 -0.8711
13300TIP3    H161315   3.931   3.501   1.771 -0.1391 -0.1416 -0.2658
13300TIP3    H261316   3.784   3.520   1.805 -0.6689 -0.8151 -2.0701
13301TIP3   OH261317   4.524   0.342   2.267 -0.0918  0.1141 -0.6623
13301TIP3    H161318   4.441   0.356   2.311 -0.2785  0.3757 -1.0847
13301TIP3    H261319   4.511   0.262   2.216 -0.2800  0.4523 -1.1616
13302TIP3   OH261320   5.087   1.428   5.542  0.4857  0.0877  0.3449
13302TIP3    H161321   5.065   1.392   5.456 -0.9368  0.4534  0.5352
13302TIP3    H261322   5.149   1.365   5.579 -0.8952 -1.4865  0.1248
13303TIP3   OH261323   5.012   1.676  16.381  0.5034  0.1849 -0.1244
13303TIP3    H161324   4.919   1.698  16.380  0.3661 -0.3910 -0.2794
13303TIP3    H261325   5.056   1.759  16.402  0.1411  1.0178 -2.4204
13304TIP3   OH261326   4.528   2.058  14.734  0.4800  0.4139  0.2582
13304TIP3    H161327   4.592   2.017  14.792  1.1854 -1.8635 -1.9645
13304TIP3    H261328   4.557   2.036  14.646 -3.8751 -1.7079 -0.9198
13305TIP3   OH261329   1.473   2.487  13.926  0.3627 -0.2668  0.1306
13305TIP3    H161330   1.474   2.392  13.927 -0.2699 -0.2733  0.5528
13305TIP3    H261331   1.405   2.511  13.988 -0.5514  0.4348 -1.1054
13306TIP3   OH261332   0.531   4.349  15.137  0.2381 -0.1974 -0.1610
13306TIP3    H161333   0.462   4.306  15.188 -0.8292  1.4060 -0.1835
13306TIP3    H261334   0.595   4.377  15.202  0.7634 -1.4469 -0.1116
13307TIP3   OH261335   2.340   1.005  12.098 -0.4913 -0.4213 -0.2966
13307TIP3    H161336   2.247   1.002  12.120 -0.5390 -0.1267 -0.4497
13307TIP3    H261337   2.371   1.087  12.137 -0.2464 -0.6298 -0.0510
13308TIP3   OH261338   5.879   5.883  11.921  0.2506  0.3973 -0.2341
13308TIP3    H161339   5.963   5.854  11.886  0.6326 -0.8820  1.6036
13308TIP3    H261340   5.868   5.834  12.002 -2.8101 -0.3397 -0.9392
13309TIP3   OH261341   5.155   2.216  16.635 -0.3496  0.4004  0.0084
13309TIP3    H161342   5.143   2.277  16.563 -1.8392  0.2902  0.1480
13309TIP3    H261343   5.233   2.165  16.611  0.4011  1.7373 -0.5201
13310TIP3   OH261344   0.321   4.478   5.830 -0.4750  0.0989 -0.1025
13310TIP3    H161345   0.348   4.497   5.919  1.3763  0.7614 -0.7497
13310TIP3    H261346   0.257   4.407   5.838  1.7713 -1.8949  1.5679
13311TIP3   OH261347   0.342   0.998  11.528 -0.4978  0.0447 -0.0664
13311TIP3    H161348   0.404   0.927  11.513  0.0684  0.3942  0.5725
13311TIP3    H261349   0.354   1.057  11.454 -1.0306 -0.5628 -0.6455
13312TIP3   OH261350   0.536   5.349   2.728 -0.1346 -0.1282  0.2672
13312TIP3    H161351   0.441   5.339   2.729 -0.3809  1.5217  2.4583
13312TIP3    H261352   0.552   5.430   2.680  0.2478 -0.6210 -0.4759
13313TIP3   OH261353   2.515   5.552  11.224 -0.1858  0.0635 -0.5316
13313TIP3    H161354   2.505   5.640  11.259  0.3921 -0.6137  1.4800
13313TIP3    H261355   2.589   5.516  11.272 -0.3919 -1.5077 -1.3363
13314TIP3   OH261356   2.940   6.443  12.987  0.0554  0.1928 -0.4719
13314TIP3    H161357   2.969   6.432  12.897 -0.1215 -0.8458 -0.4111
13314TIP3    H261358   2.926   6.537  12.996 -2.1638  0.1368 -2.2432
13315TIP3   OH261359   1.915   0.902  13.386  0.7725 -0.4646 -0.1219
13315TIP3    H161360   1.933   0.891  13.479 -0.3696  0.3073  0.2003
13315TIP3    H261361   1.836   0.955  13.382 -0.3186 -2.0771 -1.5134
13316TIP3   OH261362   5.690   5.618  12.359  0.2705  0.2224 -0.0398
13316TIP3    H161363   5.623   5.598  12.424  0.9637 -1.1430  0.2887
13316TIP3    H261364   5.759   5.553  12.374  1.1758  0.8935 -1.0913
13317TIP3   OH261365   3.566   3.066   5.675 -0.4513  0.1517 -0.2038
13317TIP3    H161366   3.580   3.028   5.761 -2.6598 -0.7209 -0.1502
13317TIP3    H261367   3.558   3.160   5.691 -1.7140 -0.0873  0.7169
13318TIP3   OH261368   4.976   5.399  17.350  1.0673  0.5207 -0.0410
13318TIP3    H161369   4.937   5.402  17.263 -0.1960 -0.6227  0.4559
13318TIP3    H261370   4.926   5.462  17.401 -0.2997 -1.0287  0.6274
13319TIP3   OH261371   4.086   5.706  16.673  0.2013 -0.0521  0.2341
13319TIP3    H161372   4.011   5.764  16.682 -0.1193 -0.2030 -1.2149
13319TIP3    H261373   4.152   5.743  16.732 -0.4437  1.0346  0.3060
13320TIP3   OH261374   4.661   0.350  11.836  0.5056  0.2000  0.1636
13320TIP3    H161375   4.741   0.308  11.804  1.9108  1.1768  2.1755
13320TIP3    H261376   4.621   0.388  11.758  2.0009 -0.3113 -0.8950
13321TIP3   OH261377   4.799   1.652   5.388  0.7492  0.2807  0.7747
13321TIP3    H161378   4.794   1.690   5.476  0.3900 -0.5189  1.1063
13321TIP3    H261379   4.819   1.560   5.403 -0.7557 -0.1827  0.0951
13322TIP3   OH261380   2.990   3.462   2.774 -0.5491 -0.0054  0.0000
13322TIP3    H161381   3.065   3.450   2.716 -1.0367 -0.7136 -0.5085
13322TIP3    H261382   3.022   3.519   2.844  0.2131  0.3929 -0.6610
13323TIP3   OH261383   0.977   1.788   0.237  0.9991  0.1831  0.1430
13323TIP3    H161384   0.908   1.732   0.203 -0.4601  1.9656  0.0302
13323TIP3    H261385   1.027   1.731   0.296  1.4092 -2.0056 -2.1409
13324TIP3   OH261386   4.044   2.917  16.468 -0.1198  0.1943  0.2123
13324TIP3    H161387   3.963   2.905  16.517 -0.7073  0.0719 -0.7521
13324TIP3    H261388   4.102   2.847  16.500  0.5586  1.7804  2.7163
13325TIP3   OH261389   5.483   2.755  11.268 -0.5006  0.6220 -0.0805
13325TIP3    H161390   5.440   2.687  11.320 -0.9285  0.2585 -0.8939
13325TIP3    H261391   5.552   2.710  11.221 -1.1963  0.5969 -1.1232
13326TIP3   OH261392   5.395   0.851  16.842  0.1348 -0.4669  0.3438
13326TIP3    H161393   5.370   0.941  16.821 -1.1099 -0.6784  0.8514
13326TIP3    H261394   5.337   0.797  16.788  0.9605 -0.9716 -0.0555
13327TIP3   OH261395   1.588   2.824  13.139  0.2862  0.2103 -0.2336
13327TIP3    H161396   1.589   2.856  13.048  0.9016  3.7597  0.8522
13327TIP3    H261397   1.506   2.858  13.175  0.7003  0.0372  0.9106
13328TIP3   OH261398   5.924   1.169   5.102 -0.1475  0.2951 -0.1842
13328TIP3    H161399   5.994   1.231   5.082  1.2044 -0.7670  1.0896
13328TIP3    H261400   5.941   1.140   5.191 -2.8438  0.7802  0.5815
13329TIP3   OH261401   4.846   0.199  15.214 -0.2202 -0.2027  0.4287
13329TIP3    H161402   4.849   0.163  15.125  0.5279 -0.7176  0.6565
13329TIP3    H261403   4.754   0.222  15.227 -0.5979 -1.4270  0.0317
13330TIP3   OH261404   5.618   6.065  16.144 -0.2550  0.0067 -0.3479
13330TIP3    H161405   5.620   6.104  16.231 -1.7928 -1.2365  0.2882
13330TIP3    H261406   5.669   6.126  16.090 -0.2811  1.4405  1.1464
13331TIP3   OH261407   6.657   4.075   4.321 -0.8712  0.2731  0.5887
13331TIP3    H161408   6.749   4.050   4.331 -0.5847  1.2019  0.3928
13331TIP3    H261409   6.611   3.992   4.308  0.0275 -0.1450 -0.0158
13332TIP3   OH261410   2.564   0.957   2.950 -1.0001 -0.6469 -0.1678
13332TIP3    H161411   2.522   1.035   2.913  2.3581  1.4001 -0.0864
13332TIP3    H261412   2.564   0.974   3.045  0.2099 -0.4401 -0.1917
13333TIP3   OH261413   3.433   6.091  15.639  0.0763 -0.1684  0.3537
13333TIP3    H161414   3.374   6.165  15.652 -1.7941 -1.6615  0.9158
13333TIP3    H261415   3.383   6.030  15.585  1.5719 -1.0233 -0.1201
13334TIP3   OH261416   0.288   5.958   3.413  0.5092 -0.3087  0.2525
13334TIP3    H161417   0.355   5.920   3.357  1.9421  0.7980  1.1460
13334TIP3    H261418   0.251   6.030   3.361  0.2603 -0.6825 -0.0964
13335TIP3   OH261419   3.371   4.700   1.704 -0.3456  0.0863 -0.2515
13335TIP3    H161420   3.326   4.664   1.781  0.4855  0.7996  0.5810
13335TIP3    H261421   3.459   4.665   1.709 -0.1541  0.5069 -0.6289
13336TIP3   OH261422   4.198   5.669  13.736 -0.3983 -0.4739  0.1186
13336TIP3    H161423   4.155   5.583  13.734  2.0522 -1.7718 -1.3412
13336TIP3    H261424   4.231   5.682  13.647  1.3795  0.8495  0.9040
13337TIP3   OH261425   0.897   0.963  13.298  0.2900 -0.4416 -0.0785
13337TIP3    H161426   0.928   1.040  13.345  0.9093 -0.3049 -0.6950
13337TIP3    H261427   0.977   0.917  13.271  0.0003 -0.0701 -1.7169
13338TIP3   OH261428   2.732   0.557   2.567  0.0185  0.0545  0.2577
13338TIP3    H161429   2.777   0.473   2.554 -0.2843 -0.2271  0.9853
13338TIP3    H261430   2.795   0.610   2.616  0.6652  0.6751 -1.1852
13339TIP3   OH261431   3.790   5.429  13.629  0.2925 -0.2423  0.7734
13339TIP3    H161432   3.760   5.418  13.539 -0.3742  0.9504  0.8285
13339TIP3    H261433   3.886   5.427  13.623  0.2613  0.3858 -0.0362
13340TIP3   OH261434   3.084   5.566   1.925 -0.5194  0.0406  0.0753
13340TIP3    H161435   3.023   5.569   1.999 -0.5837 -0.8958  0.0701
13340TIP3    H261436   3.144   5.495   1.947 -0.7623 -0.4938 -0.9434
13341TIP3   OH261437   6.235   3.975   5.612 -0.3842 -0.8347 -0.4742
13341TIP3    H161438   6.164   3.994   5.673  0.5674 -1.0432  0.7495
13341TIP3    H261439   6.192   3.959   5.529 -1.6263  0.9098 -0.2228
13342TIP3   OH261440   6.073   4.368  16.309 -0.0796  0.1664 -0.5589
13342TIP3    H161441   6.071   4.362  16.405 -0.8284  2.1216 -0.3934
13342TIP3    H261442   6.006   4.306  16.280  0.2105 -0.5097  0.1667
13343TIP3   OH261443   1.080   1.619   2.612  0.2212  0.0116  0.9885
13343TIP3    H161444   1.154   1.680   2.617 -0.1413  0.6086 -0.4325
13343TIP3    H261445   1.114   1.536   2.646  1.3258  0.4735  1.0304
13344TIP3   OH261446   3.624   2.028   5.086 -0.5547 -0.4031  0.0348
13344TIP3    H161447   3.609   1.942   5.048 -0.8357 -0.5588  0.4935
13344TIP3    H261448   3.718   2.029   5.107 -0.1108  0.1626 -1.8239
13345TIP3   OH261449   4.458   1.125  11.700  0.1156 -0.2621 -0.3342
13345TIP3    H161450   4.552   1.140  11.685 -0.0772  1.0621 -0.3872
13345TIP3    H261451   4.454   1.044  11.750  1.2797 -0.4252 -0.4742
13346TIP3   OH261452   0.238   3.034   4.922 -0.1021 -0.0424 -0.6472
13346TIP3    H161453   0.232   3.130   4.919 -0.3975 -0.0852 -1.5054
13346TIP3    H261454   0.215   3.012   5.013 -0.0660  0.6958 -0.4506
13347TIP3   OH261455   0.978   2.137   0.980 -0.7410  0.1029  0.1658
13347TIP3    H161456   1.043   2.170   1.042 -1.7143  1.5839  0.4654
13347TIP3    H261457   0.905   2.198   0.988 -2.4327 -1.8124  0.2780
13348TIP3   OH261458   3.242   1.775   4.360  0.4936  0.0623  0.3882
13348TIP3    H161459   3.179   1.840   4.390  0.7495 -0.1478  1.4072
13348TIP3    H261460   3.307   1.826   4.312  0.8292  0.6102  1.3938
13349TIP3   OH261461   3.612   6.254   5.807  0.0166 -0.2098  0.3955
13349TIP3    H161462   3.606   6.327   5.869 -0.5962  0.2149 -0.1427
13349TIP3    H261463   3.527   6.211   5.812  0.9688 -2.0485  2.0529
13350TIP3   OH261464   3.561   0.810   6.367 -0.2665 -0.1553  0.0840
13350TIP3    H161465   3.592   0.728   6.329 -0.5279 -0.1586 -0.1270
13350TIP3    H261466   3.466   0.807   6.355 -1.3393 -2.9462  5.9365
13351TIP3   OH261467   5.673   5.079  13.553  0.7857  0.1023  0.7789
13351TIP3    H161468   5.756   5.125  13.551  0.4922  0.6343  0.0355
13351TIP3    H261469   5.697   4.987  13.558  1.4033  0.2798  1.1905
13352TIP3   OH261470   4.250   5.413   4.763  0.4250  0.1763 -0.1598
13352TIP3    H161471   4.224   5.460   4.842  2.2117  1.3215 -0.2218
13352TIP3    H261472   4.253   5.479   4.694  2.5259 -0.0303 -0.3456
13353TIP3   OH261473   1.182   5.263  15.150  0.1813  0.3172 -0.5003
13353TIP3    H161474   1.198   5.313  15.070 -0.1751  0.5314 -0.4392
13353TIP3    H261475   1.229   5.312  15.218  1.3699 -0.4347 -0.7446
13354TIP3   OH261476   4.581   6.094   5.690 -0.1305 -0.3713  0.4922
13354TIP3    H161477   4.515   6.026   5.702 -0.4295 -0.2146 -0.1886
13354TIP3    H261478   4.555   6.164   5.751 -0.4564 -0.4093  0.3976
13355TIP3   OH261479   1.042   6.588  15.391  0.2469  0.3862  0.7048
13355TIP3    H161480   1.136   6.568  15.394  0.3216  0.5927  0.0134
13355TIP3    H261481   1.005   6.541  15.465  1.0177  0.9221  1.4558
13356TIP3   OH261482   3.514   2.828  10.937 -0.3807 -0.1365  0.3147
13356TIP3    H161483   3.591   2.879  10.914 -1.4785  1.7565  0.6266
13356TIP3    H261484   3.440   2.888  10.925 -1.7008 -1.4904  1.1916
13357TIP3   OH261485   4.162   4.621   0.847 -0.1540 -0.0808 -0.2335
13357TIP3    H161486   4.207   4.679   0.909  0.8374 -0.4657 -0.5644
13357TIP3    H261487   4.223   4.548   0.834 -0.4822 -0.1700 -1.4081
13358TIP3   OH261488   0.725   5.914   2.163 -0.6981 -0.3318 -0.2256
13358TIP3    H161489   0.649   5.910   2.220  0.1679 -1.2289  0.9247
13358TIP3    H261490   0.730   5.827   2.123  0.2510 -0.6238  0.4751
13359TIP3   OH261491   5.078   1.351  13.029 -0.2498  0.1870  0.0843
13359TIP3    H161492   5.044   1.280  12.976 -1.3186  1.6853 -1.3304
13359TIP3    H261493   5.122   1.409  12.967 -1.4577  1.9481  0.7905
13360TIP3   OH261494   2.310   2.009   3.565  0.2847 -0.3502  0.3834
13360TIP3    H161495   2.402   1.985   3.557  0.3532 -0.0902  0.3707
13360TIP3    H261496   2.288   2.046   3.479  0.5824  0.9761  0.8510
13361TIP3   OH261497   3.168   6.642  12.799 -0.1677  0.0995  0.2640
13361TIP3    H161498   3.264   6.639  12.795 -0.1872 -1.1140  0.1932
13361TIP3    H261499   3.149   6.671  12.888  0.2656  0.3488  0.2792
13362TIP3   OH261500   4.937   4.665   1.028 -0.1945 -0.0933 -0.1365
13362TIP3    H161501   4.846   4.682   1.003 -0.4507 -3.2646 -1.9049
13362TIP3    H261502   4.977   4.632   0.948  2.5974  1.3165  0.5854
13363TIP3   OH261503   2.455   1.436   1.336  0.4962  0.5371 -0.0239
13363TIP3    H161504   2.397   1.509   1.359  1.2999  0.9066  0.9066
13363TIP3    H261505   2.520   1.435   1.406  1.7444  0.2613 -1.1655
13364TIP3   OH261506   0.760   5.342   5.494 -0.0996  0.5868  0.2090
13364TIP3    H161507   0.741   5.412   5.557  0.4365  1.3684 -0.4796
13364TIP3    H261508   0.674   5.303   5.477 -0.2470  0.2883  1.4903
13365TIP3   OH261509   0.687   4.038  15.274  0.3725  0.2467  0.0208
13365TIP3    H161510   0.603   4.021  15.233  0.6735  1.5117 -1.2157
13365TIP3    H261511   0.725   3.952  15.290 -0.7028 -0.3052 -0.3802
13366TIP3   OH261512   3.500   5.514   6.626  0.3840 -0.4268  0.5245
13366TIP3    H161513   3.552   5.577   6.577  0.4246 -0.9052 -0.0541
13366TIP3    H261514   3.561   5.443   6.646  0.3999 -0.1914  1.3750
13367TIP3   OH261515   0.371   4.736  17.096  0.3340  0.2098  0.7467
13367TIP3    H161516   0.430   4.684  17.150  0.4924 -1.3271 -0.8069
13367TIP3    H261517   0.302   4.764  17.156  0.4973 -1.4141  1.7593
13368TIP3   OH261518   6.618   3.059   0.420 -0.7482 -0.2725 -0.1215
13368TIP3    H161519   6.661   3.144   0.416  0.2590 -0.4321  3.5612
13368TIP3    H261520   6.686   2.996   0.397 -1.4052 -0.1926 -2.5183
13369TIP3   OH261521   4.246   4.580   2.487  0.9899 -0.5005  0.6406
13369TIP3    H161522   4.304   4.506   2.475  2.4370  0.9412 -2.9840
13369TIP3    H261523   4.174   4.564   2.426 -0.0840 -0.1485  1.7780
13370TIP3   OH261524   0.487   5.426  16.391  0.1230  0.0586 -0.4503
13370TIP3    H161525   0.489   5.465  16.478 -0.3745 -0.2933 -0.2753
13370TIP3    H261526   0.405   5.377  16.389 -0.1753  0.5747 -1.3395
13371TIP3   OH261527   4.405   6.616   1.184 -0.2347  0.0975  0.4597
13371TIP3    H161528   4.481   6.647   1.135 -1.4072 -0.5668 -1.9331
13371TIP3    H261529   4.335   6.677   1.162 -1.4449 -1.6504 -0.8212
13372TIP3   OH261530   4.997   3.976   0.417 -0.4800  0.4157  1.0011
13372TIP3    H161531   5.047   4.052   0.388  0.3573 -0.2370  0.6845
13372TIP3    H261532   4.913   4.012   0.446 -1.5211  1.1214 -2.4238
13373TIP3   OH261533   3.255   2.207  13.811  0.3346  0.1667  0.1869
13373TIP3    H161534   3.190   2.277  13.803 -0.2179 -0.3285  0.2802
13373TIP3    H261535   3.290   2.217  13.900 -1.3455 -1.0166  1.0440
13374TIP3   OH261536   5.615   6.332   5.728 -0.0745  0.0267  0.0146
13374TIP3    H161537   5.567   6.386   5.790 -0.6514 -0.6402  0.1617
13374TIP3    H261538   5.657   6.265   5.781  0.8938  0.4893 -0.1322
13375TIP3   OH261539   3.788   2.556   4.968  0.2316  0.0683  0.2729
13375TIP3    H161540   3.762   2.469   4.937  0.5736  0.1027 -0.1254
13375TIP3    H261541   3.705   2.602   4.980  0.0802  0.0191 -0.5079
13376TIP3   OH261542   0.256   2.255  14.792 -0.0208  0.3730  0.0704
13376TIP3    H161543   0.169   2.285  14.764 -0.8272 -1.8305 -0.0169
13376TIP3    H261544   0.302   2.234  14.710  1.7884  4.1758 -0.1144
13377TIP3   OH261545   2.293   1.876  13.340  0.3065  0.4846 -0.5012
13377TIP3    H161546   2.198   1.868  13.350  0.4735  0.1817  1.0365
13377TIP3    H261547   2.312   1.965  13.370  0.6942 -0.0703  1.0176
13378TIP3   OH261548   2.990   6.126   3.911  0.3264  0.3851 -0.1249
13378TIP3    H161549   2.897   6.150   3.907  0.5208  1.1962  0.1687
13378TIP3    H261550   3.025   6.150   3.826  0.5995  1.4835  0.2931
13379TIP3   OH261551   1.560   4.848   0.205 -0.4709 -0.3740  0.2191
13379TIP3    H161552   1.624   4.782   0.232 -0.6520 -0.6768 -0.0946
13379TIP3    H261553   1.592   4.929   0.245 -0.6937 -0.7945  1.2927
13380TIP3   OH261554   0.499   3.027   5.050  0.4209  0.9660 -0.6177
13380TIP3    H161555   0.552   2.986   4.981 -0.5381 -0.5613 -0.4900
13380TIP3    H261556   0.416   3.047   5.008  0.0844  0.6818 -0.0971
13381TIP3   OH261557   5.456   0.759  15.632  0.3397  0.5343  0.0742
13381TIP3    H161558   5.441   0.680  15.684 -2.1774  0.2740 -0.9338
13381TIP3    H261559   5.475   0.727  15.544  0.5424  1.0402 -0.0691
13382TIP3   OH261560   6.285   6.289   6.104 -0.0339  0.5211 -0.4556
13382TIP3    H161561   6.209   6.320   6.055  0.0114  0.1840 -0.7492
13382TIP3    H261562   6.345   6.257   6.036  1.4202  2.9417 -0.4376
13383TIP3   OH261563   5.771   5.312   5.712  0.7954 -0.1108 -0.1637
13383TIP3    H161564   5.828   5.342   5.782  1.9317  1.5772 -1.7210
13383TIP3    H261565   5.712   5.249   5.754  0.5307  1.7996  2.5904
13384TIP3   OH261566   5.225   1.409  12.751  0.5608 -0.1778 -0.4757
13384TIP3    H161567   5.285   1.354  12.800 -1.3886 -0.3605  1.8593
13384TIP3    H261568   5.233   1.496  12.791 -1.8885 -0.5842  1.1026
13385TIP3   OH261569   6.277   4.716   2.317 -0.0273 -0.0691 -0.3971
13385TIP3    H161570   6.241   4.629   2.299  2.2408 -0.7493 -2.1568
13385TIP3    H261571   6.276   4.723   2.412  0.5264 -2.4426 -0.1517
13386TIP3   OH261572   5.725   3.570   1.493 -0.0897  0.5727  0.2562
13386TIP3    H161573   5.705   3.636   1.559  1.2273  2.1667 -0.8314
13386TIP3    H261574   5.641   3.550   1.453 -0.8900 -0.3365  2.2821
13387TIP3   OH261575   2.440   3.534  14.340 -0.0557 -0.1410 -0.4600
13387TIP3    H161576   2.494   3.557  14.416 -1.3409  0.7620  0.2191
13387TIP3    H261577   2.477   3.452  14.308  0.0527 -0.9380  1.5900
13388TIP3   OH261578   2.383   3.534   4.365  0.0595  0.6100  0.1554
13388TIP3    H161579   2.427   3.498   4.443 -1.1900  1.1213  1.1266
13388TIP3    H261580   2.439   3.606   4.337  0.7635  0.1265  0.2865
13389TIP3   OH261581   1.632   3.543   3.348 -0.3424 -0.4372  0.1699
13389TIP3    H161582   1.598   3.466   3.302 -0.5608 -0.6378  0.6615
13389TIP3    H261583   1.727   3.530   3.351 -0.0405  0.6777 -2.2352
13390TIP3   OH261584   3.799   2.715  14.363 -0.6243 -0.2516  0.2618
13390TIP3    H161585   3.797   2.773  14.439  1.3170  0.1073  0.0910
13390TIP3    H261586   3.845   2.637  14.394  0.1571 -0.1115 -0.5266
13391TIP3   OH261587   3.510   0.398  16.480 -0.2320 -0.3617 -0.1260
13391TIP3    H161588   3.427   0.426  16.442  0.1307  2.4005  0.8617
13391TIP3    H261589   3.577   0.446  16.431  0.4241  0.9343  1.8814
13392TIP3   OH261590   5.607   6.075  13.914  0.0266  0.3637 -0.2523
13392TIP3    H161591   5.544   6.004  13.926  1.1185 -0.4983  0.6969
13392TIP3    H261592   5.661   6.047  13.840 -0.5207  0.9696 -0.8897
13393TIP3   OH261593   3.738   5.389  14.702  0.1989  0.7489  0.0582
13393TIP3    H161594   3.825   5.351  14.715 -0.0676  0.3934  0.8661
13393TIP3    H261595   3.688   5.363  14.780 -1.1884 -0.6560 -1.2149
13394TIP3   OH261596   4.731   0.878  13.269  0.6152  0.5412 -0.1553
13394TIP3    H161597   4.822   0.881  13.296  0.5945 -0.7831  0.1180
13394TIP3    H261598   4.681   0.886  13.351  0.4961  0.6757 -0.2404
13395TIP3   OH261599   4.829   5.257   1.770 -0.3326 -0.1114 -0.2606
13395TIP3    H161600   4.754   5.262   1.830  0.6404  1.3753  0.9210
13395TIP3    H261601   4.808   5.318   1.700  0.6418  2.0432  1.2077
13396TIP3   OH261602   1.038   0.736  13.663  0.5183 -0.1273 -0.2342
13396TIP3    H161603   1.046   0.747  13.758  1.1024 -2.3281  0.0227
13396TIP3    H261604   0.952   0.773  13.642 -0.0946 -0.5777  1.3335
13397TIP3   OH261605   4.604   6.605  12.178  0.4474 -0.5057  0.4450
13397TIP3    H161606   4.697   6.591  12.194  0.7540  0.8336 -0.0211
13397TIP3    H261607   4.568   6.517  12.164  1.6056 -1.0477  0.7758
13398TIP3   OH261608   0.030   2.831  14.500 -0.7644 -0.3006  0.1413
13398TIP3    H161609   0.106   2.815  14.556 -0.2129  2.2770  0.2778
13398TIP3    H261610  -0.012   2.746  14.491  1.1955 -1.4831  1.4465
13399TIP3   OH261611   5.595   4.061   3.041 -0.1928 -0.1256  0.4501
13399TIP3    H161612   5.639   4.012   3.112  0.5456 -2.1307 -1.2790
13399TIP3    H261613   5.588   4.150   3.075  3.1026 -0.2131  1.8108
13400TIP3   OH261614   6.108   1.011  14.981  0.0978  0.1985 -0.6349
13400TIP3    H161615   6.039   0.955  14.945  0.0116 -0.1535  0.0645
13400TIP3    H261616   6.062   1.070  15.041  0.3797  0.0821 -0.3005
13401TIP3   OH261617   5.937   3.315  14.001 -0.4630 -0.4167  0.2299
13401TIP3    H161618   5.968   3.230  14.032 -0.2091  0.7860  3.6244
13401TIP3    H261619   5.857   3.295  13.953  0.6779 -2.7174 -0.8818
13402TIP3   OH261620   1.250   3.912   0.554 -0.2476  0.4117 -0.5107
13402TIP3    H161621   1.220   3.948   0.637 -0.6787  0.4084 -0.6601
13402TIP3    H261622   1.328   3.964   0.532 -0.4822  0.8152 -0.4024
13403TIP3   OH261623   6.365   0.808   1.477 -0.2817  0.0389 -0.0706
13403TIP3    H161624   6.390   0.874   1.413 -0.4871  0.3587  0.1701
13403TIP3    H261625   6.439   0.748   1.481  0.3430  0.8206  0.4420
13404TIP3   OH261626   4.051   6.449  15.600 -0.2139  0.8848  0.1359
13404TIP3    H161627   4.118   6.388  15.632  2.1314  2.4658 -1.4163
13404TIP3    H261628   4.054   6.441  15.505 -0.1575  2.9971 -0.0973
13405TIP3   OH261629   2.493   0.570   4.813 -0.8026  0.1423  0.6911
13405TIP3    H161630   2.566   0.622   4.780 -0.4832  0.0026  1.1656
13405TIP3    H261631   2.436   0.557   4.737  0.0584 -0.4091  0.1223
13406TIP3   OH261632   3.985   0.138   2.322  0.6503 -0.2220  0.1675
13406TIP3    H161633   4.060   0.196   2.305  0.8897 -0.5189  0.2186
13406TIP3    H261634   4.019   0.050   2.309  0.2592 -0.3506 -0.0021
13407TIP3   OH261635   1.817   1.156   1.027  0.6447 -0.4231 -0.5445
13407TIP3    H161636   1.784   1.072   1.060  1.2453  0.2552  2.0449
13407TIP3    H261637   1.741   1.198   0.987 -0.4892 -0.8913  1.0268
13408TIP3   OH261638   3.842   3.804  13.157 -0.2159 -0.5615  0.3847
13408TIP3    H161639   3.886   3.784  13.074  1.9119  0.4498  1.1985
13408TIP3    H261640   3.820   3.897  13.150 -2.7137 -1.1166 -0.1564
13409TIP3   OH261641   2.058   3.687   0.658 -0.9613 -0.3891 -0.0019
13409TIP3    H161642   2.113   3.744   0.711  0.3070 -2.5421  1.1488
13409TIP3    H261643   1.971   3.694   0.696 -0.4082 -0.6455  1.3480
13410TIP3   OH261644   2.588   3.938  13.436 -0.1947  0.1057  0.0303
13410TIP3    H161645   2.627   3.987  13.364  0.0413 -1.1333 -0.7178
13410TIP3    H261646   2.549   4.005  13.492 -0.1396  1.1218 -1.0950
13411TIP3   OH261647   4.048   2.591   1.366 -0.2355  0.5901  0.5423
13411TIP3    H161648   4.039   2.587   1.461 -1.8713  2.2769  0.4932
13411TIP3    H261649   3.964   2.560   1.332  1.1350 -2.4900 -0.5115
13412TIP3   OH261650   3.206   2.641  13.836  0.5821 -0.6386  0.0078
13412TIP3    H161651   3.197   2.732  13.866  0.4645  0.0452 -1.9752
13412TIP3    H261652   3.161   2.590  13.903  0.9012  0.7270  1.3301
13413TIP3   OH261653   4.622   3.884  13.284  0.1744 -0.2221 -0.1956
13413TIP3    H161654   4.597   3.930  13.364 -0.1384 -1.8936  0.7256
13413TIP3    H261655   4.716   3.896  13.277  0.0217  0.9845 -0.2751
13414TIP3   OH261656   6.676   6.357   1.057 -0.5442  0.0629  0.5183
13414TIP3    H161657   6.732   6.332   1.130 -2.1510 -2.9706  0.8671
13414TIP3    H261658   6.652   6.275   1.015 -1.3563  1.5478 -2.2069
13415TIP3   OH261659   2.107   1.608  12.543 -0.0797 -0.0146 -0.3068
13415TIP3    H161660   2.109   1.701  12.568  0.1073 -0.2695  0.6550
13415TIP3    H261661   2.045   1.605  12.470 -0.3697  0.8101 -0.1115
13416TIP3   OH261662   3.104   5.523   2.343 -0.0683  0.2991 -0.1005
13416TIP3    H161663   3.093   5.618   2.340  0.5516  0.3654 -0.4418
13416TIP3    H261664   3.177   5.505   2.284  1.1799 -0.1795  1.4964
13417TIP3   OH261665   5.102   2.150   4.455  0.1140  0.6385 -0.0341
13417TIP3    H161666   5.095   2.244   4.475 -1.2117  0.6925 -0.6614
13417TIP3    H261667   5.028   2.132   4.398 -0.1286 -0.9780  0.7259
13418TIP3   OH261668   1.356   2.189  15.724 -0.1084  0.4187 -0.0921
13418TIP3    H161669   1.393   2.220  15.806  1.0952 -1.5411  0.1659
13418TIP3    H261670   1.264   2.172  15.745  0.4527 -1.2515  1.2613
13419TIP3   OH261671   3.712   1.559  14.696  0.2160  0.3066  0.7124
13419TIP3    H161672   3.719   1.511  14.779 -0.7794  0.6542  1.0131
13419TIP3    H261673   3.620   1.586  14.692  0.6228  1.6960  0.2733
13420TIP3   OH261674   2.027   2.005  17.109 -0.0778 -0.9501 -0.0915
13420TIP3    H161675   2.095   2.063  17.144  1.1249 -2.3519  0.0186
13420TIP3    H261676   1.988   1.965  17.187 -1.0698 -0.1471 -0.1532
13421TIP3   OH261677   1.858   2.634  14.472  0.2836  0.2504 -0.3729
13421TIP3    H161678   1.944   2.675  14.458  0.4001  0.6609  1.3166
13421TIP3    H261679   1.838   2.652  14.564  0.2430 -3.3254  0.4469
13422TIP3   OH261680   1.850   1.526   2.905  0.5164 -0.2198  0.0546
13422TIP3    H161681   1.879   1.435   2.898  0.1596 -0.3270 -0.0794
13422TIP3    H261682   1.907   1.565   2.971 -0.8198 -1.1726  1.8742
13423TIP3   OH261683   2.330   1.217   3.192  0.3209  0.0170 -0.0849
13423TIP3    H161684   2.394   1.174   3.248 -0.4481 -2.3375 -0.9055
13423TIP3    H261685   2.247   1.175   3.213 -0.3004  0.3498 -1.6770
13424TIP3   OH261686   4.619   6.119   0.557  0.0219 -0.3769 -0.6213
13424TIP3    H161687   4.589   6.180   0.624  0.5440 -0.1585 -0.5792
13424TIP3    H261688   4.582   6.035   0.583  0.7427 -0.4276  0.3103
13425TIP3   OH261689   4.177   6.477   3.047 -0.0536  0.2664  0.8424
13425TIP3    H161690   4.188   6.484   3.142 -0.6995  0.5552  0.8984
13425TIP3    H261691   4.145   6.387   3.034 -2.0615  0.8829  1.1209
13426TIP3   OH261692   5.854   5.704   5.909 -0.1502 -0.3521 -0.5227
13426TIP3    H161693   5.922   5.691   5.975 -0.3225 -0.3054 -0.3368
13426TIP3    H261694   5.807   5.782   5.937  0.1673  0.0262 -1.0304
13427TIP3   OH261695   3.556   2.892   0.633  0.1340  0.4120  0.3596
13427TIP3    H161696   3.600   2.957   0.688  0.6159  0.8700 -0.5474
13427TIP3    H261697   3.463   2.900   0.657  0.1479  1.6120  0.1056
13428TIP3   OH261698   3.720   6.634   0.584 -0.4433 -0.4752 -0.1318
13428TIP3    H161699   3.726   6.545   0.551  1.9028 -0.4954  0.2298
13428TIP3    H261700   3.638   6.635   0.635 -0.8341 -2.2061 -0.6723
13429TIP3   OH261701   1.569   0.899   0.876  0.7483 -0.0543 -0.4353
13429TIP3    H161702   1.608   0.917   0.962  2.8024 -2.0373 -0.8611
13429TIP3    H261703   1.617   0.956   0.816  0.2346  0.3677 -0.4455
13430TIP3   OH261704   2.232   6.727   4.834 -0.0483 -0.5981 -0.2837
13430TIP3    H161705   2.293   6.656   4.814  0.8299  0.0543  0.0355
13430TIP3    H261706   2.184   6.696   4.911 -0.4877 -1.3247 -0.8304
13431TIP3   OH261707   3.192   1.942  16.720  0.0171  0.1434 -0.3134
13431TIP3    H161708   3.129   1.936  16.647 -0.3615 -3.2594  0.1261
13431TIP3    H261709   3.275   1.962  16.678 -0.6146  0.7384 -1.3541
13432TIP3   OH261710   1.621   3.842   0.961  0.4799  0.1528  0.6478
13432TIP3    H161711   1.574   3.885   0.890  0.5035  0.2523  0.6920
13432TIP3    H261712   1.552   3.801   1.013  0.5570 -1.1043 -0.2023
13433TIP3   OH261713   4.192   0.687   4.393  0.8532 -0.3807 -0.7860
13433TIP3    H161714   4.126   0.629   4.354 -1.0909  0.4171  1.1521
13433TIP3    H261715   4.263   0.629   4.418  0.0156 -1.5781 -1.1011
13434TIP3   OH261716   5.410   4.918  12.284  0.4571 -0.1494 -0.0466
13434TIP3    H161717   5.414   4.938  12.190 -0.6586  1.6913  0.2479
13434TIP3    H261718   5.341   4.975  12.318  2.3153  0.9091  2.2891
13435TIP3   OH261719   0.905   6.518  13.522  0.1433 -0.5484  0.8621
13435TIP3    H161720   0.990   6.512  13.565 -0.2627 -0.0392  1.7740
13435TIP3    H261721   0.844   6.480  13.586 -0.3455 -0.7085  0.3097
13436TIP3   OH261722   1.644   3.394  15.873  0.0118 -0.2471  0.3741
13436TIP3    H161723   1.695   3.436  15.803  1.0039 -0.8254  0.7143
13436TIP3    H261724   1.633   3.462  15.939 -0.1787  0.0557  0.0346
13437TIP3   OH261725   2.795   2.948   5.721  0.2061 -0.3092 -0.0914
13437TIP3    H161726   2.710   2.951   5.765  0.2639 -1.0708  0.0886
13437TIP3    H261727   2.828   2.860   5.739  0.9012 -0.1204 -0.4100
13438TIP3   OH261728   2.134   6.432  13.421 -0.0709 -0.3285  0.0166
13438TIP3    H161729   2.122   6.469  13.334 -0.4393 -1.8887 -0.6186
13438TIP3    H261730   2.114   6.504  13.481  1.0183  1.0140 -1.1765
13439TIP3   OH261731   1.428   2.375   0.456 -0.1399  0.0477 -0.0364
13439TIP3    H161732   1.362   2.399   0.520  0.9177 -1.7386  1.8315
13439TIP3    H261733   1.478   2.456   0.442 -0.5231  0.5240  1.2306
13440TIP3   OH261734   1.434   5.605   1.449  0.1195 -0.0619 -0.4406
13440TIP3    H161735   1.397   5.518   1.464  0.1602  0.2510  1.6759
13440TIP3    H261736   1.364   5.665   1.472  0.6694  0.4871 -0.1834
13441TIP3   OH261737   2.319   0.553   2.168  0.5473 -0.1469 -0.2856
13441TIP3    H161738   2.385   0.523   2.105  2.8820  0.7953  1.5484
13441TIP3    H261739   2.291   0.638   2.134 -1.2209 -1.3757 -2.0693
13442TIP3   OH261740   3.165   3.625  16.342 -0.0945  0.7685 -0.2596
13442TIP3    H161741   3.117   3.691  16.291 -1.5598  0.4869  0.6848
13442TIP3    H261742   3.206   3.569  16.277 -2.1264  0.2696 -1.1901
13443TIP3   OH261743   4.581   6.361   4.113  0.0452  0.2234 -0.1027
13443TIP3    H161744   4.661   6.392   4.156  0.2960 -0.0828 -0.3425
13443TIP3    H261745   4.564   6.426   4.045  0.9022 -0.4392 -0.9947
13444TIP3   OH261746   6.000   1.672  14.217  0.0701  0.6595 -0.3689
13444TIP3    H161747   5.912   1.711  14.217  0.0973  0.7177 -0.1900
13444TIP3    H261748   6.018   1.655  14.124 -0.5484 -0.2826 -0.3323
13445TIP3   OH261749   5.777   1.529  15.503  0.1877 -0.6661  0.1760
13445TIP3    H161750   5.842   1.595  15.527 -0.3737 -0.6211  1.6954
13445TIP3    H261751   5.704   1.580  15.467 -0.0955 -0.4673  1.0067
13446TIP3   OH261752   1.323   5.741  13.667 -0.1236  0.0518  0.5496
13446TIP3    H161753   1.311   5.723  13.760 -1.8200 -1.5063  0.0785
13446TIP3    H261754   1.329   5.837  13.662  0.2562  0.1497  2.2697
13447TIP3   OH261755   2.568   3.635   2.285  0.0818  0.5140 -0.7162
13447TIP3    H161756   2.627   3.611   2.357 -1.1756  0.6500  0.4073
13447TIP3    H261757   2.581   3.567   2.219  0.2594 -0.4056  0.2377
13448TIP3   OH261758   0.487   1.107   2.718 -0.0578 -0.2385  0.3014
13448TIP3    H161759   0.496   1.198   2.746 -0.3712 -0.2805  0.5432
13448TIP3    H261760   0.401   1.104   2.675 -1.0056 -0.8902  2.1579
13449TIP3   OH261761   1.425   2.150   0.633  0.3249 -0.4554  0.0796
13449TIP3    H161762   1.515   2.118   0.637  0.2840 -0.8668 -1.4728
13449TIP3    H261763   1.419   2.192   0.547 -0.8825 -0.1837  0.2856
13450TIP3   OH261764   3.053   6.512   2.967 -0.0910  0.1850 -0.0500
13450TIP3    H161765   3.142   6.476   2.960 -0.7168 -1.9760  1.7843
13450TIP3    H261766   3.011   6.489   2.884  0.7459  0.3156 -0.5213
13451TIP3   OH261767   2.945   5.017   5.888  0.1436  0.3333  0.1935
13451TIP3    H161768   2.959   5.111   5.877 -1.5121  0.4192 -2.0262
13451TIP3    H261769   2.919   5.007   5.979  0.9668  1.9300  0.6422
13452TIP3   OH261770   4.946   2.425  13.562  0.2760 -0.0927 -0.4057
13452TIP3    H161771   5.021   2.419  13.622  0.7942 -1.7501 -1.1753
13452TIP3    H261772   4.940   2.339  13.521 -1.7066  0.1754 -0.8076
13453TIP3   OH261773   3.185   2.078   5.205  0.5981  0.5538 -0.1841
13453TIP3    H161774   3.195   2.093   5.299  0.8275 -0.6631  0.0055
13453TIP3    H261775   3.259   2.124   5.166  0.9624  0.4019  0.3086
13454TIP3   OH261776   3.036   6.348   3.756  0.0331 -0.1813 -0.4321
13454TIP3    H161777   3.086   6.353   3.675  0.0380 -0.3379 -0.4392
13454TIP3    H261778   3.019   6.439   3.780 -0.2248 -0.1400 -0.7665
13455TIP3   OH261779   6.520   5.522  15.882 -0.4975 -0.0249  0.1809
13455TIP3    H161780   6.549   5.435  15.855  0.1824  0.2317  0.0547
13455TIP3    H261781   6.456   5.548  15.817 -1.8642 -1.0536  1.0614
13456TIP3   OH261782   6.028   5.542  14.386 -0.4330 -0.2381  0.1211
13456TIP3    H161783   5.996   5.623  14.346  3.2540  0.9666 -0.7465
13456TIP3    H261784   6.102   5.515  14.332 -0.7120 -3.5325  1.1483
13457TIP3   OH261785   0.211   2.575  14.111  0.4737 -0.7825  0.3420
13457TIP3    H161786   0.258   2.647  14.154 -1.0472 -0.2333  1.1329
13457TIP3    H261787   0.228   2.589  14.017  1.2903 -0.1929  0.5605
13458TIP3   OH261788   2.513   1.133   5.169 -0.1505 -0.0804  0.1315
13458TIP3    H161789   2.502   1.228   5.174  0.0940 -0.0370 -0.1189
13458TIP3    H261790   2.579   1.120   5.101 -1.2450 -0.4897 -0.8853
13459TIP3   OH261791   4.997   6.634  15.841  0.1519 -0.0037 -0.3800
13459TIP3    H161792   5.038   6.714  15.875  1.4301 -0.0246 -1.7622
13459TIP3    H261793   4.904   6.642  15.865  0.7202  0.6243  1.7915
13460TIP3   OH261794   1.549   0.434   5.712 -0.5417 -0.6672  0.3378
13460TIP3    H161795   1.481   0.370   5.733 -0.4854 -0.5010  1.0533
13460TIP3    H261796   1.511   0.519   5.737  0.1397 -0.6315  1.3155
13461TIP3   OH261797   3.464   3.189  12.313  0.0080 -0.1623 -0.5359
13461TIP3    H161798   3.508   3.243  12.248 -0.6446  2.1492  0.8277
13461TIP3    H261799   3.534   3.139  12.354  0.8829  0.8361 -0.7629
13462TIP3   OH261800   0.994   0.975  11.062  0.5649 -0.0006  0.4344
13462TIP3    H161801   1.016   1.000  10.973  0.2994 -0.6340  0.1830
13462TIP3    H261802   0.918   0.918  11.053  0.3870  0.1191  1.0865
13463TIP3   OH261803   3.607   2.300   2.839 -0.5162  0.1942  0.2233
13463TIP3    H161804   3.532   2.352   2.813 -0.5700 -0.5818 -1.2864
13463TIP3    H261805   3.677   2.326   2.779  0.5337  1.0504  1.7226
13464TIP3   OH261806   0.489   5.741   3.620  0.4508 -0.0823 -0.0603
13464TIP3    H161807   0.394   5.744   3.631  0.5062  0.5337  0.2926
13464TIP3    H261808   0.516   5.662   3.666  0.0559 -0.5315 -0.5882
13465TIP3   OH261809   6.328   2.529  14.382 -0.0633 -0.2330  0.0739
13465TIP3    H161810   6.234   2.510  14.383 -0.6244  2.2455 -0.1784
13465TIP3    H261811   6.352   2.541  14.474 -0.1948  0.0332  0.0725
13466TIP3   OH261812   3.998   1.974  16.590 -0.4505  0.4143 -0.4767
13466TIP3    H161813   3.940   2.017  16.527 -0.8981 -1.9799 -1.8412
13466TIP3    H261814   3.959   1.887  16.603  0.4347  0.2953  2.0378
13467TIP3   OH261815   1.891   5.230   2.923 -0.9048  0.3816 -0.4756
13467TIP3    H161816   1.854   5.278   2.849  0.1685 -0.6476 -1.7283
13467TIP3    H261817   1.822   5.169   2.950 -1.1261  0.4125 -0.9639
13468TIP3   OH261818   0.915   4.704   3.166  0.2098  0.3183 -0.3031
13468TIP3    H161819   0.926   4.698   3.071 -1.6270  1.9072 -0.6869
13468TIP3    H261820   0.964   4.782   3.191 -0.6984  0.9061 -0.2686
13469TIP3   OH261821   4.787   2.792   6.121  0.6620  0.3066 -0.2481
13469TIP3    H161822   4.832   2.866   6.080  0.3972  0.3276 -0.5034
13469TIP3    H261823   4.694   2.808   6.103  0.5054  0.5285  0.6935
13470TIP3   OH261824   5.423   2.467  13.667 -0.7948 -0.0711 -0.9119
13470TIP3    H161825   5.474   2.394  13.704 -1.4200  1.0520  2.5195
13470TIP3    H261826   5.408   2.442  13.576  0.8491 -3.1937 -0.4569
13471TIP3   OH261827   4.274   0.626  12.166 -0.2745  0.0856 -0.4385
13471TIP3    H161828   4.208   0.678  12.211  0.1949  0.4905 -0.2137
13471TIP3    H261829   4.234   0.604  12.082 -0.8579 -0.0339 -0.1393
13472TIP3   OH261830   1.879   2.186  10.841 -0.3385  0.1173  0.2506
13472TIP3    H161831   1.968   2.189  10.805 -0.6812  0.9240 -0.5632
13472TIP3    H261832   1.890   2.153  10.930  0.8756  1.0740  0.4743
13473TIP3   OH261833   1.650   3.411   5.264  0.1111 -0.3858  0.4653
13473TIP3    H161834   1.591   3.413   5.340 -1.1759 -1.8316 -0.4379
13473TIP3    H261835   1.668   3.318   5.250  0.0245 -0.1861 -1.1983
13474TIP3   OH261836   4.510   1.498  16.080 -0.0788  0.6471 -1.0742
13474TIP3    H161837   4.583   1.438  16.062 -1.2489 -0.7427 -1.3546
13474TIP3    H261838   4.543   1.554  16.151  0.7831 -0.8635 -0.2183
13475TIP3   OH261839   5.110   1.931   2.772  0.2177 -0.2251 -0.1336
13475TIP3    H161840   5.027   1.888   2.750 -0.7491  1.2008  0.5116
13475TIP3    H261841   5.173   1.896   2.709 -0.8868 -1.3004 -0.6888
13476TIP3   OH261842   5.111   3.384  12.622  0.6630  0.0484 -0.1454
13476TIP3    H161843   5.171   3.392  12.697  0.1555 -0.4205  0.3229
13476TIP3    H261844   5.054   3.311  12.645  0.0913  0.3031 -0.7184
13477TIP3   OH261845   3.800   0.351  14.689 -0.1710  0.7285  0.3460
13477TIP3    H161846   3.824   0.288  14.622  3.4020  1.2286  0.9509
13477TIP3    H261847   3.803   0.301  14.771  0.4318  1.1640  0.5972
13478TIP3   OH261848   5.654   4.540   2.276 -0.1548  0.3490 -0.3202
13478TIP3    H161849   5.724   4.497   2.324 -0.2941  0.0048 -0.4213
13478TIP3    H261850   5.579   4.481   2.285  0.0572 -0.1719 -1.6868
13479TIP3   OH261851   0.904   2.158   4.988  0.4160  0.0289 -0.1234
13479TIP3    H161852   0.872   2.070   5.006 -0.7836  0.0131 -2.0383
13479TIP3    H261853   0.897   2.167   4.893  0.9642  2.0198 -0.0191
13480TIP3   OH261854   6.299   4.763  12.926 -0.2128 -0.4782  0.0423
13480TIP3    H161855   6.221   4.778  12.978  0.9491  2.9149  1.0688
13480TIP3    H261856   6.293   4.828  12.855  0.7544 -1.5090 -1.0323
13481TIP3   OH261857   2.316   6.426  16.471 -0.1434 -0.2820  0.3689
13481TIP3    H161858   2.321   6.504  16.415 -1.5948 -0.8608 -0.6348
13481TIP3    H261859   2.241   6.442  16.528  0.4076 -0.3576  1.1282
13482TIP3   OH261860   2.246   4.288   5.425  0.1920  0.0122 -0.0206
13482TIP3    H161861   2.233   4.194   5.440  0.5143  0.1250  1.0944
13482TIP3    H261862   2.231   4.328   5.511  0.7976  0.8967 -0.3082
13483TIP3   OH261863   2.792   0.962  13.440 -0.1574 -0.3908 -0.0962
13483TIP3    H161864   2.811   1.042  13.489  0.2133 -1.2507  1.2259
13483TIP3    H261865   2.715   0.926  13.483 -1.1921 -0.0531 -1.5752
13484TIP3   OH261866   1.840   4.500   4.849 -0.0328  0.1335  0.7336
13484TIP3    H161867   1.808   4.495   4.759  1.2877  1.3616  0.1543
13484TIP3    H261868   1.865   4.411   4.871  0.8934  0.0243 -0.6260
13485TIP3   OH261869   1.581   2.663  14.738  0.0792  0.0355  0.7255
13485TIP3    H161870   1.537   2.623  14.663  0.4162 -0.4119  0.7672
13485TIP3    H261871   1.513   2.715  14.780 -0.5479 -1.0479  1.0802
13486TIP3   OH261872   0.208   6.259  16.327  0.5781 -0.6792  0.0547
13486TIP3    H161873   0.154   6.196  16.375 -0.0432 -0.1545  0.0535
13486TIP3    H261874   0.234   6.323  16.394 -0.9180  0.4800 -0.4175
13487TIP3   OH261875   5.909   4.295  11.659 -0.1136 -0.4602 -0.5853
13487TIP3    H161876   5.978   4.331  11.603  0.6042 -0.4339  0.3093
13487TIP3    H261877   5.878   4.218  11.611  0.2953 -0.2793 -1.1536
13488TIP3   OH261878   4.029   1.859   0.705 -0.7812 -0.1409 -0.1810
13488TIP3    H161879   3.960   1.839   0.641 -1.3701 -1.7138  0.8763
13488TIP3    H261880   4.106   1.813   0.672 -0.1372  1.7107 -1.4242
13489TIP3   OH261881   5.564   5.078  15.796  0.4831  0.0842  0.3203
13489TIP3    H161882   5.538   5.000  15.746  0.3414  0.2431  0.1433
13489TIP3    H261883   5.655   5.093  15.770  0.9988 -0.8854  1.4760
13490TIP3   OH261884   5.639   0.319  12.257  0.7954 -0.0704  0.0139
13490TIP3    H161885   5.587   0.304  12.336  1.4759  1.9014  0.8954
13490TIP3    H261886   5.592   0.271  12.189 -0.1966 -1.2686  1.4523
13491TIP3   OH261887   6.158   0.368   2.568 -0.1963 -0.5950 -0.2969
13491TIP3    H161888   6.226   0.419   2.613 -1.2493  0.0739  0.5957
13491TIP3    H261889   6.104   0.434   2.523 -1.6849 -0.8543  1.0158
13492TIP3   OH261890   4.014   4.348   2.837  0.1548 -0.2741  0.2332
13492TIP3    H161891   3.959   4.374   2.911 -1.3850  0.1543 -1.0105
13492TIP3    H261892   4.036   4.431   2.793 -0.0641 -0.6130 -0.5355
13493TIP3   OH261893   6.538   1.039  11.820 -0.1808  0.2713 -0.4401
13493TIP3    H161894   6.552   0.961  11.874  0.3253 -0.4579 -1.5774
13493TIP3    H261895   6.512   1.004  11.734 -2.9893  1.4327 -0.1642
13494TIP3   OH261896   3.331   5.876  12.305 -0.4087  0.0281  0.6603
13494TIP3    H161897   3.307   5.922  12.385  0.0378 -0.0479  0.8396
13494TIP3    H261898   3.402   5.927  12.267 -0.9722  0.3621  0.0248
13495TIP3   OH261899   5.168   2.896   3.933  0.4418  0.7310 -0.8663
13495TIP3    H161900   5.205   2.844   3.863 -0.2220  1.2690 -1.6430
13495TIP3    H261901   5.089   2.935   3.895  0.8151  2.1475 -0.2683
13496TIP3   OH261902   2.738   2.171   1.113  0.3833  0.0604  0.0091
13496TIP3    H161903   2.768   2.257   1.143  2.6223 -0.3087 -0.9093
13496TIP3    H261904   2.815   2.133   1.070 -0.7838 -2.0757 -0.3417
13497TIP3   OH261905   2.468   1.148   2.755 -0.0249 -0.3475  0.3871
13497TIP3    H161906   2.386   1.100   2.745  1.1421 -2.7556  1.4467
13497TIP3    H261907   2.455   1.229   2.705 -2.9652 -0.6736  0.4409
13498TIP3   OH261908   3.989   5.394   2.611  0.0399 -0.0255  0.1584
13498TIP3    H161909   3.980   5.312   2.659  2.1210 -0.0474  0.5948
13498TIP3    H261910   3.992   5.367   2.519  0.7668 -0.4448  0.3036
13499TIP3   OH261911   2.342   3.789  12.070  0.5381  0.2563 -0.2006
13499TIP3    H161912   2.387   3.849  12.010 -2.3198  2.4088 -0.3746
13499TIP3    H261913   2.344   3.833  12.155  2.3674 -1.6274  0.8350
13500TIP3   OH261914   0.667   2.078  13.396  0.0091  0.5441 -0.2544
13500TIP3    H161915   0.578   2.059  13.427  0.7620 -0.3287  1.4989
13500TIP3    H261916   0.671   2.039  13.309 -1.6510  1.5426 -0.8298
13501TIP3   OH261917   1.017   0.654  17.303  0.6690  0.3691 -0.0758
13501TIP3    H161918   0.961   0.656  17.381 -0.7073 -0.8010 -0.9906
13501TIP3    H261919   1.009   0.742  17.265  0.7271  0.6987  0.6584
13502TIP3   OH261920   4.176   4.230   9.690 -0.4290  0.3463  0.9264
13502TIP3    H161921   4.245   4.240   9.625  0.2879 -2.0429  1.2296
13502TIP3    H261922   4.175   4.313   9.737 -1.2001  2.3045 -2.2466
13503TIP3   OH261923   0.558   2.204  14.025  0.2747 -0.1309  0.1616
13503TIP3    H161924   0.465   2.226  14.015 -0.5375 -2.8717  0.9335
13503TIP3    H261925   0.590   2.197  13.935 -0.3673  0.3679 -0.1215
13504TIP3   OH261926   3.829   2.318   0.196 -0.6337  0.1566 -0.2615
13504TIP3    H161927   3.746   2.273   0.212  0.3275 -1.7923 -0.5113
13504TIP3    H261928   3.879   2.306   0.277  0.0224 -0.0943 -0.6935
13505TIP3   OH261929   1.431   2.502  15.306  0.0266 -0.2858 -0.2190
13505TIP3    H161930   1.415   2.520  15.214 -2.4765  1.4984  0.4679
13505TIP3    H261931   1.487   2.574  15.336  1.2347 -1.1181 -0.4022
13506TIP3   OH261932   5.671   6.308  14.372  0.1626  0.1950  0.0319
13506TIP3    H161933   5.580   6.338  14.374 -0.7387 -2.2947  0.3524
13506TIP3    H261934   5.664   6.212  14.367  2.7792 -0.0547 -0.0133
13507TIP3   OH261935   5.888   0.430  15.623 -0.3625  0.7129 -0.1839
13507TIP3    H161936   5.811   0.487  15.610  0.2842  1.7929  0.5005
13507TIP3    H261937   5.959   0.475  15.577  0.1443  0.4256  0.3059
13508TIP3   OH261938   4.634   6.541   3.898 -0.0828 -0.0160  0.2129
13508TIP3    H161939   4.668   6.460   3.860 -1.8359  0.5680 -3.0420
13508TIP3    H261940   4.711   6.589   3.928  1.5420 -0.8310 -2.3299
13509TIP3   OH261941   3.149   4.521   0.997  0.7702 -1.5951  0.0229
13509TIP3    H161942   3.147   4.615   0.979 -1.5356 -1.5206  0.3198
13509TIP3    H261943   3.240   4.496   0.985  1.1175  0.3135 -1.9692
13510TIP3   OH261944   2.931   6.488  16.755  0.5666  0.8609 -0.0610
13510TIP3    H161945   3.022   6.515  16.768  0.3207  1.2229  1.0337
13510TIP3    H261946   2.912   6.510  16.664  1.6472  0.5493 -0.3789
13511TIP3   OH261947   0.537   2.788  14.076 -0.0721 -0.0915  0.2962
13511TIP3    H161948   0.502   2.847  14.009  0.9605  1.6721  1.2368
13511TIP3    H261949   0.481   2.802  14.152  0.2927 -0.1915  0.5834
13512TIP3   OH261950   6.685   2.702   3.494 -0.2289 -0.1245  0.0308
13512TIP3    H161951   6.620   2.670   3.556 -0.5042 -0.5226 -0.4527
13512TIP3    H261952   6.634   2.734   3.420  0.0723  0.8961  0.2471
13513TIP3   OH261953   2.434   3.248   1.066  0.6323  0.8736 -0.1275
13513TIP3    H161954   2.478   3.304   1.002  0.0912  0.4305 -0.8948
13513TIP3    H261955   2.478   3.163   1.058 -0.6938  0.2689 -1.2948
13514TIP3   OH261956   2.919   6.208   0.824 -0.4869 -0.2323 -0.2504
13514TIP3    H161957   2.880   6.136   0.775 -1.4894  0.4816 -0.5290
13514TIP3    H261958   2.894   6.191   0.915  1.9710 -1.9415  0.1700
13515TIP3   OH261959   4.604   1.189   1.918  0.5657 -0.2050 -0.0158
13515TIP3    H161960   4.520   1.216   1.956 -0.0293  0.2097 -1.5640
13515TIP3    H261961   4.659   1.267   1.924  0.2026  0.1136 -0.7346
13516TIP3   OH261962   4.555   2.362  17.148 -0.0869  0.6566  0.4997
13516TIP3    H161963   4.569   2.442  17.097  0.5304 -0.8411 -1.8120
13516TIP3    H261964   4.547   2.293  17.083  1.2466 -1.4746  2.4388
13517TIP3   OH261965   0.792   4.061  11.595 -0.2977  0.4669 -0.4417
13517TIP3    H161966   0.773   3.990  11.533  2.2499 -1.0021  0.3241
13517TIP3    H261967   0.832   4.129  11.541  0.2685 -0.0621 -0.7067
13518TIP3   OH261968   6.039   2.307   4.456 -0.5054 -0.3916 -0.0952
13518TIP3    H161969   6.047   2.375   4.389 -1.9865  0.4262  0.5076
13518TIP3    H261970   6.130   2.285   4.479  0.0415  1.6245 -0.0927
13519TIP3   OH261971   6.656   1.139  15.690  0.0213  0.0587 -0.2329
13519TIP3    H161972   6.622   1.228  15.676  0.8549  0.3512 -0.4993
13519TIP3    H261973   6.717   1.148  15.763  0.8519 -0.0848 -0.8904
13520TIP3   OH261974   0.327   5.244  13.308 -0.5400 -0.4680 -0.0223
13520TIP3    H161975   0.232   5.255  13.320 -0.4708 -1.3691  1.6345
13520TIP3    H261976   0.365   5.319  13.355 -0.4097 -0.5828  0.0551
13521TIP3   OH261977   5.129   6.450  13.739  0.4562 -0.6610 -0.3182
13521TIP3    H161978   5.178   6.377  13.778 -0.4316 -1.6139 -0.9254
13521TIP3    H261979   5.053   6.408  13.699 -0.0842  0.6209 -0.6623
13522TIP3   OH261980   6.147   1.139   0.724  0.0809  0.3200  0.0513
13522TIP3    H161981   6.197   1.074   0.773 -1.0800 -0.5277  0.1568
13522TIP3    H261982   6.057   1.128   0.754 -0.0069  2.7359  0.8886
13523TIP3   OH261983   0.116   1.227  14.806  0.8685 -0.0277  0.1143
13523TIP3    H161984   0.099   1.308  14.758  0.7385  0.8627  1.6019
13523TIP3    H261985   0.211   1.224  14.817  0.8462  0.1050  0.3522
13524TIP3   OH261986   4.840   6.486  16.933  0.1542 -0.0093  0.2643
13524TIP3    H161987   4.871   6.444  17.013  2.5965  4.0073  1.7531
13524TIP3    H261988   4.907   6.466  16.867  1.5311  1.6618  1.0792
13525TIP3   OH261989   0.290   5.964  15.088  0.0328  0.4759 -0.4517
13525TIP3    H161990   0.200   5.933  15.099  0.5192 -1.5008 -1.5359
13525TIP3    H261991   0.312   5.942  14.998  2.1767 -0.7333  0.3000
13526TIP3   OH261992   3.859   0.936  12.351 -0.1336 -1.2545  0.3741
13526TIP3    H161993   3.868   0.931  12.446 -0.2453  0.0512  0.4782
13526TIP3    H261994   3.784   0.995  12.338  1.0765  0.1486 -0.5105
13527TIP3   OH261995   3.520   4.261   1.714 -0.0495 -0.3597 -0.4074
13527TIP3    H161996   3.573   4.182   1.726 -0.5949 -0.4362  1.9231
13527TIP3    H261997   3.436   4.229   1.679 -1.1566 -1.2214  2.7411
13528TIP3   OH261998   5.250   6.633   2.748  0.3106 -0.0174  0.4888
13528TIP3    H161999   5.193   6.636   2.825  0.8931 -0.5642  0.9542
13528TIP3    H262000   5.332   6.672   2.777  0.5253 -0.1970  0.1357
13529TIP3   OH262001   3.942   6.637   5.138  0.0957 -0.2279  0.9408
13529TIP3    H162002   3.860   6.608   5.098 -0.0190  0.0572  0.9709
13529TIP3    H262003   3.980   6.697   5.074  0.0497  0.0075  1.1324
13530TIP3   OH262004   3.951   0.888  15.458  0.2398  0.0289  0.1441
13530TIP3    H162005   4.005   0.925  15.388  0.3637 -0.3026  0.0605
13530TIP3    H262006   3.990   0.922  15.538 -0.6114  1.3478  0.0244
13531TIP3   OH262007   2.611   1.421   1.731  0.2320 -0.3465 -0.0114
13531TIP3    H162008   2.557   1.397   1.806 -0.2727  0.8132  0.0253
13531TIP3    H262009   2.683   1.471   1.769 -0.7541  1.4361 -0.3825
13532TIP3   OH262010   4.675   6.732  12.447 -0.3477 -0.1637 -0.2814
13532TIP3    H162011   4.761   6.759  12.478  0.3436  0.5178 -2.5993
13532TIP3    H262012   4.684   6.638  12.428 -0.5517 -0.4062  0.7614
13533TIP3   OH262013   3.114   1.770  14.609 -0.0077  0.0579 -0.3086
13533TIP3    H162014   3.137   1.779  14.701  1.4036 -0.6860 -0.5679
13533TIP3    H262015   3.118   1.859  14.575  2.3495  0.0322 -0.2698
13534TIP3   OH262016   5.942   1.110  17.275  0.3652 -0.2762  0.2525
13534TIP3    H162017   5.924   1.196  17.313  1.3863  0.7077 -1.4007
13534TIP3    H262018   5.989   1.129  17.194  0.1010 -2.3814 -0.4405
13535TIP3   OH262019   2.533   1.252   4.384 -0.2102 -0.2928 -0.1209
13535TIP3    H162020   2.586   1.283   4.311 -0.7950 -1.1792 -0.9544
13535TIP3    H262021   2.506   1.331   4.431 -0.4619  0.3481 -1.3170
13536TIP3   OH262022   0.690   3.956  12.042  0.8691  0.3747  0.3888
13536TIP3    H162023   0.731   3.870  12.048 -0.2788 -0.1551  0.9202
13536TIP3    H262024   0.719   3.991  11.958  0.6946 -0.8783 -0.2050
13537TIP3   OH262025   5.216   2.844  16.624  0.2025  0.1492  0.1316
13537TIP3    H162026   5.132   2.848  16.671 -1.3668  2.1964 -2.5445
13537TIP3    H262027   5.217   2.924  16.571  2.7516 -1.0327 -1.7721
13538TIP3   OH262028   3.335   0.928   3.234 -0.4767 -0.1289 -0.8279
13538TIP3    H162029   3.307   1.011   3.272  1.3320  0.1478 -0.0275
13538TIP3    H262030   3.366   0.877   3.309  1.5556 -0.2359 -1.6964
13539TIP3   OH262031   6.230   4.264   5.842  0.2217 -0.1245  0.2796
13539TIP3    H162032   6.284   4.203   5.894  1.3953  1.2444  0.7336
13539TIP3    H262033   6.183   4.316   5.907  0.5592  0.6058 -0.0491
13540TIP3   OH262034   6.182   0.619  16.149  0.0975  0.0577  0.1930
13540TIP3    H162035   6.227   0.701  16.169 -0.7373  0.1474  1.9053
13540TIP3    H262036   6.089   0.638  16.164  0.0035 -1.5291  2.0299
13541TIP3   OH262037   5.598   2.233   4.658 -0.3556  1.0130  0.0476
13541TIP3    H162038   5.535   2.164   4.638  1.2862 -0.7288  0.5807
13541TIP3    H262039   5.656   2.235   4.581 -0.0451  1.3649  0.2866
13542TIP3   OH262040   0.341   3.654   1.891  0.2242 -0.0394  0.2517
13542TIP3    H162041   0.401   3.717   1.852  1.8408 -2.0431 -0.7132
13542TIP3    H262042   0.259   3.702   1.902  1.0253  1.8658 -1.5004
13543TIP3   OH262043   5.865   3.448   0.260  0.4336 -0.2844  0.1084
13543TIP3    H162044   5.797   3.386   0.284  0.0507 -0.1383 -0.5687
13543TIP3    H262045   5.817   3.523   0.223  0.9010  0.2765  0.6077
13544TIP3   OH262046   2.545   5.683   1.532 -0.5610 -0.4294  0.0459
13544TIP3    H162047   2.514   5.755   1.477  0.5331 -0.2384 -0.3384
13544TIP3    H262048   2.590   5.726   1.604 -3.6578 -0.5811  2.2826
13545TIP3   OH262049   2.470   5.996   4.943 -0.4202  0.1152 -0.0271
13545TIP3    H162050   2.547   5.962   4.989 -0.4320  1.3302  0.9369
13545TIP3    H262051   2.432   5.920   4.899  2.3218 -0.2716 -2.0208
13546TIP3   OH262052   4.141   6.604   4.623  0.2547 -0.6454 -0.2648
13546TIP3    H162053   4.108   6.612   4.712 -0.8126 -0.4053 -0.6626
13546TIP3    H262054   4.126   6.690   4.584  2.1854 -0.2468 -0.2218
13547TIP3   OH262055   2.126   6.125  17.326 -0.1745 -0.1115 -0.9983
13547TIP3    H162056   2.173   6.075  17.394 -1.0934 -0.3974 -0.5582
13547TIP3    H262057   2.184   6.121  17.250  0.5803 -0.3370 -0.4326
13548TIP3   OH262058   6.514   0.127  16.186 -0.2155 -0.0313  0.3025
13548TIP3    H162059   6.513   0.219  16.213 -0.7087  0.2511 -0.6314
13548TIP3    H262060   6.479   0.080  16.261 -0.3741  0.5909  0.6282
13549TIP3   OH262061   6.668   4.572  15.386 -0.1510 -0.1625 -0.2477
13549TIP3    H162062   6.750   4.621  15.396  0.7685 -1.7599  0.4184
13549TIP3    H262063   6.694   4.492  15.341 -0.5773 -2.4301  3.1699
13550TIP3   OH262064   5.662   3.177   2.935 -0.7840 -0.6397 -0.9735
13550TIP3    H162065   5.708   3.251   2.975 -0.2858 -0.7300 -1.3683
13550TIP3    H262066   5.595   3.153   2.999  0.7388 -1.5203  0.3581
13551TIP3   OH262067   5.265   0.451  15.149 -0.5250 -0.2630 -0.4311
13551TIP3    H162068   5.329   0.481  15.214 -0.9792 -0.9392  0.3500
13551TIP3    H262069   5.188   0.506  15.163 -0.6693 -0.4944 -0.3103
13552TIP3   OH262070   2.328   2.552  13.755  0.3199 -0.4701  0.2431
13552TIP3    H162071   2.291   2.493  13.821  0.6860  0.0773  0.9651
13552TIP3    H262072   2.409   2.584  13.796 -0.7269  1.8764  0.6474
13553TIP3   OH262073   2.055   1.877  12.562 -0.0937 -0.0216 -0.6915
13553TIP3    H162074   1.997   1.865  12.486 -0.0743  1.2903 -0.9364
13553TIP3    H262075   2.003   1.928  12.624  0.0358 -0.7413  0.0276
13554TIP3   OH262076   3.611   4.463  14.655  0.5985 -0.2064  1.0142
13554TIP3    H162077   3.572   4.499  14.735 -2.1839 -0.8920  0.0997
13554TIP3    H262078   3.631   4.372  14.678  0.5166 -0.1931  1.1437
13555TIP3   OH262079   2.372   1.005   1.403 -0.7721 -0.2090 -0.6493
13555TIP3    H162080   2.401   0.977   1.490 -1.3748 -2.3132 -1.0650
13555TIP3    H262081   2.322   1.084   1.419 -0.6201 -0.3939  0.8941
13556TIP3   OH262082   6.526   3.495   3.612  0.4137  0.5162  0.2121
13556TIP3    H162083   6.510   3.421   3.670 -1.8952 -0.0855 -1.0582
13556TIP3    H262084   6.488   3.570   3.658 -0.4351  0.2331  0.0038
13557TIP3   OH262085   2.162   2.813   2.912 -0.0763  0.3042  0.0503
13557TIP3    H162086   2.212   2.893   2.899  2.1915 -0.7905  1.4074
13557TIP3    H262087   2.127   2.820   3.001  0.4120 -0.3293  0.3002
13558TIP3   OH262088   3.091   0.736   4.431  0.6924 -0.3702  0.0492
13558TIP3    H162089   3.040   0.778   4.501 -0.4975 -0.4649 -0.7167
13558TIP3    H262090   3.161   0.798   4.412 -0.8341  1.1836 -0.8301
13559TIP3   OH262091   5.880   3.890  16.688 -0.7474 -0.4401  0.4113
13559TIP3    H162092   5.973   3.883  16.666 -0.4987  1.8498  0.5535
13559TIP3    H262093   5.842   3.808  16.656  1.3508 -1.5704  0.6316
13560TIP3   OH262094   3.925   3.766  15.210  0.4017  0.0606 -0.0517
13560TIP3    H162095   3.830   3.764  15.192  0.6109 -0.0677 -1.2170
13560TIP3    H262096   3.956   3.844  15.163  1.0820 -0.6568 -0.8073
13561TIP3   OH262097   5.860   6.537  14.892 -0.0139 -0.1532  0.2571
13561TIP3    H162098   5.901   6.513  14.974  1.9299 -0.4110 -0.7235
13561TIP3    H262099   5.899   6.622  14.870 -0.5474 -0.0620 -0.3708
13562TIP3   OH262100   5.980   2.241  14.027  0.3556  0.0450 -0.5425
13562TIP3    H162101   6.066   2.265  13.993  1.2451 -1.3546  0.6227
13562TIP3    H262102   5.994   2.160  14.075 -1.2796  0.6990  1.1767
13563TIP3   OH262103   6.600   2.257   4.621  0.4075  0.0446  0.1905
13563TIP3    H162104   6.511   2.269   4.656  0.5040 -0.1211  0.5033
13563TIP3    H262105   6.647   2.212   4.691  0.3350 -1.2145 -0.5466
13564TIP3   OH262106   5.974   0.217   1.441  0.1375  0.3121  0.0576
13564TIP3    H162107   5.940   0.196   1.527 -0.8758 -0.3388 -0.4857
13564TIP3    H262108   6.033   0.145   1.420 -1.7982 -1.0750 -0.9556
13565TIP3   OH262109   5.868   4.412   2.864 -0.2362  0.5379  0.3245
13565TIP3    H162110   5.797   4.379   2.918 -0.9189  0.0514 -0.8418
13565TIP3    H262111   5.867   4.357   2.786  2.0031 -0.0761  0.6625
13566TIP3   OH262112   1.247   2.912  16.994  0.5465 -0.3534  0.4850
13566TIP3    H162113   1.319   2.864  16.953  1.9837  0.5458  1.8274
13566TIP3    H262114   1.286   2.995  17.020 -1.3639  0.7472  0.0168
13567TIP3   OH262115   2.403   5.821   4.617  0.1132  0.3844  0.0252
13567TIP3    H162116   2.402   5.804   4.523 -0.6331 -1.9972  0.4143
13567TIP3    H262117   2.316   5.856   4.636  0.0917  0.3927 -0.0922
13568TIP3   OH262118   3.623   4.599   0.252  0.2595 -0.0604  0.2435
13568TIP3    H162119   3.616   4.605   0.347  0.0321 -2.9777  0.5026
13568TIP3    H262120   3.535   4.572   0.223  0.1643  1.3355 -0.9030
13569TIP3   OH262121   1.652   4.828  11.854 -0.0567 -0.1594  0.4179
13569TIP3    H162122   1.653   4.841  11.759 -0.9145 -1.1498  0.2511
13569TIP3    H262123   1.559   4.824  11.876  0.1253  0.3899  1.3668
13570TIP3   OH262124   5.891   0.400   1.263 -0.0958 -0.4432  0.0018
13570TIP3    H162125   5.929   0.335   1.323  0.1838  0.2309  0.5630
13570TIP3    H262126   5.806   0.422   1.301  0.6277  0.9435  0.8725
13571TIP3   OH262127   3.458   0.777  15.153  0.0717 -0.4985  0.2134
13571TIP3    H162128   3.520   0.830  15.204 -1.7827  0.8993  1.1530
13571TIP3    H262129   3.484   0.790  15.062  0.2539  1.3339  0.4832
13572TIP3   OH262130   1.934   1.281   0.656 -0.3529  0.7415 -0.1841
13572TIP3    H162131   1.901   1.220   0.590 -1.4030 -0.0929  1.0623
13572TIP3    H262132   1.996   1.230   0.708 -0.9872  0.7997  0.6607
13573TIP3   OH262133   2.818   5.463  16.874 -0.0146  0.1340  0.4670
13573TIP3    H162134   2.775   5.399  16.931  0.1842 -0.6612 -0.2572
13573TIP3    H262135   2.806   5.546  16.919 -0.7647 -0.3262  1.1559
13574TIP3   OH262136   6.441   6.483  16.193  0.0242  0.0033  0.4906
13574TIP3    H162137   6.533   6.474  16.217  0.1273  0.6687  0.3739
13574TIP3    H262138   6.436   6.445  16.105  0.2364  0.1863  0.3982
13575TIP3   OH262139   0.151   6.033  16.848  0.0748  0.3180  0.2476
13575TIP3    H162140   0.164   6.118  16.805 -1.2802  0.1768 -0.5040
13575TIP3    H262141   0.086   5.988  16.793 -0.4946 -0.5294  1.5630
13576TIP3   OH262142   0.774   6.413   0.737  0.0344  0.1836  0.1515
13576TIP3    H162143   0.767   6.459   0.654 -1.2656  2.3378  1.3564
13576TIP3    H262144   0.868   6.409   0.754  0.3267 -0.4213 -1.4485
13577TIP3   OH262145   3.443   6.565   3.019 -0.3237  0.1298 -0.3380
13577TIP3    H162146   3.387   6.507   2.967 -1.3739  1.2556 -0.5168
13577TIP3    H262147   3.413   6.653   2.997 -1.3796  0.6679  2.7487
13578TIP3   OH262148   1.655   1.232  11.717  0.0696 -0.2892  0.1365
13578TIP3    H162149   1.696   1.256  11.634 -0.7653 -0.1561 -0.2468
13578TIP3    H262150   1.637   1.138  11.707 -0.6312 -0.1326 -0.0997
13579TIP3   OH262151   2.637   6.514   1.748 -0.1264 -0.5264 -0.1555
13579TIP3    H162152   2.703   6.457   1.787  2.0863  1.8072 -0.2677
13579TIP3    H262153   2.677   6.547   1.668 -1.0773  1.5615  0.1588
13580TIP3   OH262154   2.753   6.470   4.855 -0.2795 -0.2225 -0.5970
13580TIP3    H162155   2.691   6.512   4.795 -0.3477 -2.4244 -2.1342
13580TIP3    H262156   2.838   6.478   4.812  0.4971  2.0795  1.1444
13581TIP3   OH262157   5.213   2.388   5.669  0.0973 -0.1535  0.5030
13581TIP3    H162158   5.151   2.358   5.735 -1.4075  2.6372  0.4956
13581TIP3    H262159   5.262   2.458   5.712  0.6869  0.1696 -0.6558
13582TIP3   OH262160   1.737   0.696   2.755 -0.5668 -0.1697 -0.2618
13582TIP3    H162161   1.782   0.643   2.689  0.2961 -0.0095  0.1840
13582TIP3    H262162   1.644   0.677   2.741 -0.2795 -2.3142  0.2734
13583TIP3   OH262163   4.481   5.743   5.365 -0.3652  0.5066 -0.2179
13583TIP3    H162164   4.512   5.672   5.308 -0.6791 -1.0093  1.3952
13583TIP3    H262165   4.558   5.770   5.414  0.2572  2.8730 -2.3134
13584TIP3   OH262166   5.388   3.035   1.128  0.1648 -0.3778 -0.2756
13584TIP3    H162167   5.334   2.998   1.198  0.4145  0.4547  0.3663
13584TIP3    H262168   5.437   2.960   1.094 -1.8720 -1.3059 -1.3582
13585TIP3   OH262169   3.368   2.794  16.586 -0.2620  0.1944  0.4358
13585TIP3    H162170   3.398   2.770  16.674  0.6374  1.0622  0.3949
13585TIP3    H262171   3.326   2.879  16.598 -2.7835 -0.9765  0.4824
13586TIP3   OH262172   1.329   2.505   3.727 -0.0230 -0.3652  0.0564
13586TIP3    H162173   1.337   2.600   3.739 -3.3673 -0.0169  0.4211
13586TIP3    H262174   1.395   2.468   3.786  0.7199  1.7064  0.6005
13587TIP3   OH262175   2.916   4.889   2.809 -0.1289  0.4928  0.2823
13587TIP3    H162176   2.968   4.964   2.839 -0.1051  0.7586 -0.3803
13587TIP3    H262177   2.882   4.918   2.724 -0.7465  0.0365  0.3733
13588TIP3   OH262178   0.833   3.384   0.481  0.5744 -0.1467 -0.2933
13588TIP3    H162179   0.816   3.291   0.496  0.5523 -0.1993 -0.6430
13588TIP3    H262180   0.756   3.415   0.433 -0.6373  0.6277  1.9682
13589TIP3   OH262181   2.380   6.209  11.366 -0.5994  0.6606 -0.2378
13589TIP3    H162182   2.354   6.221  11.457 -0.9614 -0.8551 -0.1215
13589TIP3    H262183   2.438   6.133  11.367  0.5675  1.4915 -1.0873
13590TIP3   OH262184   3.860   3.490   2.649  0.0688 -0.2933  0.4629
13590TIP3    H162185   3.929   3.518   2.588  0.9654 -2.1212  0.5520
13590TIP3    H262186   3.887   3.526   2.734  0.1432  0.1930  0.2357
13591TIP3   OH262187   1.061   5.532   4.408 -0.8534  0.2567  0.7693
13591TIP3    H162188   1.127   5.599   4.389  0.0343 -0.8790 -0.3105
13591TIP3    H262189   1.029   5.506   4.321 -1.3305 -0.5698  1.1882
13592TIP3   OH262190   5.472   4.938  10.842  0.3252  0.0027  0.2653
13592TIP3    H162191   5.378   4.923  10.842  0.5394 -1.7102 -1.5160
13592TIP3    H262192   5.487   4.995  10.766  0.6833  0.7601  0.8883
13593TIP3   OH262193   4.954   4.104   5.400  0.1116  0.5555 -0.6880
13593TIP3    H162194   5.047   4.120   5.383 -0.0667  1.6512 -0.7365
13593TIP3    H262195   4.910   4.125   5.317 -0.2736  1.0557 -0.3651
13594TIP3   OH262196   2.398   5.058   1.828 -0.4197  0.4499 -0.1065
13594TIP3    H162197   2.390   4.966   1.800  1.1085  0.1492  0.3536
13594TIP3    H262198   2.310   5.094   1.814 -1.0557 -1.0663 -0.3257
13595TIP3   OH262199   4.144   3.421  16.678  0.2329 -0.6240 -0.0094
13595TIP3    H162200   4.161   3.493  16.617 -1.5199 -0.8978 -0.8797
13595TIP3    H262201   4.085   3.457  16.743  1.7761 -0.4521  1.3766
13596TIP3   OH262202   3.851   3.043  11.324 -0.1800  0.0318  0.0770
13596TIP3    H162203   3.779   3.027  11.263 -1.7385  3.0210  0.9610
13596TIP3    H262204   3.817   3.015  11.409  0.3010  0.0508  0.2783
13597TIP3   OH262205   2.406   2.668   0.950 -0.0763  0.0656  0.4509
13597TIP3    H162206   2.325   2.659   1.000 -0.8171 -0.4414 -0.8081
13597TIP3    H262207   2.473   2.687   1.017 -0.8190 -1.6659  1.7824
13598TIP3   OH262208   6.237   6.517  15.050 -0.2599 -0.0553  0.2356
13598TIP3    H162209   6.323   6.533  15.089 -1.0088 -0.2377  2.0528
13598TIP3    H262210   6.256   6.493  14.960  1.4689  1.7254  0.0637
13599TIP3   OH262211   5.757   1.128  16.718 -0.2160 -0.3809 -0.1027
13599TIP3    H162212   5.835   1.103  16.667  0.1636 -0.4407  0.4949
13599TIP3    H262213   5.764   1.222  16.728  1.0745 -0.6322  1.9745
13600TIP3   OH262214   3.893   6.342   2.957  0.1711  0.5292  0.2825
13600TIP3    H162215   3.804   6.375   2.945 -0.1266 -0.7252 -1.4251
13600TIP3    H262216   3.949   6.413   2.927 -0.3194  0.7047 -0.2334
13601TIP3   OH262217   5.565   3.423  11.837  0.2184  0.1218 -0.0715
13601TIP3    H162218   5.578   3.502  11.889  0.9132  0.5714 -0.9119
13601TIP3    H262219   5.522   3.453  11.757 -0.4214 -0.4991  0.0214
13602TIP3   OH262220   3.616   1.106  14.663 -0.0222  0.0541  0.7323
13602TIP3    H162221   3.709   1.124  14.673 -0.1892  0.3013  2.0442
13602TIP3    H262222   3.611   1.011  14.648  0.4857  0.1811 -0.3147
13603TIP3   OH262223   1.792   3.082  10.455  0.0866 -0.1537 -0.6316
13603TIP3    H162224   1.875   3.039  10.435  0.2965  1.0490 -2.7022
13603TIP3    H262225   1.729   3.043  10.394 -0.1073  1.1764 -1.3203
13604TIP3   OH262226   6.723   5.271   5.675 -0.6552 -0.7083 -0.2123
13604TIP3    H162227   6.785   5.248   5.744  0.2130 -1.3933 -1.1986
13604TIP3    H262228   6.682   5.188   5.650 -2.3142 -0.2086  0.7169
13605TIP3   OH262229   5.564   5.320   0.110  0.0172  0.2180 -0.1786
13605TIP3    H162230   5.617   5.387   0.153 -0.2863  1.0267 -1.0354
13605TIP3    H262231   5.611   5.238   0.126  0.1210  0.5476  1.3251
13606TIP3   OH262232   3.004   4.481   4.408  0.6030  0.1187  0.3624
13606TIP3    H162233   3.025   4.478   4.315 -1.6390 -2.5129 -0.2009
13606TIP3    H262234   3.086   4.461   4.452  0.9072 -2.9705 -1.3252
13607TIP3   OH262235   0.784   0.818  11.800  0.9243  0.6340  0.2663
13607TIP3    H162236   0.826   0.794  11.717 -1.5970  0.2725 -1.0145
13607TIP3    H262237   0.771   0.912  11.794 -1.2552  0.3478 -0.8873
13608TIP3   OH262238   1.719   5.622   1.443  0.1975  0.3234 -1.1422
13608TIP3    H162239   1.627   5.643   1.462 -0.0497 -0.1986 -1.7371
13608TIP3    H262240   1.724   5.527   1.448  0.5488  0.2972 -1.7773
13609TIP3   OH262241   0.753   6.128   5.666  0.6481  0.0086 -0.3782
13609TIP3    H162242   0.741   6.070   5.592 -0.6665 -1.0384  0.6116
13609TIP3    H262243   0.712   6.210   5.639  1.6351  0.1915 -1.4028
13610TIP3   OH262244   3.429   1.399   2.624 -0.3875  0.2615  0.8729
13610TIP3    H162245   3.408   1.490   2.645  1.0580  1.0264 -0.7649
13610TIP3    H262246   3.392   1.349   2.696 -0.3993  2.2270  2.3195
13611TIP3   OH262247   6.011   5.558   2.372 -0.1214  0.6740 -0.5062
13611TIP3    H162248   6.074   5.611   2.323 -0.1751  0.3289 -0.9559
13611TIP3    H262249   6.013   5.594   2.461  0.5966  0.7610 -0.5564
13612TIP3   OH262250   1.734   0.693  14.578  0.1285  0.5312  0.0971
13612TIP3    H162251   1.760   0.607  14.543  0.2063 -0.0218  1.4508
13612TIP3    H262252   1.697   0.739  14.503 -1.5194 -1.3232 -0.3162
13613TIP3   OH262253   2.723   3.506  14.837 -0.3201  0.0322  0.1453
13613TIP3    H162254   2.767   3.576  14.884 -1.5486 -0.6220  2.4070
13613TIP3    H262255   2.771   3.427  14.861 -1.0421 -0.3317  0.4156
13614TIP3   OH262256   5.144   3.986   4.035  0.1306  0.2094 -0.1922
13614TIP3    H162257   5.082   3.919   4.065  0.0135 -1.5749 -3.9129
13614TIP3    H262258   5.218   3.978   4.095 -1.6928 -0.0183  2.2246
13615TIP3   OH262259   3.263   4.327  11.366 -0.1156 -0.4862 -0.2331
13615TIP3    H162260   3.277   4.390  11.437 -0.5057  0.8368 -1.3057
13615TIP3    H262261   3.290   4.243  11.404 -2.2575 -0.2023  2.2149
13616TIP3   OH262262   3.118   2.097  10.712  0.0929  0.4869  0.2085
13616TIP3    H162263   3.201   2.145  10.711  0.7028 -0.5397 -0.0356
13616TIP3    H262264   3.089   2.102  10.803  0.8547  0.1393  0.4733
13617TIP3   OH262265   3.419   2.390   0.997  0.3798 -0.2915  0.5554
13617TIP3    H162266   3.498   2.336   0.983 -0.4406 -1.1649 -0.9093
13617TIP3    H262267   3.416   2.447   0.921 -0.2312 -0.0379  0.7719
13618TIP3   OH262268   5.961   6.638   2.285 -0.1013 -0.1993  0.0352
13618TIP3    H162269   5.876   6.604   2.256  0.5518 -1.3595 -0.5593
13618TIP3    H262270   6.014   6.644   2.205  0.9112 -1.0698  0.6221
13619TIP3   OH262271   3.950   1.259   4.033  0.0675 -0.1057 -0.4125
13619TIP3    H162272   3.977   1.172   4.003 -2.5046 -0.2822 -2.6178
13619TIP3    H262273   3.856   1.251   4.048  0.0955  1.8463  1.2588
13620TIP3   OH262274   6.471   3.771  13.572 -0.2738  0.5382 -0.1012
13620TIP3    H162275   6.381   3.799  13.553  0.1669  1.6601 -0.6471
13620TIP3    H262276   6.494   3.713  13.500 -0.8641 -0.5106  0.5284
13621TIP3   OH262277   4.155   2.260  17.308 -0.3504  0.3639 -0.1621
13621TIP3    H162278   4.101   2.262  17.229 -2.1317 -0.5051  0.9811
13621TIP3    H262279   4.101   2.300  17.376  1.1055  0.9813  0.6861
13622TIP3   OH262280   0.840   2.093   4.726  0.0620  0.4780 -0.1388
13622TIP3    H162281   0.857   2.143   4.647 -1.8120  0.3714 -0.6631
13622TIP3    H262282   0.745   2.085   4.729  0.1479 -0.3646  1.6075
13623TIP3   OH262283   5.178   4.237   5.473 -0.4318  0.6827  0.3786
13623TIP3    H162284   5.167   4.329   5.495 -1.6161  0.4314  0.8887
13623TIP3    H262285   5.142   4.190   5.548  2.3585 -0.2489  1.2944
13624TIP3   OH262286   6.003   1.264  12.325 -0.4929  0.2574  0.5510
13624TIP3    H162287   6.087   1.259  12.279  1.1660 -0.1437  3.3708
13624TIP3    H262288   5.950   1.324  12.273  2.1509  1.8688 -0.4555
13625TIP3   OH262289   4.775   2.623   4.181 -0.0773 -0.2784  0.0806
13625TIP3    H162290   4.691   2.666   4.197 -0.1530  0.0712 -1.1589
13625TIP3    H262291   4.834   2.693   4.152  0.6174 -0.5369  0.8221
13626TIP3   OH262292   4.160   6.231   2.941 -0.2181 -0.4582 -0.4648
13626TIP3    H162293   4.206   6.177   2.877  0.4208 -2.1237  1.3211
13626TIP3    H262294   4.067   6.221   2.919  0.0136 -0.3765 -1.5595
13627TIP3   OH262295   3.035   3.941  17.063 -0.4885  0.1268 -0.6810
13627TIP3    H162296   3.099   4.010  17.082 -0.6675  0.0382  0.3032
13627TIP3    H262297   2.963   3.988  17.020 -0.0200  0.3237 -1.2579
13628TIP3   OH262298   3.630   4.229   1.075 -0.3796 -0.3095  0.0711
13628TIP3    H162299   3.559   4.232   1.011  0.0998  2.3424 -0.4575
13628TIP3    H262300   3.589   4.258   1.157 -0.2028 -0.0653  0.0741
13629TIP3   OH262301   2.356   2.459  11.521  0.2587  0.6803  0.1319
13629TIP3    H162302   2.273   2.439  11.477 -0.8979  3.2780  0.9346
13629TIP3    H262303   2.352   2.410  11.603 -1.0126  1.5683  0.6388
13630TIP3   OH262304   0.508   4.472  15.457 -0.2580  0.2747  0.2251
13630TIP3    H162305   0.535   4.545  15.401 -1.2939  0.8266  0.4147
13630TIP3    H262306   0.415   4.487  15.472 -0.5848 -1.2997 -0.0450
13631TIP3   OH262307   5.978   1.189  14.657  0.1650  0.0491  0.0849
13631TIP3    H162308   6.001   1.281  14.669 -1.4710  0.4906  0.0681
13631TIP3    H262309   5.895   1.179  14.704  1.2442 -1.9075  1.7613
13632TIP3   OH262310   0.256   4.539  17.363 -0.1480 -0.1368 -0.0035
13632TIP3    H162311   0.286   4.544  17.454  1.6287  0.3969 -0.5664
13632TIP3    H262312   0.333   4.507  17.314 -1.3586 -1.4122 -1.1965
13633TIP3   OH262313   6.330   2.200   3.031 -0.8258  0.5669  0.6601
13633TIP3    H162314   6.378   2.283   3.036  0.3245  0.0028 -0.6835
13633TIP3    H262315   6.242   2.223   3.062 -0.9581  2.6486 -1.0010
13634TIP3   OH262316   0.546   5.556  11.850  0.6115 -0.1958 -0.0259
13634TIP3    H162317   0.569   5.612  11.776  0.5276 -1.4570 -1.0503
13634TIP3    H262318   0.620   5.563  11.909  0.3151  1.4844  0.1863
13635TIP3   OH262319   3.946   1.331  11.778  0.1128 -0.9363  0.2906
13635TIP3    H162320   4.000   1.367  11.848 -0.6464  0.9068 -0.0201
13635TIP3    H262321   4.004   1.330  11.701 -0.0448  0.2952  0.1427
13636TIP3   OH262322   6.034   0.007  16.534 -0.7505 -0.6404 -0.4625
13636TIP3    H162323   5.950   0.012  16.489 -0.9193  0.7228 -0.0533
13636TIP3    H262324   6.045   0.094  16.574  0.1342 -1.2810  0.7735
13637TIP3   OH262325   4.100   1.888   3.402  0.4709  0.1290 -0.0783
13637TIP3    H162326   4.158   1.831   3.453  1.9580  0.8900 -0.8278
13637TIP3    H262327   4.160   1.946   3.354 -0.9509  1.4706 -0.3243
13638TIP3   OH262328   3.008   4.119   0.934 -0.1222  0.5404 -0.2794
13638TIP3    H162329   3.007   4.050   1.001  0.1832 -0.0855 -0.9061
13638TIP3    H262330   2.979   4.198   0.980  0.2718  0.1648  0.6422
13639TIP3   OH262331   2.781   1.182  16.023  0.4169 -0.3286  0.0704
13639TIP3    H162332   2.771   1.114  15.957 -0.5943  0.4773 -0.6360
13639TIP3    H262333   2.718   1.159  16.091  1.7214 -1.3677  0.9794
13640TIP3   OH262334   1.536   1.865   2.642  0.7026 -0.3649  0.2490
13640TIP3    H162335   1.563   1.939   2.697 -2.5224  0.2867  1.1450
13640TIP3    H262336   1.497   1.906   2.565 -3.0046 -0.9165  1.6711
13641TIP3   OH262337   0.361   1.294   3.656  0.4775  0.1520 -0.0946
13641TIP3    H162338   0.310   1.233   3.604 -1.7924  1.1174  0.8326
13641TIP3    H262339   0.444   1.250   3.671  0.6826 -0.7248 -3.2619
13642TIP3   OH262340   3.466   2.401   3.183 -0.0992  0.1706  0.1843
13642TIP3    H162341   3.473   2.460   3.108 -1.1653  0.3146  0.1805
13642TIP3    H262342   3.381   2.358   3.172  0.7329 -1.5149  0.0819
13643TIP3   OH262343   3.818   0.590   1.004 -0.3306 -0.3386  0.0629
13643TIP3    H162344   3.900   0.631   1.032 -1.2133  0.7890  1.0846
13643TIP3    H262345   3.841   0.544   0.923  1.3962 -0.3848  0.5516
13644TIP3   OH262346   3.630   0.953  17.394  0.5613  0.5111  0.1686
13644TIP3    H162347   3.539   0.925  17.411 -0.0964  1.5108 -1.4909
13644TIP3    H262348   3.653   1.007  17.470 -1.0224  1.9989 -0.3458
13645TIP3   OH262349   6.213   5.454   4.619 -0.2642 -0.2514  0.1915
13645TIP3    H162350   6.232   5.532   4.567 -0.4953 -1.5372 -1.8893
13645TIP3    H262351   6.255   5.472   4.704 -0.8779  2.3848  0.0194
13646TIP3   OH262352   0.961   6.426  12.731  0.3752  0.1799 -0.0773
13646TIP3    H162353   0.875   6.467  12.737  0.1654 -0.2315 -0.2024
13646TIP3    H262354   1.023   6.499  12.724  0.4861  0.7472  4.3629
13647TIP3   OH262355   4.262   5.941   0.099 -0.3519  0.0101 -0.0109
13647TIP3    H162356   4.329   5.986   0.150  0.0221  1.0558 -1.3694
13647TIP3    H262357   4.301   5.855   0.079  0.7884  0.7286 -1.0852
13648TIP3   OH262358   2.827   3.771  13.491  0.2874 -0.1984 -0.0152
13648TIP3    H162359   2.752   3.798  13.438  0.0848 -1.0559 -0.1901
13648TIP3    H262360   2.797   3.691  13.535  0.4863  0.4521  1.3279
13649TIP3   OH262361   3.090   4.330  11.984  0.9219  0.4202  0.4132
13649TIP3    H162362   3.066   4.420  11.962 -1.0847 -0.0376  0.5121
13649TIP3    H262363   3.175   4.337  12.027  0.4253  2.3593  1.1557
13650TIP3   OH262364   4.050   4.451  14.353 -0.6344 -0.2383  0.3748
13650TIP3    H162365   4.018   4.518  14.292 -1.1601  0.4889  1.4141
13650TIP3    H262366   4.058   4.372  14.300  0.2049  0.6798 -0.9381
13651TIP3   OH262367   4.634   0.701   4.999 -0.2659 -0.4174 -0.2194
13651TIP3    H162368   4.673   0.761   5.062  2.0906 -0.8232 -1.1771
13651TIP3    H262369   4.652   0.614   5.034 -1.7131 -0.6218  0.0671
13652TIP3   OH262370   5.107   0.103  16.013  0.0502 -0.0259  0.2288
13652TIP3    H162371   5.084   0.114  16.105 -0.0868  0.4949  0.1337
13652TIP3    H262372   5.070   0.180  15.969 -0.4138 -0.5660 -0.3551
13653TIP3   OH262373   2.817   1.884  14.699 -0.5554  0.1495  0.6022
13653TIP3    H162374   2.767   1.862  14.620 -1.7220  0.2770  1.2812
13653TIP3    H262375   2.778   1.966  14.729  0.8398  0.8613  0.5275
13654TIP3   OH262376   5.383   1.712   3.629  0.8127  0.2114 -0.0752
13654TIP3    H162377   5.307   1.758   3.594  1.5686  1.4026 -0.1844
13654TIP3    H262378   5.360   1.695   3.720  0.3989  0.5231 -0.1151
13655TIP3   OH262379   3.659   5.317  14.968 -0.0188  0.6156 -0.1036
13655TIP3    H162380   3.621   5.379  15.030  0.8994 -0.1569  1.2716
13655TIP3    H262381   3.751   5.312  14.992  0.4841  0.6769 -1.8746
13656TIP3   OH262382   6.673   6.576   5.630  0.3716 -0.5952 -0.4586
13656TIP3    H162383   6.689   6.663   5.668 -1.1079 -1.2417  1.8531
13656TIP3    H262384   6.641   6.594   5.542  0.4414  1.1929 -0.1596
13657TIP3   OH262385   3.190   3.642  13.325  0.7620  0.0176 -0.7128
13657TIP3    H162386   3.171   3.696  13.401 -0.3913 -1.6000  0.2253
13657TIP3    H262387   3.124   3.667  13.260  0.6345  0.1838 -0.5215
13658TIP3   OH262388   4.613   4.298  15.644 -0.2534  0.4748  0.2123
13658TIP3    H162389   4.661   4.374  15.677  0.4812 -0.1540  0.6229
13658TIP3    H262390   4.680   4.245  15.602 -0.5396 -0.5352  1.0002
13659TIP3   OH262391   2.200   0.886   3.759  0.1334  0.2666  0.4594
13659TIP3    H162392   2.224   0.799   3.726 -1.2030  0.2490 -0.5531
13659TIP3    H262393   2.233   0.947   3.692  0.3579  0.4918  0.7690
13660TIP3   OH262394   5.804   2.967  11.291  0.5388 -0.5398  0.0094
13660TIP3    H162395   5.794   2.991  11.384  1.6632  0.0542 -0.0106
13660TIP3    H262396   5.730   3.009  11.248 -0.1398 -1.0237  0.6626
13661TIP3   OH262397   6.049   2.011   5.782 -0.0582  0.5400  0.1654
13661TIP3    H162398   5.989   2.057   5.841  0.8967  2.4022 -0.2197
13661TIP3    H262399   6.009   2.021   5.695 -1.4156 -2.1160  0.3887
13662TIP3   OH262400   5.322   3.420  10.787 -0.7499 -0.2790 -0.0992
13662TIP3    H162401   5.241   3.470  10.790  0.5949  2.0012  1.3462
13662TIP3    H262402   5.378   3.469  10.727 -0.1955 -1.4879 -0.6084
13663TIP3   OH262403   1.121   2.140  14.678  0.5521  0.6316 -0.6276
13663TIP3    H162404   1.136   2.104  14.765  1.9142 -1.4746 -1.6520
13663TIP3    H262405   1.026   2.141  14.667  0.3584  1.1578  0.9384
13664TIP3   OH262406   3.767   6.638   2.661  0.2818  0.2378 -0.0294
13664TIP3    H162407   3.742   6.591   2.740 -2.2134  1.0495 -0.2534
13664TIP3    H262408   3.816   6.574   2.609 -0.9167 -1.3356  0.7194
13665TIP3   OH262409   2.252   5.415  15.426 -0.1407 -0.2982  0.2214
13665TIP3    H162410   2.339   5.376  15.439 -0.0310  0.1622  0.9495
13665TIP3    H262411   2.241   5.417  15.331  1.6461  1.7494 -0.0237
13666TIP3   OH262412   3.326   4.698  17.050  0.1447 -0.4581  0.0231
13666TIP3    H162413   3.386   4.747  16.993 -0.2760  1.8106  1.3960
13666TIP3    H262414   3.245   4.693  16.999 -0.1172  1.2310  0.1930
13667TIP3   OH262415   4.713   2.503   6.198  0.0824  0.0552 -0.3361
13667TIP3    H162416   4.747   2.548   6.121 -2.0799  0.2171 -1.2813
13667TIP3    H262417   4.732   2.411   6.183  1.3260  0.2683 -0.1396
13668TIP3   OH262418   6.683   4.241   3.718 -0.1339 -0.3044 -0.2940
13668TIP3    H162419   6.636   4.257   3.801  1.6188  1.4248  0.4273
13668TIP3    H262420   6.647   4.306   3.658 -0.4606 -0.6840 -0.5148
13669TIP3   OH262421   1.446   5.391   0.542  0.2749  0.2846 -0.1396
13669TIP3    H162422   1.404   5.326   0.485  1.3193 -0.8715  0.3425
13669TIP3    H262423   1.445   5.472   0.492 -1.0261 -0.1171 -0.7929
13670TIP3   OH262424   1.819   2.351   2.789  0.1824 -0.3251 -0.3351
13670TIP3    H162425   1.754   2.357   2.859  0.9083  0.8531  0.2904
13670TIP3    H262426   1.899   2.324   2.834  0.4562 -0.4004 -0.8643
13671TIP3   OH262427   2.158   0.993  10.746 -0.1568 -0.8113 -0.4663
13671TIP3    H162428   2.155   0.905  10.783 -0.8848 -0.6110 -0.0322
13671TIP3    H262429   2.073   1.032  10.768  0.0285 -0.1122 -0.9308
13672TIP3   OH262430   2.725   5.794   3.783  0.0889 -0.1862  0.0380
13672TIP3    H162431   2.770   5.822   3.703 -0.0768  2.1856  0.6880
13672TIP3    H262432   2.790   5.744   3.831  0.7700 -0.0843 -0.7584
13673TIP3   OH262433   5.410   4.606  11.685  1.2902 -0.0714  0.3506
13673TIP3    H162434   5.422   4.511  11.693  2.8003  0.1345  0.9175
13673TIP3    H262435   5.399   4.636  11.775 -2.4982 -0.0034  0.0415
13674TIP3   OH262436   5.385   5.263  15.856 -0.6778  0.6593 -0.4247
13674TIP3    H162437   5.457   5.200  15.844  0.0741  1.6034 -1.0213
13674TIP3    H262438   5.347   5.240  15.941  1.3644  1.1382  0.6808
13675TIP3   OH262439   0.532   6.220  17.121 -0.2884 -0.4251  0.0202
13675TIP3    H162440   0.459   6.278  17.101 -1.1825 -1.3978  0.3749
13675TIP3    H262441   0.492   6.146  17.167  0.8106 -1.3337 -0.4376
13676TIP3   OH262442   3.921   0.857   5.883 -0.0836  0.4292  0.1917
13676TIP3    H162443   3.914   0.762   5.895 -0.7020  0.2192 -1.5499
13676TIP3    H262444   3.836   0.891   5.913 -0.7714  0.1530 -1.3656
13677TIP3   OH262445   6.223   5.794  13.689  0.1746  0.1763 -0.4702
13677TIP3    H162446   6.228   5.802  13.784 -0.1942 -1.9243 -0.2190
13677TIP3    H262447   6.314   5.783  13.661  0.2938  0.9120 -0.3892
13678TIP3   OH262448   6.307   1.237  17.173 -0.3455 -0.7993  0.2457
13678TIP3    H162449   6.306   1.287  17.091  0.4690 -1.2114 -0.0368
13678TIP3    H262450   6.376   1.172  17.159 -0.0581 -0.7390  1.3458
13679TIP3   OH262451   6.743   3.529  11.226 -0.3976  0.5789 -0.3713
13679TIP3    H162452   6.785   3.446  11.204  0.0714 -0.0463  2.4917
13679TIP3    H262453   6.689   3.509  11.302 -1.0278  2.7127 -0.2070
13680TIP3   OH262454   4.873   5.636   4.567 -0.0095  0.6397 -0.1399
13680TIP3    H162455   4.834   5.567   4.621 -0.5060 -0.4852 -1.8448
13680TIP3    H262456   4.966   5.634   4.588  0.0767 -0.9560 -0.5467
13681TIP3   OH262457   0.249   5.335   2.712 -0.2429  0.2883 -0.0822
13681TIP3    H162458   0.233   5.266   2.776  1.3282 -1.3397 -1.3324
13681TIP3    H262459   0.214   5.302   2.630 -1.1553  1.8250 -0.3615
13682TIP3   OH262460   6.588   2.406  16.235  0.5128  0.6338 -0.2200
13682TIP3    H162461   6.553   2.495  16.243 -0.8596  0.4156 -2.6477
13682TIP3    H262462   6.511   2.350  16.242  0.9718 -0.1629 -1.3124
13683TIP3   OH262463   3.377   4.184  15.910 -0.0991  0.4738 -0.3208
13683TIP3    H162464   3.300   4.197  15.965  0.7601  0.1841  0.9912
13683TIP3    H262465   3.341   4.150  15.827 -1.3783  0.4081  0.2319
13684TIP3   OH262466   6.314   6.300   5.229 -0.0462  0.2594  0.1888
13684TIP3    H162467   6.336   6.386   5.195 -1.3925 -0.6519 -3.4323
13684TIP3    H262468   6.336   6.239   5.159 -3.6633 -1.7872  0.5289
13685TIP3   OH262469   6.383   2.866  12.571  0.4266  0.4351 -0.2229
13685TIP3    H162470   6.319   2.936  12.563  1.2324  1.1625 -0.5188
13685TIP3    H262471   6.333   2.786  12.558 -0.4600  0.9679 -0.1880
13686TIP3   OH262472   1.534   6.456   0.727  0.3419 -0.0375  0.4189
13686TIP3    H162473   1.471   6.411   0.782 -1.9339  1.5392 -0.7282
13686TIP3    H262474   1.599   6.389   0.704 -0.3223 -1.4618  2.4755
13687TIP3   OH262475   1.846   3.511   0.424  0.1003  0.8901 -0.8820
13687TIP3    H162476   1.818   3.420   0.420 -0.7397  1.1697 -2.0846
13687TIP3    H262477   1.780   3.555   0.477  0.1745  0.9060 -0.8026
13688TIP3   OH262478   5.446   3.748  11.831  0.0200 -0.2613 -0.2040
13688TIP3    H162479   5.519   3.790  11.785  0.4089 -0.6889  0.0130
13688TIP3    H262480   5.485   3.718  11.913 -0.2474 -1.0440 -0.3571
13689TIP3   OH262481   1.753   5.055   2.422 -0.8331 -0.0844 -0.2824
13689TIP3    H162482   1.792   5.009   2.348  0.7192 -0.1027  0.4999
13689TIP3    H262483   1.661   5.029   2.421 -1.0424  0.5260 -2.6443
13690TIP3   OH262484   3.967   3.602   4.025 -0.0624 -0.1235 -0.0484
13690TIP3    H162485   3.931   3.584   4.112  0.2106 -0.7987 -0.0684
13690TIP3    H262486   3.916   3.545   3.966  0.1075 -0.0616 -0.2563
13691TIP3   OH262487   0.008   2.488  11.371  0.0622  0.3226  0.0919
13691TIP3    H162488   0.046   2.530  11.294 -0.2924 -0.4275 -0.5001
13691TIP3    H262489  -0.076   2.532  11.383  0.0760  0.3753 -0.0047
13692TIP3   OH262490   1.753   2.354   5.648  0.0147  0.2038  0.0777
13692TIP3    H162491   1.811   2.291   5.691 -0.4568 -1.1015 -1.1113
13692TIP3    H262492   1.666   2.336   5.685 -0.2913 -0.5344 -0.9604
13693TIP3   OH262493   2.807   4.292  12.859  0.2756  0.4688 -0.3098
13693TIP3    H162494   2.736   4.229  12.843  0.4558  0.1601  0.0830
13693TIP3    H262495   2.787   4.331  12.944  0.5288  0.4430 -0.2372
13694TIP3   OH262496   6.411   0.360  14.456 -0.7178  0.0676 -0.3388
13694TIP3    H162497   6.396   0.295  14.389 -0.1472  0.5910 -0.9945
13694TIP3    H262498   6.373   0.323  14.536  1.4321 -2.0343 -0.1773
13695TIP3   OH262499   6.027   6.171  14.388  0.2088 -0.0143  0.2960
13695TIP3    H162500   5.996   6.230  14.458  2.0018  0.2891  0.8944
13695TIP3    H262501   5.984   6.088  14.406 -1.8763  0.9077 -0.1794
13696TIP3   OH262502   3.569   5.335   3.719 -0.1494 -0.2407  0.3657
13696TIP3    H162503   3.633   5.289   3.774  1.2200  0.7472 -0.3296
13696TIP3    H262504   3.536   5.268   3.660  2.2648 -0.3128 -1.0375
13697TIP3   OH262505   2.123   3.049   2.055 -0.1735  0.3598  0.1025
13697TIP3    H162506   2.079   3.082   2.134 -0.1746 -0.7539  0.5876
13697TIP3    H262507   2.216   3.048   2.078 -0.0013  1.4893 -0.4708
13698TIP3   OH262508   4.938   3.034   2.056 -0.4513 -0.5169  0.6798
13698TIP3    H162509   4.886   3.066   1.982  0.3318 -0.0822  0.3085
13698TIP3    H262510   4.898   3.074   2.133 -1.0151 -0.6422  0.4604
13699TIP3   OH262511   0.420   1.479  13.749 -0.0332 -0.1521  0.7141
13699TIP3    H162512   0.390   1.392  13.778 -2.4308  0.7853  1.2619
13699TIP3    H262513   0.458   1.518  13.828  0.7505 -0.5565  0.5478
13700TIP3   OH262514   5.170   5.475  11.713 -0.3628 -0.3156  0.1970
13700TIP3    H162515   5.128   5.546  11.761  2.1877  0.8239  0.9490
13700TIP3    H262516   5.225   5.520  11.648 -2.5703 -1.7725 -2.9235
13701TIP3   OH262517   2.065   0.974  12.157 -0.3897  0.3604  0.2626
13701TIP3    H162518   2.045   1.006  12.245  1.0069  0.7118  0.4903
13701TIP3    H262519   2.087   0.882  12.169 -1.5773  0.0366  0.0506
13702TIP3   OH262520   1.195   5.352   1.959 -0.1590 -0.7372  0.1179
13702TIP3    H162521   1.230   5.367   2.047 -1.0180  0.0975  0.3341
13702TIP3    H262522   1.191   5.440   1.920 -1.4358 -0.8811 -0.1094
13703TIP3   OH262523   0.419   4.978   0.163 -0.3149 -0.5476 -0.2916
13703TIP3    H162524   0.353   5.047   0.153  0.0949  0.1434  1.3934
13703TIP3    H262525   0.480   4.992   0.091 -0.7396  0.2823 -0.5039
13704TIP3   OH262526   5.832   5.383  10.638  0.9102  0.0809 -0.4923
13704TIP3    H162527   5.825   5.391  10.733 -0.8315 -2.2108 -0.3440
13704TIP3    H262528   5.847   5.472  10.608 -2.3156  1.5418  1.6790
13705TIP3   OH262529   6.386   4.510  17.144  0.5391 -0.0421  0.6723
13705TIP3    H162530   6.400   4.420  17.172  2.8637 -0.1090 -0.4042
13705TIP3    H262531   6.443   4.520  17.067 -0.5955  1.9876  0.0173
13706TIP3   OH262532   0.797   2.228  12.006  0.4299 -0.0109 -0.0645
13706TIP3    H162533   0.810   2.282  12.084  2.6457  0.1680 -0.5113
13706TIP3    H262534   0.729   2.274  11.957  0.1637  0.7522  0.9729
13707TIP3   OH262535   4.228   1.287  15.890  0.6790  0.3673  0.0033
13707TIP3    H162536   4.215   1.371  15.935  0.7458  0.1689  0.3963
13707TIP3    H262537   4.220   1.222  15.959  0.7091  0.0537 -0.2898
13708TIP3   OH262538   3.828   4.381  16.260 -0.8586 -0.8411  0.0185
13708TIP3    H162539   3.783   4.298  16.247  1.5603 -2.1520 -0.5586
13708TIP3    H262540   3.812   4.430  16.179 -0.8027 -1.5115 -0.4056
13709TIP3   OH262541   3.150   2.818  17.276 -0.2676 -0.0467  0.4492
13709TIP3    H162542   3.067   2.804  17.322  0.1172 -1.6111  0.7122
13709TIP3    H262543   3.215   2.772  17.328  0.5088 -0.1683 -0.5839
13710TIP3   OH262544   5.333   1.549  16.438 -0.4341  0.0929  0.0787
13710TIP3    H162545   5.401   1.536  16.371 -2.2221 -1.5976 -1.5203
13710TIP3    H262546   5.256   1.578  16.388 -0.8082  2.5442  1.9081
13711TIP3   OH262547   4.864   5.581  16.788  0.0229  0.1266 -0.6993
13711TIP3    H162548   4.936   5.623  16.741 -0.1587 -0.3068 -1.3804
13711TIP3    H262549   4.842   5.642  16.859  0.4132  0.7082 -1.0761
13712TIP3   OH262550   1.384   3.347   2.407 -0.1844  0.2253 -0.3705
13712TIP3    H162551   1.379   3.307   2.494 -1.8992 -1.2482 -1.0711
13712TIP3    H262552   1.311   3.409   2.405 -1.8910 -1.6847 -1.5854
13713TIP3   OH262553   6.692   1.601   3.678  0.6662  0.1227  0.9831
13713TIP3    H162554   6.629   1.671   3.693 -0.7721 -0.7237 -0.6999
13713TIP3    H262555   6.761   1.641   3.625  0.5647  0.5985  1.2116
13714TIP3   OH262556   0.640   6.017   5.898  0.3153 -0.2618  0.3845
13714TIP3    H162557   0.671   6.072   5.826 -1.1272 -0.7093 -0.6008
13714TIP3    H262558   0.545   6.019   5.892  0.1790 -1.0438  1.7416
13715TIP3   OH262559   0.309   0.611  13.846 -0.0239  0.9134 -0.0746
13715TIP3    H162560   0.249   0.615  13.772 -2.1455 -0.8290  1.4246
13715TIP3    H262561   0.334   0.702  13.863 -1.1070  1.5250 -1.6295
13716TIP3   OH262562   5.753   4.248   6.327  0.2334  0.3794  0.1971
13716TIP3    H162563   5.727   4.172   6.275  0.9690 -0.8367  1.5146
13716TIP3    H262564   5.671   4.284   6.361 -0.1224  0.1547 -0.4150
13717TIP3   OH262565   2.195   4.083  13.797 -0.1689 -0.2346  0.1629
13717TIP3    H162566   2.183   4.170  13.837  1.3660  0.5457 -0.9805
13717TIP3    H262567   2.167   4.094  13.706  1.3915 -0.5163 -0.3817
13718TIP3   OH262568   2.976   2.862   0.932  0.1991 -0.1338  0.3930
13718TIP3    H162569   2.941   2.780   0.896 -0.0938  0.0293  0.3005
13718TIP3    H262570   2.927   2.876   1.013 -0.3829  0.3974 -0.0322
13719TIP3   OH262571   0.024   4.790  12.621 -0.0436  0.1205 -0.5392
13719TIP3    H162572   0.040   4.697  12.606 -0.0471 -0.2756  1.5425
13719TIP3    H262573   0.111   4.828  12.632 -0.0736  0.1349 -0.3298
13720TIP3   OH262574   1.533   1.836  10.642 -0.1955 -0.0875  0.1153
13720TIP3    H162575   1.592   1.818  10.715  0.5184  1.4787 -0.0408
13720TIP3    H262576   1.576   1.906  10.593 -1.9591  0.7727 -0.2769
13721TIP3   OH262577   3.049   5.107  11.909  0.3904  0.1183 -0.0780
13721TIP3    H162578   3.064   5.013  11.898  1.4651  0.1023  1.3662
13721TIP3    H262579   3.134   5.148  11.892  0.7734  0.5236  2.4239
13722TIP3   OH262580   4.235   3.949   3.241  0.1557 -0.1924 -0.2304
13722TIP3    H162581   4.182   3.939   3.162 -1.5253  1.4950  0.6037
13722TIP3    H262582   4.205   3.878   3.299  0.2398 -0.4457 -0.4929
13723TIP3   OH262583   1.705   1.758  11.992 -0.1401 -1.0431 -0.0634
13723TIP3    H162584   1.736   1.757  11.902 -2.3848  0.6678 -0.9689
13723TIP3    H262585   1.616   1.722  11.987 -1.1662  1.1589  1.0084
13724TIP3   OH262586   3.313   5.929   2.827 -0.2053  0.7237 -0.0271
13724TIP3    H162587   3.322   5.958   2.737  1.4080  0.9511  0.1663
13724TIP3    H262588   3.309   5.833   2.822  1.4268  0.6307 -0.2921
13725TIP3   OH262589   0.273   3.844   4.688 -0.6808 -0.0601  0.6130
13725TIP3    H162590   0.183   3.813   4.678 -0.4565 -1.6911  2.9276
13725TIP3    H262591   0.326   3.776   4.648 -0.3878  0.8127 -0.5786
13726TIP3   OH262592   3.769   5.976   6.765 -0.7151 -0.3148 -0.3853
13726TIP3    H162593   3.730   5.894   6.797 -2.5988  0.2728 -1.0613
13726TIP3    H262594   3.747   6.041   6.832  0.4424 -0.2536 -0.0416
13727TIP3   OH262595   3.696   5.667   5.152  0.5820 -0.5615 -0.0017
13727TIP3    H162596   3.701   5.723   5.230 -0.7548 -2.1996  1.3368
13727TIP3    H262597   3.656   5.723   5.085 -0.7988  0.1037  1.3112
13728TIP3   OH262598   2.902   4.003   3.547 -0.7454 -0.1429 -0.0789
13728TIP3    H162599   2.848   4.001   3.625 -1.3829 -1.8281 -0.5078
13728TIP3    H262600   2.991   3.985   3.579 -0.8768 -0.0315  0.3479
13729TIP3   OH262601   4.198   2.146   6.142  0.0011 -0.2057 -0.6873
13729TIP3    H162602   4.221   2.216   6.203  0.0527 -1.2189  0.4928
13729TIP3    H262603   4.274   2.140   6.083  0.1902  0.4160 -0.5178
13730TIP3   OH262604   4.738   1.626  11.341  0.0474 -0.0839  0.0024
13730TIP3    H162605   4.648   1.649  11.364  0.6864  1.1769  1.5061
13730TIP3    H262606   4.766   1.568  11.411  0.4570 -0.3388 -0.3701
13731TIP3   OH262607   3.895   2.982  17.193 -0.2741  0.1033  0.4141
13731TIP3    H162608   3.871   3.020  17.277 -1.6703  0.4911 -0.1294
13731TIP3    H262609   3.977   3.026  17.169  0.0988  0.0431  1.5054
13732TIP3   OH262610   4.615   1.917   1.548  0.0779 -0.1075 -0.5763
13732TIP3    H162611   4.680   1.964   1.602 -1.1979 -1.1211  2.0272
13732TIP3    H262612   4.536   1.970   1.554 -0.2882 -0.6093 -0.8830
13733TIP3   OH262613   3.943   3.797   2.351 -0.4019 -1.3387  0.3961
13733TIP3    H162614   3.980   3.774   2.266  2.5385 -0.0254  1.1916
13733TIP3    H262615   3.961   3.721   2.406 -2.0571 -2.0729  0.0123
13734TIP3   OH262616   6.095   5.785  14.579 -0.7490 -0.1137  0.0249
13734TIP3    H162617   6.038   5.791  14.503 -1.5898  0.7958  0.6921
13734TIP3    H262618   6.177   5.826  14.551 -0.5790 -0.9877 -0.7904
13735TIP3   OH262619   4.432   1.375   0.060 -0.3283  0.2988 -0.1523
13735TIP3    H162620   4.517   1.417   0.052  0.7100 -1.9416 -1.4640
13735TIP3    H262621   4.381   1.409  -0.013 -0.7356  1.8550  0.7921
13736TIP3   OH262622   5.075   2.853  11.301  0.3972 -0.0309 -0.2041
13736TIP3    H162623   5.156   2.903  11.295  0.6935 -0.6602 -2.4883
13736TIP3    H262624   5.008   2.918  11.323  1.0918  1.0063 -1.0607
13737TIP3   OH262625   1.016   4.266   1.170 -0.4999 -0.0939 -0.3146
13737TIP3    H162626   1.080   4.201   1.141  0.0014  0.8043 -1.2811
13737TIP3    H262627   0.931   4.224   1.155 -0.1986 -1.6725  1.8626
13738TIP3   OH262628   5.083   4.590  14.368  0.4210 -0.3809 -0.3554
13738TIP3    H162629   4.996   4.602  14.407  1.0935 -0.3260  1.1773
13738TIP3    H262630   5.073   4.513  14.312 -0.7444 -0.0707 -0.6194
13739TIP3   OH262631   6.465   3.534  10.695  0.2320 -0.1982  0.3627
13739TIP3    H162632   6.423   3.540  10.781  0.4086  4.0107  0.3715
13739TIP3    H262633   6.392   3.521  10.634 -0.3233  0.3117  0.9033
13740TIP3   OH262634   0.683   5.228   2.301  0.0421 -0.8434  0.1676
13740TIP3    H162635   0.680   5.203   2.208  0.4536 -1.0885  0.2187
13740TIP3    H262636   0.663   5.321   2.301  2.3424 -0.2959 -0.3928
13741TIP3   OH262637   0.034   2.606  16.588 -0.6064 -0.6443  0.1462
13741TIP3    H162638   0.102   2.601  16.656  1.3190 -0.4901 -1.6818
13741TIP3    H262639  -0.032   2.665  16.625  1.2400  0.8966  1.1850
13742TIP3   OH262640   2.622   4.763   1.889  0.3192  0.2291 -1.1834
13742TIP3    H162641   2.531   4.734   1.889  0.4159 -0.1026 -0.3848
13742TIP3    H262642   2.673   4.681   1.886  0.6078  0.1720  1.7799
13743TIP3   OH262643   3.034   5.667  16.992  0.1071 -0.2038 -0.1418
13743TIP3    H162644   3.115   5.658  16.942  0.4337 -0.9840  0.5035
13743TIP3    H262645   3.060   5.653  17.083 -0.9752 -1.9559 -0.0587
13744TIP3   OH262646   6.122   1.639  12.022 -0.4573  0.2518  0.0613
13744TIP3    H162647   6.199   1.610  11.973  0.2487  0.8577  0.7923
13744TIP3    H262648   6.047   1.609  11.969  0.2208 -2.0319  0.2991
13745TIP3   OH262649   1.103   1.338   4.134 -0.0319 -0.0331 -0.1388
13745TIP3    H162650   1.144   1.277   4.073 -0.4538  0.1275 -0.5831
13745TIP3    H262651   1.171   1.403   4.152  0.5214 -0.7883  0.5723
13746TIP3   OH262652   4.494   1.060  14.489  0.4429  0.2755 -0.5925
13746TIP3    H162653   4.528   1.135  14.538 -0.2666  0.1305  0.1348
13746TIP3    H262654   4.548   0.986  14.515 -1.3882 -0.3214  1.8608
13747TIP3   OH262655   6.112   1.091   4.579 -0.2536  0.7566 -0.0538
13747TIP3    H162656   6.156   1.008   4.598 -0.9532  0.8168  2.1743
13747TIP3    H262657   6.028   1.066   4.541 -0.0945  0.4808 -0.2253
13748TIP3   OH262658   4.438   3.985  11.902  0.0989 -0.1287  0.0867
13748TIP3    H162659   4.498   3.944  11.964  0.1917  1.0060  0.7700
13748TIP3    H262660   4.403   4.061  11.949  1.2201  1.5820 -1.6694
13749TIP3   OH262661   0.106   1.763  12.924 -0.5638  0.0229  0.6356
13749TIP3    H162662   0.065   1.695  12.978 -0.8464  0.2531  0.7145
13749TIP3    H262663   0.042   1.834  12.922  0.0704  0.6300  1.2485
13750TIP3   OH262664   2.046   6.217   5.838 -0.0996 -0.1320  0.0690
13750TIP3    H162665   2.003   6.279   5.896 -1.7026  0.8664 -2.0205
13750TIP3    H262666   2.137   6.216   5.867  0.0414  3.2766  0.2086
13751TIP3   OH262667   1.056   5.501  14.666  0.0959  0.6146 -0.2785
13751TIP3    H162668   0.999   5.578  14.660 -0.6629  0.2471  1.5755
13751TIP3    H262669   1.000   5.428  14.639  0.3123  0.5148 -0.4546
13752TIP3   OH262670   0.807   0.764  12.408 -0.4004  0.2046  0.1266
13752TIP3    H162671   0.812   0.711  12.488  1.3514  1.4072  0.8774
13752TIP3    H262672   0.896   0.765  12.375 -1.2277 -0.8686 -2.3123
13753TIP3   OH262673   4.028   4.231  14.141 -0.0541  0.0546 -0.0081
13753TIP3    H162674   3.938   4.250  14.117 -0.7215 -1.1914  1.3429
13753TIP3    H262675   4.023   4.149  14.191  1.4659  1.3197  2.3868
13754TIP3   OH262676   4.685   3.935  11.246  0.1970  0.1654  0.7801
13754TIP3    H162677   4.686   3.937  11.151  0.6857 -0.7260  0.7532
13754TIP3    H262678   4.592   3.939  11.269  0.0848  0.5010  0.2759
13755TIP3   OH262679   4.893   1.558  11.840  0.2153 -0.1954  0.7524
13755TIP3    H162680   4.905   1.467  11.815  1.6165 -0.3385  1.8115
13755TIP3    H262681   4.950   1.570  11.917 -0.0979  1.5033  0.7698
13756TIP3   OH262682   4.689   0.454   3.209 -0.5145  0.7647  0.1415
13756TIP3    H162683   4.640   0.461   3.290  0.3188 -3.4308  1.2347
13756TIP3    H262684   4.773   0.416   3.234  1.3881  2.9227 -2.3099
13757TIP3   OH262685   2.423   5.267   4.038 -0.2491 -0.2481  0.0228
13757TIP3    H162686   2.475   5.306   4.109  0.4057 -1.6537  0.3602
13757TIP3    H262687   2.480   5.271   3.962  0.0456 -1.0197  0.1919
13758TIP3   OH262688   1.732   5.335   3.530 -0.2908  0.2902  0.5805
13758TIP3    H162689   1.714   5.290   3.612 -1.2424  1.3358  0.9692
13758TIP3    H262690   1.693   5.280   3.462 -0.9787  0.2611  0.9949
13759TIP3   OH262691   3.561   3.299   0.544 -0.5713 -0.6164 -0.4809
13759TIP3    H162692   3.537   3.344   0.463 -0.3481  2.4115  0.9843
13759TIP3    H262693   3.654   3.321   0.555 -0.7533 -0.4916  0.8578
13760TIP3   OH262694   4.751   0.853   5.239 -0.1559  0.0705 -0.2608
13760TIP3    H162695   4.786   0.769   5.269 -0.4592  0.2557  0.6307
13760TIP3    H262696   4.665   0.860   5.280 -1.0186 -0.0904 -1.9154
13761TIP3   OH262697   6.255   1.051  17.375 -0.1311  0.1808 -0.1666
13761TIP3    H162698   6.227   1.088  17.459  1.0034  0.0064  0.3113
13761TIP3    H262699   6.263   1.127  17.317  1.1842  0.5884  0.5134
13762TIP3   OH262700   0.315   2.109   3.005  0.0278 -0.7803  0.5323
13762TIP3    H162701   0.291   2.144   3.091  0.5498  0.6090  0.1404
13762TIP3    H262702   0.409   2.092   3.012 -0.0700 -1.3964  0.4591
13763TIP3   OH262703   3.395   6.235  16.350  0.3356  0.1011  0.0331
13763TIP3    H162704   3.414   6.164  16.289 -2.9421 -0.0865 -0.9575
13763TIP3    H262705   3.410   6.315  16.299  0.1086  0.0024 -0.1915
13764TIP3   OH262706   4.604   2.073   5.050 -0.5297  0.4638  0.5013
13764TIP3    H162707   4.565   2.086   4.964 -1.4359 -2.8152  0.2760
13764TIP3    H262708   4.691   2.038   5.032 -0.0629  1.3271  0.9787
13765TIP3   OH262709   0.060   2.284  11.572 -0.3714  0.1614  0.1702
13765TIP3    H162710   0.052   2.325  11.486  2.1333 -0.9139 -0.6612
13765TIP3    H262711   0.119   2.342  11.621  1.1150 -1.0655 -0.1239
13766TIP3   OH262712   3.088   0.342  10.942 -0.2079 -0.5151 -1.1789
13766TIP3    H162713   3.068   0.433  10.919 -1.7855 -1.0096 -1.9030
13766TIP3    H262714   3.146   0.313  10.872  1.0864  0.1805 -0.4396
13767TIP3   OH262715   6.439   4.684  14.642  0.2560  0.3718 -0.1721
13767TIP3    H162716   6.377   4.756  14.629 -1.1351 -0.6676  0.3889
13767TIP3    H262717   6.433   4.664  14.736  1.4991  0.2805 -0.0996
13768TIP3   OH262718   6.334   1.771   2.587 -0.4919 -0.1534  0.2730
13768TIP3    H162719   6.364   1.850   2.541  1.5065 -1.0552 -0.0838
13768TIP3    H262720   6.318   1.800   2.677 -0.5866  0.8271 -0.0485
13769TIP3   OH262721   0.422   4.904   6.814  0.4143  0.4980 -0.6144
13769TIP3    H162722   0.498   4.939   6.860  0.7617  0.1237 -0.8967
13769TIP3    H262723   0.400   4.972   6.750 -0.2316  1.1372  0.2534
13770TIP3   OH262724   1.618   1.117   3.136 -0.4544 -0.0194  0.5254
13770TIP3    H162725   1.653   1.175   3.204 -0.6083  0.5706  0.1085
13770TIP3    H262726   1.633   1.164   3.054 -0.5958 -0.5648  0.1837
13771TIP3   OH262727   1.267   4.518  13.408 -0.4567  0.4380  0.3879
13771TIP3    H162728   1.227   4.599  13.439  1.5482  1.2829  0.9093
13771TIP3    H262729   1.222   4.449  13.457 -1.4062  1.2981  0.7748
13772TIP3   OH262730   4.663   6.062   1.441  0.3063 -0.0045 -0.2174
13772TIP3    H162731   4.669   5.967   1.451 -0.6384 -0.2480 -1.6418
13772TIP3    H262732   4.722   6.097   1.508  3.6164 -1.6378 -2.0108
13773TIP3   OH262733   0.235   3.304  13.472 -0.7170  0.2735 -0.3187
13773TIP3    H162734   0.269   3.344  13.392 -1.0122  2.8099  0.7460
13773TIP3    H262735   0.152   3.265  13.446  0.2096 -0.9107 -1.6794
13774TIP3   OH262736   2.509   6.239   4.018 -0.0100  0.0408  0.4471
13774TIP3    H162737   2.518   6.304   3.948 -0.3610  0.7484  1.0473
13774TIP3    H262738   2.558   6.164   3.987 -0.5429  0.1731 -0.7783
13775TIP3   OH262739   6.449   5.477  14.753  0.5985 -0.4476  0.0603
13775TIP3    H162740   6.450   5.402  14.813 -1.8408 -0.2163  0.4748
13775TIP3    H262741   6.371   5.464  14.699 -2.8717  3.9725  3.2505
13776TIP3   OH262742   3.519   0.096   0.837  0.3231 -0.4244 -0.0642
13776TIP3    H162743   3.504   0.052   0.921  0.1140 -0.5975 -0.1924
13776TIP3    H262744   3.594   0.153   0.854 -0.2367  0.1744  0.4821
13777TIP3   OH262745   1.145   1.072  12.938 -0.1472  0.3591  0.1062
13777TIP3    H162746   1.186   1.048  12.855 -0.7805  0.3396 -0.2036
13777TIP3    H262747   1.150   0.993  12.991 -1.3062 -0.1743 -0.5440
13778TIP3   OH262748   0.456   4.121   4.706  0.6705 -0.1482  0.4063
13778TIP3    H162749   0.479   4.031   4.682  0.5197 -0.0642 -0.0603
13778TIP3    H262750   0.375   4.139   4.658 -0.4887 -0.4987  2.1525
13779TIP3   OH262751   4.346   1.559  13.048 -0.2096 -0.8640 -0.4828
13779TIP3    H162752   4.312   1.587  12.963  0.4747  1.0579 -0.1745
13779TIP3    H262753   4.269   1.558  13.105 -0.3731 -0.2536 -0.6829
13780TIP3   OH262754   6.269   3.475  12.161  0.2044  0.6248  0.4122
13780TIP3    H162755   6.337   3.468  12.094  0.5089  1.4335  0.6312
13780TIP3    H262756   6.244   3.567  12.161  0.8133  0.8105  1.9920
13781TIP3   OH262757   3.847   6.667  11.423  0.4913  0.3920  0.0183
13781TIP3    H162758   3.752   6.677  11.433  0.5467  1.8861 -0.6517
13781TIP3    H262759   3.882   6.753  11.444  1.5361  0.3995 -1.5924
13782TIP3   OH262760   6.166   1.953  12.524 -0.1920 -0.4735  0.2213
13782TIP3    H162761   6.131   1.938  12.612  1.1421 -1.4759  0.6170
13782TIP3    H262762   6.251   1.994  12.539 -0.1002 -0.3437 -0.6193
13783TIP3   OH262763   1.345   2.290   3.412  0.0691 -0.6918  0.1115
13783TIP3    H162764   1.393   2.372   3.399 -0.0835 -0.5195  0.6020
13783TIP3    H262765   1.407   2.233   3.457 -0.2307 -0.4089  0.9050
13784TIP3   OH262766   0.718   5.963   5.434 -0.2450 -0.5544  0.0594
13784TIP3    H162767   0.632   5.954   5.393 -1.5442 -0.5988  2.5740
13784TIP3    H262768   0.776   5.910   5.380 -2.1526 -1.8808 -0.8171
13785TIP3   OH262769   4.516   1.830  14.199 -0.4040 -0.4595  0.5541
13785TIP3    H162770   4.612   1.836  14.192 -0.4716 -0.9256 -1.0580
13785TIP3    H262771   4.483   1.895  14.138 -1.1580  0.4795  1.9075
13786TIP3   OH262772   5.218   2.163  15.070 -0.3498 -0.1512 -0.2071
13786TIP3    H162773   5.201   2.091  15.130 -0.7149  0.9791  1.0869
13786TIP3    H262774   5.132   2.197  15.046 -0.1635  0.3298 -0.2144
13787TIP3   OH262775   2.485   6.003   1.407 -0.1414 -0.0928  0.0301
13787TIP3    H162776   2.422   5.936   1.381 -0.7768  0.3220  0.4557
13787TIP3    H262777   2.435   6.084   1.406  0.9024  0.5733 -1.5853
13788TIP3   OH262778   5.963   2.106  14.986 -0.6107 -0.3845 -0.1338
13788TIP3    H162779   6.057   2.091  14.996 -0.6134  0.1469  0.8627
13788TIP3    H262780   5.937   2.146  15.069 -1.9185 -1.5026  0.0287
13789TIP3   OH262781   5.558   6.741   1.839 -0.6077 -0.1533 -0.2358
13789TIP3    H162782   5.626   6.687   1.880  0.0082  0.4831 -0.3963
13789TIP3    H262783   5.569   6.827   1.879  0.3332  0.6197 -2.0243
13790TIP3   OH262784   6.515   1.436  12.146  0.3179 -0.4345  0.0711
13790TIP3    H162785   6.472   1.353  12.125 -0.0827 -0.0775 -0.5415
13790TIP3    H262786   6.540   1.472  12.062  1.6545 -0.5265  0.3980
13791TIP3   OH262787   0.092   2.365   4.955  0.2217  0.1056 -0.4464
13791TIP3    H162788   0.132   2.282   4.981 -0.8842 -0.2117  0.3228
13791TIP3    H262789   0.001   2.343   4.935  0.0972  1.0141 -0.9510
13792TIP3   OH262790   0.623   0.717   3.213 -0.3163  0.1229 -0.2420
13792TIP3    H162791   0.623   0.809   3.243  0.8234  0.3541 -0.9034
13792TIP3    H262792   0.539   0.683   3.243 -1.1510  1.6314 -0.7181
13793TIP3   OH262793   4.132   0.239  16.124 -0.3207  0.0972 -0.6486
13793TIP3    H162794   4.105   0.196  16.044  0.4769 -1.7532  0.0170
13793TIP3    H262795   4.105   0.180  16.194  1.9863 -0.0548  0.2292
13794TIP3   OH262796   1.807   0.433  12.313 -0.1714  0.1617 -0.1148
13794TIP3    H162797   1.885   0.426  12.368 -0.9128 -0.0061  0.9470
13794TIP3    H262798   1.734   0.432  12.374 -0.9573  2.4916 -0.9052
13795TIP3   OH262799   5.273   4.378  14.126 -0.1891  0.5200  0.5471
13795TIP3    H162800   5.231   4.463  14.112 -1.0369  0.1124  0.5387
13795TIP3    H262801   5.360   4.400  14.161 -0.7457  1.3684  1.4721
13796TIP3   OH262802   5.187   5.770   5.562  0.0653 -0.2736 -0.3734
13796TIP3    H162803   5.212   5.771   5.654  0.6148 -0.0852 -0.5216
13796TIP3    H262804   5.118   5.836   5.555 -0.5689 -0.8698  0.0583
13797TIP3   OH262805   3.295   1.999  14.609 -0.2574  0.5126 -0.1617
13797TIP3    H162806   3.222   2.004  14.546  0.4228  1.3662 -0.9182
13797TIP3    H262807   3.272   2.063  14.676  0.7535  2.4152 -1.5089
13798TIP3   OH262808   0.237   1.849   2.484  0.7411  0.1558 -0.3737
13798TIP3    H162809   0.252   1.869   2.392  2.7605 -0.2216 -0.1746
13798TIP3    H262810   0.150   1.810   2.487  0.5141  0.4751 -2.0592
13799TIP3   OH262811   6.565   6.733   2.757  0.1815  0.4716  0.0569
13799TIP3    H162812   6.504   6.670   2.795  0.5309  1.0574  1.7041
13799TIP3    H262813   6.647   6.684   2.747  0.2112  0.4147  0.5280
13800TIP3   OH262814   4.788   5.833  15.899  0.3760  0.0023 -0.4647
13800TIP3    H162815   4.758   5.790  15.979  1.0224  1.1213  0.4099
13800TIP3    H262816   4.711   5.834  15.842 -0.2338 -0.3818  0.3354
13801TIP3   OH262817   5.194   6.699   0.980  0.3556  0.0906 -0.1053
13801TIP3    H162818   5.117   6.707   0.923  0.3046 -0.3998 -0.1056
13801TIP3    H262819   5.173   6.626   1.038  1.9375 -1.9085 -1.8917
13802TIP3   OH262820   2.599   0.140  16.645 -0.2852  0.0038 -0.4897
13802TIP3    H162821   2.616   0.231  16.668  0.0028 -0.1586 -0.0426
13802TIP3    H262822   2.681   0.094  16.664 -0.6001 -0.4446 -0.1733
13803TIP3   OH262823   3.917   1.902   1.812  0.0621 -0.0774 -0.3184
13803TIP3    H162824   3.990   1.865   1.763 -0.7954 -1.2412 -0.7603
13803TIP3    H262825   3.913   1.993   1.784 -0.0970 -0.5831 -2.0807
13804TIP3   OH262826   1.024   4.766   2.385  0.2948 -0.3161  0.1137
13804TIP3    H162827   0.959   4.697   2.369 -0.6817  0.8670 -1.3017
13804TIP3    H262828   1.108   4.722   2.372 -0.2852 -1.4071 -0.1134
13805TIP3   OH262829   3.891   3.852   3.918  0.5233  1.0403  0.4057
13805TIP3    H162830   3.796   3.842   3.914  0.3846  2.2916 -0.1323
13805TIP3    H262831   3.924   3.764   3.932 -0.6375  0.3526 -0.9118
13806TIP3   OH262832   2.939   4.038  11.289 -0.5469  0.2793  0.1092
13806TIP3    H162833   2.942   4.058  11.195  3.7964 -1.8078 -0.4758
13806TIP3    H262834   2.954   3.943  11.293 -1.8223  0.0982  2.9624
13807TIP3   OH262835   0.395   0.696   2.218  0.4819  0.2937  0.6463
13807TIP3    H162836   0.444   0.727   2.142 -0.5552 -1.8476 -0.9962
13807TIP3    H262837   0.458   0.641   2.266  0.3253 -0.7491 -0.3108
13808TIP3   OH262838   6.488   5.249   3.118  0.0148 -0.0129  0.0649
13808TIP3    H162839   6.410   5.195   3.114  0.4986 -0.6781 -0.6859
13808TIP3    H262840   6.487   5.299   3.037  0.3225  0.0419  0.0917
13809TIP3   OH262841   3.941   2.512   5.506 -0.4171  0.4915  0.0001
13809TIP3    H162842   3.891   2.560   5.572  0.1520  3.6361 -1.6258
13809TIP3    H262843   3.877   2.486   5.441 -0.5696  0.0666  0.3145
13810TIP3   OH262844   5.269   3.663   3.092  0.2444  0.3087  0.2412
13810TIP3    H162845   5.288   3.691   3.003 -0.2938  0.0668  0.0502
13810TIP3    H262846   5.215   3.734   3.129 -0.5103 -0.1290 -0.0074
13811TIP3   OH262847   1.711   0.538   3.004  0.0118  0.8131 -0.1846
13811TIP3    H162848   1.707   0.607   3.070  1.3945  0.6010  0.1512
13811TIP3    H262849   1.760   0.577   2.932 -0.7930  0.7724 -0.7757
13812TIP3   OH262850   6.286   3.331   3.844  0.3240  0.1318 -0.9827
13812TIP3    H162851   6.242   3.246   3.841  0.2043 -0.0018  1.7094
13812TIP3    H262852   6.219   3.393   3.816  0.1897 -0.5572 -2.2806
13813TIP3   OH262853   6.285   2.586   6.112 -0.6623 -0.2909  0.0296
13813TIP3    H162854   6.203   2.560   6.070 -0.5110 -1.6578  0.5485
13813TIP3    H262855   6.259   2.613   6.200 -0.6136 -0.2267  0.0243
13814TIP3   OH262856   1.009   4.953  17.227  0.1066 -0.4343 -0.4406
13814TIP3    H162857   0.967   4.974  17.311 -1.3728 -0.6631 -1.0881
13814TIP3    H262858   0.951   4.991  17.161  1.7406  0.5702 -1.3577
13815TIP3   OH262859   6.158   4.450   3.334  0.5801 -0.7893  0.3726
13815TIP3    H162860   6.225   4.382   3.319 -0.1679 -1.4542 -0.0234
13815TIP3    H262861   6.111   4.420   3.412  0.8881 -0.1978  0.7919
13816TIP3   OH262862   5.889   2.102   3.927  0.1448 -0.9252  0.4307
13816TIP3    H162863   5.942   2.046   3.871  2.3115 -0.3643  1.7784
13816TIP3    H262864   5.864   2.175   3.872 -0.8144 -2.0859 -0.7312
13817TIP3   OH262865   3.406   1.583  13.556 -0.1942  0.3001 -0.1359
13817TIP3    H162866   3.467   1.527  13.603  0.5325  0.4055 -0.9260
13817TIP3    H262867   3.339   1.606  13.621  0.4704 -0.0173  0.6759
13818TIP3   OH262868   1.295   3.749   3.311 -0.4090 -0.0264 -0.4486
13818TIP3    H162869   1.321   3.826   3.361 -2.6577  0.4180  0.1555
13818TIP3    H262870   1.363   3.739   3.245 -0.6101  3.2316 -1.3282
13819TIP3   OH262871   3.476   0.891  11.804  0.3937 -0.4523  1.3604
13819TIP3    H162872   3.423   0.970  11.815  1.0314  0.2388 -0.2831
13819TIP3    H262873   3.418   0.820  11.831 -0.8612  0.4101  1.0432
13820TIP3   OH262874   1.046   1.687  15.708  0.5673 -0.5162 -0.6168
13820TIP3    H162875   1.000   1.708  15.627  1.1520 -0.0911 -0.8457
13820TIP3    H262876   1.008   1.748  15.773  0.5769 -0.3937 -0.7258
13821TIP3   OH262877   6.344   5.164  14.041 -0.0486 -0.0518  0.3214
13821TIP3    H162878   6.293   5.185  13.963 -1.2336  0.1561  1.1076
13821TIP3    H262879   6.400   5.091  14.015 -2.4541 -1.9309 -0.0135
13822TIP3   OH262880   5.863   6.207  17.350  0.1981  0.1698 -0.0623
13822TIP3    H162881   5.864   6.139  17.419 -0.9763  1.7419  1.6039
13822TIP3    H262882   5.800   6.271  17.382  1.4020  2.1495 -1.5004
13823TIP3   OH262883   4.050   1.249   0.852  0.2857 -0.0234  0.1737
13823TIP3    H162884   4.108   1.295   0.791 -3.6141  0.6751 -3.4995
13823TIP3    H262885   4.009   1.319   0.903  2.2250 -0.4934  2.5505
13824TIP3   OH262886   2.964   2.261   3.330 -0.2185  0.1977 -0.5182
13824TIP3    H162887   2.891   2.204   3.306 -0.0170 -0.8237  1.1811
13824TIP3    H262888   3.018   2.209   3.389 -0.3972  2.3634  1.7243
13825TIP3   OH262889   3.373   3.055  13.724 -0.1241  0.0590  0.4462
13825TIP3    H162890   3.387   3.017  13.637  1.0515  2.1769 -0.3705
13825TIP3    H262891   3.436   3.010  13.780 -0.0165 -0.4718 -0.0913
13826TIP3   OH262892   5.362   1.259   4.356  0.1796  0.6492 -0.0875
13826TIP3    H162893   5.382   1.259   4.449 -1.3711  1.6708  0.2894
13826TIP3    H262894   5.283   1.206   4.347  1.2845 -0.9268 -1.1126
13827TIP3   OH262895   4.981   0.816   2.375 -0.5742  0.4686  0.5291
13827TIP3    H162896   5.037   0.857   2.309  0.6967  1.5888  2.2178
13827TIP3    H262897   4.904   0.786   2.327 -0.0296  1.9070 -1.3179
13828TIP3   OH262898   3.745   0.740   1.251  0.0398 -0.0398 -0.4945
13828TIP3    H162899   3.737   0.714   1.159 -0.3162  0.3388 -0.5785
13828TIP3    H262900   3.700   0.671   1.300 -0.5888  0.2218 -0.6839
13829TIP3   OH262901   2.885   4.756  11.111  0.1266 -0.2980  0.6470
13829TIP3    H162902   2.858   4.722  11.025  0.7192 -1.1278  0.7829
13829TIP3    H262903   2.967   4.801  11.094 -1.1294  2.0054  0.2841
13830TIP3   OH262904   3.034   1.048  12.337 -0.3385  0.7206 -0.0352
13830TIP3    H162905   2.954   1.056  12.285  0.4025 -0.3799 -1.4235
13830TIP3    H262906   3.078   1.133  12.327 -1.5060  1.4985  1.1184
13831TIP3   OH262907   2.531   2.747   4.870  0.5315 -0.1544  0.2028
13831TIP3    H162908   2.545   2.700   4.953  1.0479  1.4454  1.0607
13831TIP3    H262909   2.602   2.716   4.813 -0.3471 -1.9404 -0.0055
13832TIP3   OH262910   6.331   1.172  15.010 -0.2763 -0.3924 -0.2029
13832TIP3    H162911   6.381   1.132  15.081  1.0447  1.6999  0.1114
13832TIP3    H262912   6.255   1.114  14.999 -1.0949 -0.3061  3.5997
13833TIP3   OH262913   3.471   4.068  14.446  0.0458  0.2784  0.1053
13833TIP3    H162914   3.542   4.053  14.384 -0.7099  0.3778 -0.8048
13833TIP3    H262915   3.470   4.163  14.458  2.0521  0.1056  2.5534
13834TIP3   OH262916   3.233   4.788  16.356 -0.5723 -0.0979 -0.1964
13834TIP3    H162917   3.240   4.828  16.443  0.9397 -0.6532 -0.0207
13834TIP3    H262918   3.140   4.790  16.335 -0.8161  1.1718  0.8994
13835TIP3   OH262919   3.170   0.647  11.083 -0.2074  0.2342 -0.2485
13835TIP3    H162920   3.191   0.740  11.070  0.8174  0.3461  1.7556
13835TIP3    H262921   3.091   0.633  11.031  0.0625  2.0265 -1.2279
13836TIP3   OH262922   6.314   1.564   4.915 -0.2487  0.3156 -0.1848
13836TIP3    H162923   6.372   1.573   4.839  2.0762 -1.1651  1.2802
13836TIP3    H262924   6.333   1.641   4.969 -0.1474  0.1908 -0.0388
13837TIP3   OH262925   1.997   5.164  13.012 -0.5918 -0.4715 -0.4486
13837TIP3    H162926   1.907   5.192  13.000  0.2363  1.8553 -2.1374
13837TIP3    H262927   2.038   5.179  12.926  1.3987 -1.4673  0.2582
13838TIP3   OH262928   5.581   2.233  13.794 -0.7930 -0.7432  0.3122
13838TIP3    H162929   5.560   2.141  13.807 -0.3695 -0.8336  0.3805
13838TIP3    H262930   5.673   2.233  13.767 -0.5264 -0.2887  1.1658
13839TIP3   OH262931   3.192   6.344   4.555 -0.0295 -0.2375 -0.2331
13839TIP3    H162932   3.114   6.334   4.499  0.7933  0.8572 -1.6533
13839TIP3    H262933   3.160   6.390   4.632 -1.0459 -1.0503 -0.1353
13840TIP3   OH262934   3.050   2.411  13.061 -0.7921  0.0562  0.4277
13840TIP3    H162935   2.986   2.340  13.062  1.6805 -2.3468  0.0398
13840TIP3    H262936   3.070   2.428  13.154 -1.4081  0.2867  0.5202
13841TIP3   OH262937   3.568   1.741  16.968  0.1501  0.2274 -0.1495
13841TIP3    H162938   3.628   1.809  17.000 -0.1450  0.9446 -1.0801
13841TIP3    H262939   3.483   1.785  16.965 -0.0972 -0.2692 -0.4973
13842TIP3   OH262940   0.584   2.506  13.965 -0.1583  0.1919  0.2753
13842TIP3    H162941   0.558   2.597  13.981  2.2801  1.0705 -0.3599
13842TIP3    H262942   0.553   2.458  14.042 -3.1297  1.1345 -0.2110
13843TIP3   OH262943   0.176   4.252  17.246  0.3909  0.3061  0.0928
13843TIP3    H162944   0.206   4.286  17.330  0.1092  0.7731  0.0086
13843TIP3    H262945   0.148   4.163  17.265  0.7644  0.2537  0.4027
13844TIP3   OH262946   2.596   6.461   0.043 -0.8230  0.0372 -0.5793
13844TIP3    H162947   2.506   6.441   0.016 -1.4140  0.8464  0.6793
13844TIP3    H262948   2.635   6.502  -0.034 -1.0260 -1.6647 -1.6447
13845TIP3   OH262949   3.520   0.039   1.134  0.2598  0.4081  0.4815
13845TIP3    H162950   3.444  -0.018   1.123  0.9898 -0.7170  1.0803
13845TIP3    H262951   3.594  -0.021   1.145  1.2378  1.4810 -0.0473
13846TIP3   OH262952   6.736   4.714  12.975  0.2369 -0.4501  0.4050
13846TIP3    H162953   6.828   4.706  12.948  0.4660 -0.7055  1.2418
13846TIP3    H262954   6.686   4.698  12.895  0.9033 -1.2194  0.1329
13847TIP3   OH262955   1.393   6.652   0.416 -0.1565  0.1822  0.3571
13847TIP3    H162956   1.439   6.699   0.347  0.6023  0.0359  0.7554
13847TIP3    H262957   1.339   6.588   0.370 -0.4126  0.7518 -0.1394
13848TIP3   OH262958   4.485   2.682  17.115 -0.6436 -0.5482 -0.5573
13848TIP3    H162959   4.414   2.623  17.140 -1.9061  1.0977 -0.1275
13848TIP3    H262960   4.453   2.727  17.037 -0.4445  0.8181  0.1238
13849TIP3   OH262961   1.892   5.055   1.611  0.0396  0.1941  0.1860
13849TIP3    H162962   1.959   5.094   1.667 -1.3449  1.0446  1.3059
13849TIP3    H262963   1.940   5.028   1.532  1.6358  1.0437  0.8111
13850TIP3   OH262964   3.418   1.231   4.459  0.6999 -0.5138  0.3671
13850TIP3    H162965   3.389   1.145   4.428  3.1358 -1.8107  1.3583
13850TIP3    H262966   3.419   1.222   4.555 -0.7120  1.2722  0.5934
13851TIP3   OH262967   5.556   2.229  11.305  0.4365  0.1087 -0.0092
13851TIP3    H162968   5.561   2.248  11.211  1.5569  0.7587  0.1685
13851TIP3    H262969   5.576   2.313  11.347  0.3660 -0.2836  0.8191
13852TIP3   OH262970   1.167   3.437   2.131 -0.1078 -0.5243 -0.9796
13852TIP3    H162971   1.208   3.354   2.158 -0.9752 -1.2575 -1.8587
13852TIP3    H262972   1.195   3.449   2.041  1.0333  0.8212 -0.4894
13853TIP3   OH262973   3.486   4.849   1.300  0.4302 -0.7241 -0.3954
13853TIP3    H162974   3.478   4.876   1.391  1.8607  0.1062 -0.4878
13853TIP3    H262975   3.488   4.753   1.303 -2.0149 -0.8148  0.1869
13854TIP3   OH262976   4.086   5.479  16.187  0.4624 -0.2861  0.1611
13854TIP3    H162977   4.100   5.564  16.229 -2.6935  1.1301 -1.3492
13854TIP3    H262978   4.006   5.445  16.226 -0.5703 -0.5909 -2.0484
13855TIP3   OH262979   2.866   5.215  10.618 -0.0538  0.0888  0.0332
13855TIP3    H162980   2.777   5.181  10.605 -0.4060  0.3176  1.6112
13855TIP3    H262981   2.855   5.309  10.629  0.6584  0.4384 -1.9253
13856TIP3   OH262982   2.161   3.950  12.270 -0.0599  0.0480 -0.2607
13856TIP3    H162983   2.128   4.023  12.323 -1.3038 -1.4979  1.2257
13856TIP3    H262984   2.255   3.965  12.265  0.2176  0.0472  2.8608
13857TIP3   OH262985   0.603   0.097   2.238 -0.7280  0.8246  0.6551
13857TIP3    H162986   0.687   0.104   2.282 -0.2987 -0.2407  0.0372
13857TIP3    H262987   0.548   0.048   2.300 -1.0226  1.8191  1.2064
13858TIP3   OH262988   0.855   2.157  15.883 -0.4636  0.2407 -0.4383
13858TIP3    H162989   0.803   2.179  15.805 -0.5956  1.9031  0.0992
13858TIP3    H262990   0.791   2.153  15.954 -0.4560 -1.9780 -0.4748
13859TIP3   OH262991   0.487   0.039  15.969 -0.0885 -0.1697  0.3465
13859TIP3    H162992   0.540  -0.010  15.906 -1.7651  0.6009 -1.7802
13859TIP3    H262993   0.416  -0.021  15.993  0.3818 -0.3556  1.3087
13860TIP3   OH262994   4.481   1.640  10.541 -0.4492  0.7354  0.3050
13860TIP3    H162995   4.427   1.629  10.620 -1.6637 -0.0621 -0.5846
13860TIP3    H262996   4.429   1.599  10.472  1.5234 -0.4604 -0.5383
13861TIP3   OH262997   4.545   5.698  12.615  0.0237  0.1536  0.0401
13861TIP3    H162998   4.589   5.713  12.532 -2.8365 -0.3656 -1.7328
13861TIP3    H262999   4.517   5.607  12.611 -0.3244  0.1718  1.4874
13862TIP3   OH263000   0.621   0.436  17.406 -0.1071  0.4656 -0.4721
13862TIP3    H163001   0.553   0.504  17.401 -2.0205 -1.2591  0.4269
13862TIP3    H263002   0.664   0.451  17.490 -0.6907  0.4483 -0.1619
13863TIP3   OH263003   1.443   5.980  17.106  1.0741 -0.2336 -0.0316
13863TIP3    H163004   1.488   5.920  17.046 -1.3460 -2.6025  0.3488
13863TIP3    H263005   1.421   5.926  17.182 -0.3855  1.4144  0.7842
13864TIP3   OH263006   0.554   6.117   3.163  0.4641 -0.6106 -0.1941
13864TIP3    H163007   0.472   6.110   3.113  0.8827 -0.1125 -0.9823
13864TIP3    H263008   0.531   6.172   3.238 -0.4648 -2.3258  0.8498
13865TIP3   OH263009   3.403   2.632   1.727 -0.3177  0.4119 -0.1102
13865TIP3    H163010   3.419   2.715   1.773 -2.1394  1.1070 -0.6178
13865TIP3    H263011   3.450   2.566   1.779  0.2797  1.6070  0.9327
13866TIP3   OH263012   4.385   2.095   1.578 -0.0351  0.9888 -0.2337
13866TIP3    H163013   4.297   2.058   1.584  0.0248  1.0537  1.9454
13866TIP3    H263014   4.392   2.128   1.489 -1.8683  0.1341 -0.7252
13867TIP3   OH263015   0.984   4.733   4.537 -0.3512  0.1577 -0.0952
13867TIP3    H163016   0.949   4.656   4.492 -1.6724  0.2732  0.7119
13867TIP3    H263017   1.063   4.701   4.580 -1.0776 -0.8504  0.5295
13868TIP3   OH263018   3.271   5.517   2.649 -0.0413  0.6500 -0.0880
13868TIP3    H163019   3.195   5.564   2.615 -0.7998 -0.5847 -0.1554
13868TIP3    H263020   3.277   5.439   2.595 -1.3856 -1.4951  2.6487
13869TIP3   OH263021   5.596   5.805  14.097  0.4156  0.0403  0.6964
13869TIP3    H163022   5.683   5.826  14.063 -0.1215 -0.0889 -0.8652
13869TIP3    H263023   5.553   5.759  14.024 -0.7310 -0.4723  1.6669
13870TIP3   OH263024   5.478   0.263  11.262 -0.0837 -0.1466  1.1259
13870TIP3    H163025   5.419   0.273  11.186 -0.3081  1.5701  1.4746
13870TIP3    H263026   5.419   0.244  11.335  0.0972 -1.4037  0.9632
13871TIP3   OH263027   5.508   5.953  11.390 -0.3572  0.2670  0.1662
13871TIP3    H163028   5.599   5.930  11.408 -0.7789 -2.4039 -0.5886
13871TIP3    H263029   5.507   5.980  11.298 -0.4945 -1.0375 -0.2336
13872TIP3   OH263030   2.089   6.397   1.860  0.2096  0.3350 -0.5415
13872TIP3    H163031   2.141   6.449   1.922 -0.6684  0.6762 -0.0590
13872TIP3    H263032   2.123   6.308   1.868  0.4842  0.4848  0.0244
13873TIP3   OH263033   5.840   4.836  15.649  0.7349 -0.0554  0.1294
13873TIP3    H163034   5.842   4.741  15.660 -0.5713  0.0384  1.5339
13873TIP3    H263035   5.896   4.869  15.719 -0.2841  0.2477  0.8255
13874TIP3   OH263036   4.443   5.032   4.472  0.0387 -0.1161 -0.0985
13874TIP3    H163037   4.536   5.054   4.463 -0.0046  0.5782  1.0592
13874TIP3    H263038   4.411   5.088   4.542 -0.8277 -1.6486  0.7929
13875TIP3   OH263039   1.769   4.780  12.679  0.0411 -0.6782 -0.5194
13875TIP3    H163040   1.745   4.777  12.772  1.9124 -2.3862 -0.0202
13875TIP3    H263041   1.853   4.826  12.678 -0.4254  0.1965 -1.5251
13876TIP3   OH263042   3.768   3.088  15.704  0.5326 -0.1298  0.5462
13876TIP3    H163043   3.715   3.130  15.637 -2.2631 -1.6790  1.6378
13876TIP3    H263044   3.792   3.003  15.666 -0.1401 -0.5643  1.0734
13877TIP3   OH263045   5.176   2.299  15.763  0.0100  0.8437 -0.0140
13877TIP3    H163046   5.179   2.369  15.829  1.5381  1.7219 -0.9493
13877TIP3    H263047   5.093   2.312  15.718 -0.9345  0.4046  1.5182
13878TIP3   OH263048   1.533   3.565  13.343 -0.8801  0.3363  0.2749
13878TIP3    H163049   1.530   3.522  13.258  0.5214 -2.6566  1.6101
13878TIP3    H263050   1.625   3.590  13.354 -0.5173 -1.5058  1.8531
13879TIP3   OH263051   0.806   6.565  16.369  0.1523  0.4001 -0.2438
13879TIP3    H163052   0.819   6.578  16.275 -1.4827 -0.9868 -0.7268
13879TIP3    H263053   0.786   6.472  16.377 -1.5910  0.8560  1.2222
13880TIP3   OH263054   1.027   3.695  16.099  0.0009  0.3004  0.9344
13880TIP3    H163055   1.105   3.736  16.063  1.5075 -2.3862  0.8961
13880TIP3    H263056   0.954   3.743  16.059  1.6133  1.3431 -0.9112
13881TIP3   OH263057   6.167   2.649   5.805  0.5478 -0.3445 -0.1702
13881TIP3    H163058   6.250   2.661   5.850  0.3716 -0.7074  0.2611
13881TIP3    H263059   6.102   2.643   5.875  0.1210  0.1896 -0.5077
13882TIP3   OH263060   1.898   2.067  15.664  0.0100  0.4439 -0.4081
13882TIP3    H163061   1.871   2.147  15.619 -0.6157  0.7645  0.5038
13882TIP3    H263062   1.816   2.021  15.682  0.4673 -1.6937 -3.1460
13883TIP3   OH263063   1.542   0.951  14.762  0.4816 -0.0474 -0.0446
13883TIP3    H163064   1.500   0.896  14.695 -1.1772 -0.9418  1.6466
13883TIP3    H263065   1.612   0.897  14.797 -0.5262 -0.7668  0.9344
13884TIP3   OH263066   6.571   3.465   4.427 -0.1720  0.4762 -0.2687
13884TIP3    H163067   6.621   3.484   4.348  0.3671  0.2208  0.0018
13884TIP3    H263068   6.493   3.420   4.396  0.7019 -0.9076 -0.5758
13885TIP3   OH263069   2.600   1.361  12.854  0.3993 -0.7567  0.2664
13885TIP3    H163070   2.690   1.332  12.866  0.7578 -0.0583 -0.5835
13885TIP3    H263071   2.548   1.281  12.854  1.0608 -1.1896  0.4155
13886TIP3   OH263072   0.390   6.103  12.609 -0.2760  0.1486 -0.2638
13886TIP3    H163073   0.436   6.031  12.653 -1.8509 -0.1099  1.0826
13886TIP3    H263074   0.365   6.066  12.524  0.9639 -0.0805 -0.5451
13887TIP3   OH263075   6.464   2.351   4.378  0.1077  0.1050 -0.6839
13887TIP3    H163076   6.523   2.334   4.451 -2.0256 -1.1335  0.8549
13887TIP3    H263077   6.454   2.266   4.334 -1.9642 -0.2302  0.2878
13888TIP3   OH263078   0.293   1.097  13.060 -0.9223  0.2062  0.3732
13888TIP3    H163079   0.209   1.096  13.105 -0.2876 -0.0737  1.6073
13888TIP3    H263080   0.313   1.005  13.044 -1.0864  0.2985 -0.3917
13889TIP3   OH263081   2.499   4.474  14.500 -0.2993  0.0634  0.4113
13889TIP3    H163082   2.585   4.507  14.474 -0.5195 -0.4638 -1.0907
13889TIP3    H263083   2.516   4.385  14.531 -0.2552  0.0871  0.4558
13890TIP3   OH263084   4.428   2.228   0.776  0.5353  0.5952  0.1075
13890TIP3    H163085   4.481   2.165   0.726  1.6836  2.0153 -0.5338
13890TIP3    H263086   4.362   2.258   0.714  0.2668  0.3663  0.2799
13891TIP3   OH263087   6.242   1.794  10.063 -0.5915  0.4831 -0.3915
13891TIP3    H163088   6.183   1.867  10.043 -2.4093 -0.2708  1.7961
13891TIP3    H263089   6.188   1.716  10.047 -0.0572 -0.2496  1.2460
13892TIP3   OH263090   0.043   1.507  12.304  0.2744  0.2083  0.3944
13892TIP3    H163091   0.104   1.540  12.238  1.3936 -2.1056  0.1698
13892TIP3    H263092  -0.044   1.535  12.273  0.9975  1.4880 -0.5702
13893TIP3   OH263093   1.589   2.580   6.193 -0.1941 -0.5003 -0.3662
13893TIP3    H163094   1.672   2.573   6.240  0.2753 -1.9942 -1.3716
13893TIP3    H263095   1.531   2.518   6.237 -0.5495 -0.0425 -0.1740
13894TIP3   OH263096   0.088   0.603   4.878 -0.4006  0.1802 -0.0304
13894TIP3    H163097   0.120   0.584   4.966 -1.5934  1.6602  0.7762
13894TIP3    H263098   0.133   0.540   4.822  1.3347  0.0081  1.4530
13895TIP3   OH263099   3.657   3.478   3.302  0.3444  0.7603  0.0121
13895TIP3    H163100   3.745   3.512   3.315  0.8288 -0.7520  0.9182
13895TIP3    H263101   3.636   3.433   3.384 -1.9403  2.4853  0.4579
13896TIP3   OH263102   0.638   3.111   1.660  0.0623 -0.9350 -0.0431
13896TIP3    H163103   0.607   3.195   1.694  1.7918  0.3028 -1.4208
13896TIP3    H263104   0.639   3.121   1.565  0.4653 -2.4667 -0.2363
13897TIP3   OH263105   5.401   1.376  16.947 -0.2108  0.0455 -0.0255
13897TIP3    H163106   5.385   1.408  16.858  0.5808 -0.8451 -0.5069
13897TIP3    H263107   5.481   1.325  16.940 -1.2692 -1.8401  0.7303
13898TIP3   OH263108   2.987   1.914  11.144 -0.4324 -0.1523 -0.3250
13898TIP3    H163109   3.079   1.890  11.153 -0.8775 -2.1440 -0.6216
13898TIP3    H263110   2.960   1.939  11.232 -0.4142 -2.8582  0.5502
13899TIP3   OH263111   4.976   0.304  13.015  0.2164  0.1385  0.4118
13899TIP3    H163112   4.968   0.387  12.969  0.9150 -0.1824 -0.3212
13899TIP3    H263113   4.933   0.318  13.099  0.2146  1.1957  0.2423
13900TIP3   OH263114   1.054   3.818  13.443 -1.0816  0.5477  0.1183
13900TIP3    H163115   1.098   3.847  13.522  0.0921  1.5578 -0.8549
13900TIP3    H263116   0.961   3.819  13.465 -0.7840  0.8616  1.4500
13901TIP3   OH263117   6.279   1.629   5.193  0.6765 -0.2954 -0.1442
13901TIP3    H163118   6.236   1.550   5.227  0.5890 -0.0004  0.4518
13901TIP3    H263119   6.211   1.697   5.197  1.0641  0.0727  0.3979
13902TIP3   OH263120   6.305   4.053  13.070  0.4701 -0.3531 -0.0257
13902TIP3    H163121   6.278   3.962  13.075 -1.5022  0.1416 -0.9022
13902TIP3    H263122   6.348   4.070  13.154 -0.6779 -1.6219  0.8578
13903TIP3   OH263123   2.746   1.498  10.528 -0.4055 -0.0488 -0.2282
13903TIP3    H163124   2.728   1.582  10.487  1.3801 -0.2643 -1.5671
13903TIP3    H263125   2.685   1.437  10.487  1.4831 -0.3040 -2.8546
13904TIP3   OH263126   5.404   5.428   6.000  0.0142  0.2119 -0.3753
13904TIP3    H163127   5.369   5.391   6.081 -1.5748 -0.5634 -1.3693
13904TIP3    H263128   5.497   5.406   6.002  0.0020  0.1767  1.2036
13905TIP3   OH263129   4.602   5.123   6.339 -0.7413  0.1444  0.5657
13905TIP3    H163130   4.572   5.158   6.423  0.0384 -0.7133  1.2267
13905TIP3    H263131   4.695   5.103   6.352 -0.5984  0.0145 -0.5126
13906TIP3   OH263132   1.885   1.950   4.106 -0.0420  0.7406  0.5506
13906TIP3    H163133   1.807   1.951   4.049  1.6841  1.0600 -1.9680
13906TIP3    H263134   1.907   2.043   4.118  1.3151  0.6456 -0.8615
13907TIP3   OH263135   6.056   3.418   1.711  0.3078 -0.0097  0.1210
13907TIP3    H163136   6.116   3.373   1.651 -1.2616 -0.2087 -1.3763
13907TIP3    H263137   6.024   3.493   1.662  0.1017  0.6870  1.2789
13908TIP3   OH263138   2.626   2.925  16.129 -0.4373  0.0909 -0.2744
13908TIP3    H163139   2.708   2.880  16.108  0.3103  2.2341 -2.2939
13908TIP3    H263140   2.561   2.884  16.071  0.0477  0.9369 -1.4457
13909TIP3   OH263141   6.515   5.832  14.897 -0.0215  0.1578  0.3734
13909TIP3    H163142   6.445   5.891  14.872 -1.3645 -1.5565 -0.1198
13909TIP3    H263143   6.478   5.778  14.966  0.7999 -0.7842  0.1064
13910TIP3   OH263144   6.455   1.605  11.387  0.0976 -0.3861  0.0500
13910TIP3    H163145   6.384   1.551  11.420  0.1075 -1.0194 -0.9163
13910TIP3    H263146   6.425   1.637  11.302  0.8313 -0.3989 -0.2286
13911TIP3   OH263147   0.354   4.612   0.446 -0.4533  0.4785 -0.0550
13911TIP3    H163148   0.442   4.590   0.415 -0.8544 -1.6581  0.1197
13911TIP3    H263149   0.329   4.536   0.499 -1.9616  1.5609  0.8416
13912TIP3   OH263150   5.227   5.703   0.339  0.5641  0.2774 -0.0906
13912TIP3    H163151   5.237   5.791   0.304 -0.1460  0.6299  0.5629
13912TIP3    H263152   5.258   5.646   0.269  0.6552  1.0289 -0.6754
13913TIP3   OH263153   3.289   1.523   3.732 -0.2310 -0.2716  0.0735
13913TIP3    H163154   3.312   1.434   3.760  1.5373 -0.1352 -0.8380
13913TIP3    H263155   3.372   1.570   3.729 -1.3735  2.4593  3.7685
13914TIP3   OH263156   4.830   5.113   3.294  0.6104 -0.4705 -0.4134
13914TIP3    H163157   4.843   5.207   3.280  0.0649 -0.4484 -0.8493
13914TIP3    H263158   4.887   5.071   3.230  0.8704 -0.4364 -0.2042
13915TIP3   OH263159   5.996   1.234   1.439  0.0206 -0.1262 -0.1898
13915TIP3    H163160   5.930   1.189   1.491  0.7220 -1.5677 -0.4857
13915TIP3    H263161   6.040   1.164   1.390  1.8488  0.7497  0.1013
13916TIP3   OH263162   2.281   2.569  12.148 -0.0539 -0.3368  0.1864
13916TIP3    H163163   2.254   2.660  12.133 -0.9269 -0.6008  0.1158
13916TIP3    H263164   2.244   2.520  12.075 -0.4641 -0.9085  0.7587
13917TIP3   OH263165   1.719   6.017  12.095  0.2342  0.3121 -0.4209
13917TIP3    H163166   1.689   5.926  12.087 -0.8809  0.5818  0.3909
13917TIP3    H263167   1.695   6.058  12.012  2.1122 -0.4742 -1.4106
13918TIP3   OH263168   1.990   4.925   4.695 -0.0740  0.0926 -0.0997
13918TIP3    H163169   2.015   4.866   4.624  0.0988  1.2176 -1.0039
13918TIP3    H263170   1.907   4.890   4.728  0.3799 -1.0437 -0.1432
13919TIP3   OH263171   3.997   4.155   3.262  0.4235  0.0758 -0.0886
13919TIP3    H163172   3.984   4.070   3.304  2.8238 -0.1883  0.2904
13919TIP3    H263173   3.958   4.145   3.175 -0.9856 -0.7462  0.6067
13920TIP3   OH263174   1.079   1.922  10.479  0.4838  0.4764  0.1165
13920TIP3    H163175   1.131   1.930  10.560  1.0058  1.4205 -0.3027
13920TIP3    H263176   1.054   2.011  10.457  0.5915  0.2608 -0.9263
13921TIP3   OH263177   2.082   1.826  14.002 -0.1004 -0.4300  0.7665
13921TIP3    H163178   2.079   1.919  13.981  0.9825 -0.3883  0.7593
13921TIP3    H263179   2.131   1.786  13.930 -0.7115 -1.0458  0.6744
13922TIP3   OH263180   0.675   5.022  14.599 -0.3235  0.3752 -0.2298
13922TIP3    H163181   0.668   5.086  14.528 -0.2810 -1.2872 -1.8250
13922TIP3    H263182   0.734   5.062  14.662 -0.6708  2.0843 -0.9384
13923TIP3   OH263183   6.672   6.264   0.741  0.0491  0.0433  0.3270
13923TIP3    H163184   6.614   6.189   0.736 -0.4726  0.2559  2.3461
13923TIP3    H263185   6.616   6.337   0.768  0.7123  0.9507 -0.6553
13924TIP3   OH263186   5.134   1.290  12.124 -0.3394 -0.3611  0.5543
13924TIP3    H163187   5.059   1.329  12.168 -0.6976 -0.6341  0.1900
13924TIP3    H263188   5.101   1.207  12.089 -0.0378 -0.1913 -0.1406
13925TIP3   OH263189   3.504   3.293  13.919 -0.0392  0.6697 -0.2425
13925TIP3    H163190   3.553   3.234  13.862 -0.7152  0.1324 -0.2847
13925TIP3    H263191   3.506   3.378  13.873  1.2663  0.7968  0.0064
13926TIP3   OH263192   6.640   5.962   4.649 -0.1069 -0.7181 -0.2723
13926TIP3    H163193   6.636   5.866   4.645  1.2158 -0.8095  0.0740
13926TIP3    H263194   6.718   5.984   4.597 -1.7194  0.3561 -2.3667
13927TIP3   OH263195   3.606   5.664   1.775 -0.1883  0.0682  0.1663
13927TIP3    H163196   3.649   5.661   1.860 -0.8414 -0.0876  0.4927
13927TIP3    H263197   3.676   5.642   1.713  0.4741  0.9385  0.5814
13928TIP3   OH263198   0.277   4.749   2.449  0.3036  0.1335  0.1734
13928TIP3    H163199   0.369   4.731   2.430  0.6774  2.3915 -0.4923
13928TIP3    H263200   0.232   4.667   2.430  1.7225 -0.0754 -2.9368
13929TIP3   OH263201   4.566   3.403   4.046  0.3297  0.1428  0.0587
13929TIP3    H163202   4.530   3.334   3.990 -0.1935  0.6112 -0.1892
13929TIP3    H263203   4.514   3.481   4.025  1.1472  0.7065  0.0718
13930TIP3   OH263204   3.210   5.753  12.935  0.3245 -0.0528 -0.2023
13930TIP3    H163205   3.252   5.689  12.877  2.9047 -0.3052  1.7432
13930TIP3    H263206   3.144   5.703  12.982  1.8912 -1.2398  0.8473
13931TIP3   OH263207   4.182   3.722   0.660 -0.2876 -0.0766 -0.1433
13931TIP3    H163208   4.223   3.756   0.580 -1.8154 -1.9241 -1.8160
13931TIP3    H263209   4.096   3.763   0.662  0.6663  2.0190  2.0988
13932TIP3   OH263210   4.250   3.860   3.778  0.2289 -0.0148  0.1434
13932TIP3    H163211   4.219   3.779   3.738  2.5943 -0.8526 -0.1689
13932TIP3    H263212   4.269   3.835   3.869  0.8292  0.2229  0.0832
13933TIP3   OH263213   1.855   1.289   1.713 -0.6534 -0.0554 -0.0924
13933TIP3    H163214   1.782   1.233   1.738 -2.4785  1.2565 -2.0755
13933TIP3    H263215   1.889   1.250   1.633  1.9048 -1.4837  1.5674
13934TIP3   OH263216   4.451   1.645  15.329 -0.0726 -0.0371 -0.0889
13934TIP3    H163217   4.532   1.685  15.361 -1.3747  1.3695  1.6565
13934TIP3    H263218   4.457   1.650  15.234  0.7964  2.3980  0.0361
13935TIP3   OH263219   3.350   4.308   1.245  0.0137  0.6967 -0.1630
13935TIP3    H163220   3.362   4.247   1.317 -0.0061  1.3146  0.3765
13935TIP3    H263221   3.341   4.394   1.287  0.9464  1.2046 -0.9425
13936TIP3   OH263222   0.871   4.668   3.738 -0.0344  0.2029  0.5479
13936TIP3    H163223   0.834   4.716   3.665  0.2875  1.2672  1.0733
13936TIP3    H263224   0.798   4.617   3.773 -0.2604 -0.0818 -0.3069
13937TIP3   OH263225   6.032   0.733  15.225  0.0212  0.4334  0.3032
13937TIP3    H163226   6.121   0.738  15.191  0.1917 -0.8612  0.4922
13937TIP3    H263227   6.031   0.653  15.278 -1.4167  0.0643 -0.2219
13938TIP3   OH263228   3.318   2.722  15.837  0.3935 -0.4425  0.1778
13938TIP3    H163229   3.341   2.657  15.771  0.6078  1.0659 -1.3292
13938TIP3    H263230   3.302   2.802  15.786 -2.8667 -0.0246  1.6118
13939TIP3   OH263231   0.943   3.185   3.323  0.0030  0.1553 -0.4765
13939TIP3    H163232   1.020   3.145   3.283  0.1363 -0.6740  0.5776
13939TIP3    H263233   0.874   3.119   3.317 -0.3214  0.4779 -0.4140
13940TIP3   OH263234   1.531   4.809   4.612 -0.4268  0.2932  0.6430
13940TIP3    H163235   1.437   4.801   4.595 -0.1552 -0.0417 -0.8407
13940TIP3    H263236   1.567   4.843   4.530  0.6937  0.8387  1.3410
13941TIP3   OH263237   6.349   5.746  11.099  0.7898  0.0269 -0.1948
13941TIP3    H163238   6.417   5.679  11.091  1.0242  0.3116 -0.6133
13941TIP3    H263239   6.394   5.829  11.081 -0.1030  0.0390 -2.9106
13942TIP3   OH263240   2.369   4.619  13.980  0.5355 -0.3311 -0.0802
13942TIP3    H163241   2.406   4.670  13.909  0.9465  1.8277  1.5871
13942TIP3    H263242   2.291   4.668  14.007  0.2123 -1.2613  0.7538
13943TIP3   OH263243   1.369   0.886   6.327  0.3794 -0.0133  0.2364
13943TIP3    H163244   1.425   0.931   6.391  0.9582 -0.9974  0.4298
13943TIP3    H263245   1.422   0.883   6.247  0.3320 -0.3467  0.2202
13944TIP3   OH263246   3.995   4.375  13.202  0.0737 -0.5160  0.2660
13944TIP3    H163247   3.969   4.448  13.258  0.7952  0.0194 -0.0822
13944TIP3    H263248   4.010   4.303  13.263 -0.5050 -0.3411  0.6267
13945TIP3   OH263249   5.495   0.204   0.691  0.0182 -0.3053 -0.1575
13945TIP3    H163250   5.582   0.213   0.653  0.2646  2.0440  0.8020
13945TIP3    H263251   5.446   0.151   0.628  1.8269 -0.7652 -1.2224
13946TIP3   OH263252   6.490   5.245   4.482  0.6320  0.3927  0.1083
13946TIP3    H163253   6.436   5.251   4.561  0.3414  0.3029 -0.0823
13946TIP3    H263254   6.580   5.253   4.514  0.5301  0.0710  0.4848
13947TIP3   OH263255   6.252   0.787  14.253  0.0582 -0.2720  0.0242
13947TIP3    H163256   6.188   0.784  14.324 -0.8627  0.7363 -0.7274
13947TIP3    H263257   6.288   0.876  14.256  0.5837 -0.4686 -0.2782
13948TIP3   OH263258   0.749   1.816   2.882 -0.4871  0.1599  0.1248
13948TIP3    H163259   0.841   1.832   2.901 -0.6316 -1.6766  2.8149
13948TIP3    H263260   0.750   1.743   2.820 -0.1585  1.0357 -0.9389
13949TIP3   OH263261   6.615   1.547  13.817 -0.0606 -0.2096  0.5546
13949TIP3    H163262   6.578   1.545  13.728  2.0582  0.9517 -0.4272
13949TIP3    H263263   6.701   1.507  13.807 -0.0047 -0.5589  2.2389
13950TIP3   OH263264   1.671   5.734  17.350 -0.0855 -0.0207 -0.2043
13950TIP3    H163265   1.746   5.733  17.290 -0.4271 -0.2034 -0.6404
13950TIP3    H263266   1.601   5.692  17.300 -0.3227 -0.3657  0.4082
13951TIP3   OH263267   2.277   6.460   3.203  0.2131  0.3246 -0.1358
13951TIP3    H163268   2.314   6.468   3.291  0.9697 -1.5919 -0.2172
13951TIP3    H263269   2.183   6.449   3.217  0.3105  0.1762  0.4379
13952TIP3   OH263270   2.808   0.874  14.527 -0.3467  0.1577 -0.4713
13952TIP3    H163271   2.720   0.895  14.559 -0.0837  0.2530  0.2086
13952TIP3    H263272   2.839   0.955  14.487 -0.6228  0.0812 -0.8439
13953TIP3   OH263273   4.087   1.026   2.556 -0.4883  0.0617 -0.1264
13953TIP3    H163274   4.043   1.091   2.502 -4.1862  0.4010  2.8962
13953TIP3    H263275   4.148   1.076   2.610  1.5253  0.0056 -2.2207
13954TIP3   OH263276   2.385   4.216  16.300 -0.0795 -0.3109  0.2504
13954TIP3    H163277   2.336   4.134  16.309  0.3131 -0.4898  0.8443
13954TIP3    H263278   2.439   4.220  16.379  2.8920 -1.4667 -1.5974
13955TIP3   OH263279   1.696   1.486   6.336 -0.3892 -0.4720  0.0727
13955TIP3    H163280   1.640   1.415   6.303 -1.1912  0.2482 -0.1608
13955TIP3    H263281   1.721   1.535   6.257  0.6672 -0.8503  0.1679
13956TIP3   OH263282   0.981   2.321  14.925  0.4483 -0.4514 -0.7706
13956TIP3    H163283   0.942   2.245  14.882 -1.3649 -0.4145  0.6795
13956TIP3    H263284   1.029   2.284  15.000 -1.0378 -0.1880  0.3650
13957TIP3   OH263285   0.698   1.963  17.172  0.1142  0.1224  0.3304
13957TIP3    H163286   0.635   2.032  17.155 -0.7184 -0.6336  0.2551
13957TIP3    H263287   0.700   1.955  17.267  2.0936  1.9211  0.5065
13958TIP3   OH263288   3.713   4.143  12.119 -0.1418  0.2858 -0.0284
13958TIP3    H163289   3.679   4.126  12.031  0.6997  0.8420 -0.4792
13958TIP3    H263290   3.768   4.221  12.108  0.5510 -0.0707  0.8478
13959TIP3   OH263291   0.699   5.529  11.412  0.2007  0.1766  0.7980
13959TIP3    H163292   0.771   5.466  11.410  0.4973  0.5310 -0.8171
13959TIP3    H263293   0.713   5.584  11.336 -1.2105  0.9228  1.0415
13960TIP3   OH263294   1.376   2.469   5.075  0.1290 -0.4641 -0.1562
13960TIP3    H163295   1.282   2.458   5.085 -0.1364  0.6533 -1.1896
13960TIP3    H263296   1.412   2.443   5.160 -1.3693  1.9391  1.3600
13961TIP3   OH263297   0.285   5.655  12.550 -0.4264  0.3426 -0.4736
13961TIP3    H163298   0.325   5.741  12.541  1.2366 -0.1963  1.1664
13961TIP3    H263299   0.255   5.652  12.641 -1.3560 -0.4661 -0.7872
13962TIP3   OH263300   0.123   1.548   0.679 -0.6194 -0.1273  0.1247
13962TIP3    H163301   0.182   1.592   0.618 -2.3103  1.4662 -0.4437
13962TIP3    H263302   0.076   1.484   0.626  0.8074 -1.7050  0.6632
13963TIP3   OH263303   5.135   1.728   3.467 -0.5497  0.0309  0.0950
13963TIP3    H163304   5.130   1.656   3.529 -0.2258 -0.8625 -0.8873
13963TIP3    H263305   5.074   1.794   3.501  0.2002 -0.0913  1.7739
13964TIP3   OH263306   6.623   2.579  14.801 -0.7483  0.7959  0.3921
13964TIP3    H163307   6.698   2.636  14.815 -1.1799  1.2266  1.0371
13964TIP3    H263308   6.556   2.635  14.762 -0.3547  0.1401 -1.3210
13965TIP3   OH263309   6.733   3.201   3.909  0.3296 -0.1028 -0.1528
13965TIP3    H163310   6.688   3.244   3.981  0.6072 -0.0181 -0.0250
13965TIP3    H263311   6.691   3.236   3.830 -1.5895 -1.9637 -0.0454
13966TIP3   OH263312   6.327   4.569  11.623  0.0109 -0.4875  0.1326
13966TIP3    H163313   6.329   4.545  11.716  0.1389 -1.8180 -0.2004
13966TIP3    H263314   6.294   4.659  11.623 -0.6533 -0.7021  1.4187
13967TIP3   OH263315   1.317   0.512   5.117 -0.0110 -0.0231  1.0595
13967TIP3    H163316   1.351   0.544   5.034  0.0416  0.4019  1.2429
13967TIP3    H263317   1.222   0.512   5.105  0.0280 -1.0262  0.6162
13968TIP3   OH263318   1.223   1.157   6.195 -0.0814  0.1117 -0.1288
13968TIP3    H163319   1.210   1.128   6.105 -0.8781  1.0056 -0.3210
13968TIP3    H263320   1.156   1.224   6.208 -0.9848 -1.0495  1.6254
13969TIP3   OH263321   4.567   6.202   0.099  0.3510 -0.2030  0.3162
13969TIP3    H163322   4.612   6.238   0.022  0.5570 -2.2205 -0.5923
13969TIP3    H263323   4.637   6.161   0.150  0.4815  2.5437  2.5447
13970TIP3   OH263324   4.704   1.418  13.011  0.0236  0.5368 -0.3267
13970TIP3    H163325   4.625   1.372  13.040  0.1275 -0.2024 -1.1677
13970TIP3    H263326   4.758   1.350  12.970  0.9153  1.1086 -0.1281
13971TIP3   OH263327   3.885   4.182   1.148 -0.1931 -0.8304 -0.4403
13971TIP3    H163328   3.863   4.109   1.089 -2.5713  0.3930 -1.2034
13971TIP3    H263329   3.803   4.229   1.158  1.0544  1.1930  0.8448
13972TIP3   OH263330   3.643   6.356  12.840  0.0749  0.0158 -0.1381
13972TIP3    H163331   3.670   6.428  12.783  4.1103 -1.8785 -1.0400
13972TIP3    H263332   3.651   6.391  12.929 -1.3107  1.5551 -0.5816
13973TIP3   OH263333   0.095   6.290   4.862 -0.7569  0.1037  0.4872
13973TIP3    H163334   0.163   6.222   4.857 -0.0202  0.6675  2.1360
13973TIP3    H263335   0.017   6.243   4.894 -0.8024 -0.3130 -0.2174
13974TIP3   OH263336   1.240   5.743   4.918 -0.4111  0.0962  0.2251
13974TIP3    H163337   1.258   5.714   4.828  2.7206 -0.3826  0.8752
13974TIP3    H263338   1.216   5.663   4.964  0.6183 -0.1637  0.3439
13975TIP3   OH263339   5.877   5.424   2.994  0.5799  0.5273 -0.0142
13975TIP3    H163340   5.916   5.497   3.042 -1.7214  0.8911  1.4921
13975TIP3    H263341   5.900   5.346   3.045 -0.2675  0.7023  0.6718
13976TIP3   OH263342   3.797   5.804   4.171 -0.7692  0.5697 -0.4012
13976TIP3    H163343   3.822   5.879   4.116  1.2391  0.7654  0.6547
13976TIP3    H263344   3.805   5.837   4.261 -1.0436 -0.5781  0.0644
13977TIP3   OH263345   3.972   0.119  15.882  0.5474  0.1216  0.0121
13977TIP3    H163346   3.891   0.168  15.866  0.0371 -0.5362  0.5182
13977TIP3    H263347   3.956   0.032  15.847  1.4066  0.2641 -0.7695
13978TIP3   OH263348   3.954   4.680  14.700 -0.1189  0.1727 -0.3715
13978TIP3    H163349   3.938   4.586  14.707  1.1045  0.0547  2.2321
13978TIP3    H263350   3.935   4.714  14.788  0.5141  2.1746 -0.9478
13979TIP3   OH263351   0.892   0.856   6.237  0.0208 -0.7055 -0.4391
13979TIP3    H163352   0.843   0.932   6.269 -2.2517 -0.8580 -3.1351
13979TIP3    H263353   0.854   0.782   6.284  0.2243 -0.4682  0.1102
13980TIP3   OH263354   0.065   4.159   4.699 -0.3442 -0.4450 -0.8360
13980TIP3    H163355   0.137   4.168   4.637 -0.4998  0.6372 -0.8685
13980TIP3    H263356   0.104   4.179   4.784 -0.7365  0.8452 -0.9343
13981TIP3   OH263357   2.481   4.229  16.566  0.0012  0.0911 -0.1204
13981TIP3    H163358   2.573   4.212  16.545 -0.1102  0.0878 -0.6195
13981TIP3    H263359   2.483   4.305  16.624  0.3579 -0.2903  0.3730
13982TIP3   OH263360   0.257   6.369   1.431  0.2148  0.0485 -0.3105
13982TIP3    H163361   0.258   6.362   1.527  0.1271  0.9424 -0.2379
13982TIP3    H263362   0.333   6.319   1.403  1.7476  1.8442  0.3992
13983TIP3   OH263363   6.469   2.240  17.104  0.6084  0.5522 -0.1318
13983TIP3    H163364   6.564   2.240  17.113  0.5530 -1.0459  0.8187
13983TIP3    H263365   6.452   2.186  17.026  0.4597  0.4598 -0.0355
13984TIP3   OH263366   1.056   3.852  12.584  0.1851  0.0648  0.7716
13984TIP3    H163367   1.090   3.818  12.501 -0.8340  3.1131 -1.0508
13984TIP3    H263368   0.962   3.836  12.580 -0.0514  1.3595  0.6935
13985TIP3   OH263369   3.358   4.745  13.479 -0.0801 -0.2162  1.0969
13985TIP3    H163370   3.424   4.687  13.441 -0.8467  0.0664 -0.7742
13985TIP3    H263371   3.274   4.712  13.446 -0.5842  1.5383  0.5306
13986TIP3   OH263372   5.606   0.057   4.281 -0.1187  0.3917  0.1276
13986TIP3    H163373   5.627   0.037   4.190  1.1409  0.3657  0.4074
13986TIP3    H263374   5.689   0.047   4.328 -0.6382  0.9032  1.1964
13987TIP3   OH263375   3.930   6.674  12.680 -0.7873  0.3737  0.2258
13987TIP3    H163376   3.998   6.713  12.626 -3.1050  1.3189 -2.2346
13987TIP3    H263377   3.904   6.744  12.740 -0.4313  0.4150  0.3300
13988TIP3   OH263378   5.189   4.041  14.717 -0.5390 -0.1076 -0.1635
13988TIP3    H163379   5.269   4.093  14.726 -0.6775 -0.0278  0.7728
13988TIP3    H263380   5.119   4.105  14.704 -0.4633 -0.1767 -0.9717
13989TIP3   OH263381   0.877   0.198   3.651  0.4645 -0.2388 -0.2465
13989TIP3    H163382   0.964   0.239   3.650  1.0441 -1.4025 -1.4728
13989TIP3    H263383   0.878   0.138   3.576 -0.2267 -2.6961  1.5598
13990TIP3   OH263384   5.516   3.656  15.387 -0.2192  0.0364  0.3448
13990TIP3    H163385   5.556   3.618  15.465  2.6358  1.5124 -0.2759
13990TIP3    H263386   5.474   3.737  15.417 -1.8446 -0.9223  0.7922
13991TIP3   OH263387   3.058   2.911   6.347  0.6094  0.3171 -0.7015
13991TIP3    H163388   3.043   2.921   6.253 -1.6796 -0.3590 -0.4558
13991TIP3    H263389   3.079   2.999   6.378  0.5430  0.6956 -1.6930
13992TIP3   OH263390   1.883   3.320   5.444 -0.1496 -0.0553  0.2910
13992TIP3    H163391   1.931   3.344   5.365  0.5287  0.0515  0.7269
13992TIP3    H263392   1.843   3.235   5.423  0.1638 -0.1090 -0.1017
13993TIP3   OH263393   0.713   6.548  12.771 -0.1257  0.5715  0.0047
13993TIP3    H163394   0.622   6.562  12.748  0.0121  0.5359 -0.5765
13993TIP3    H263395   0.711   6.521  12.863 -0.8688 -1.5902 -0.6004
13994TIP3   OH263396   6.497   5.665   4.620  0.1093  0.5439 -0.1155
13994TIP3    H163397   6.454   5.718   4.687  1.6934 -0.5084  1.8306
13994TIP3    H263398   6.495   5.576   4.654 -0.8886 -0.4415 -2.4903
13995TIP3   OH263399   0.426   0.435   4.402 -0.2110 -0.0527  0.1072
13995TIP3    H163400   0.332   0.432   4.419 -0.1088 -2.2248  0.5587
13995TIP3    H263401   0.433   0.440   4.306 -0.7408  1.9165  0.1213
13996TIP3   OH263402   3.246   1.156  16.051  0.5911 -0.2110 -0.1560
13996TIP3    H163403   3.209   1.199  16.128  0.3324  0.4219 -0.6222
13996TIP3    H263404   3.178   1.095  16.023 -0.8627  2.0516 -1.9354
13997TIP3   OH263405   0.256   4.999   3.616 -0.1344 -0.0855  0.3845
13997TIP3    H163406   0.295   5.026   3.699 -0.6818  0.2567  0.5365
13997TIP3    H263407   0.224   5.080   3.578 -2.7781 -0.6051  1.3393
13998TIP3   OH263408   2.578   3.124  10.176  0.2893  0.2540 -0.3751
13998TIP3    H163409   2.517   3.050  10.180 -1.6417  1.7878  0.4541
13998TIP3    H263410   2.573   3.165  10.262  0.7520  1.7520 -1.0142
13999TIP3   OH263411   6.379   5.221   5.802 -0.0397 -0.3519  0.3055
13999TIP3    H163412   6.345   5.163   5.734 -0.2455  1.1850 -0.9390
13999TIP3    H263413   6.313   5.218   5.871 -1.3661  0.4372 -0.8871
14000TIP3   OH263414   0.782   2.588  17.363  0.1102 -0.1592  0.7706
14000TIP3    H163415   0.714   2.574  17.429 -1.3925 -0.2307 -0.7046
14000TIP3    H263416   0.801   2.681  17.369 -0.5325 -0.0236  0.8470
14001TIP3   OH263417   2.958   0.321  16.695  0.6420 -0.2468  0.0034
14001TIP3    H163418   3.050   0.324  16.721  0.5774 -0.4003  0.2560
14001TIP3    H263419   2.940   0.228  16.680  0.7219 -0.1447 -0.7641
14002TIP3   OH263420   5.114   1.333  15.944  0.3381  0.2016  0.6773
14002TIP3    H163421   5.143   1.302  15.858  0.1845  0.3689  0.5648
14002TIP3    H263422   5.063   1.412  15.926 -1.0104 -0.6115  0.7780
14003TIP3   OH263423   0.522   1.112  14.309  0.5642  0.0343 -0.0878
14003TIP3    H163424   0.468   1.185  14.338  0.5292 -0.2546  0.6141
14003TIP3    H263425   0.607   1.151  14.288  0.2475  0.4117 -0.6591
14004TIP3   OH263426   6.005   3.055  13.624  0.0401 -0.1904 -0.1770
14004TIP3    H163427   6.060   3.105  13.685  0.9564 -0.2691 -0.9124
14004TIP3    H263428   6.067   3.001  13.575 -0.5248  0.6452 -1.9178
14005TIP3   OH263429   4.398   3.903   2.757 -0.0916  0.3963 -0.2909
14005TIP3    H163430   4.483   3.943   2.736 -0.2475  0.4987 -0.7283
14005TIP3    H263431   4.389   3.831   2.695  0.3317 -0.5429  0.6918
14006TIP3   OH263432   5.374   2.809   4.298 -0.2296  0.0747 -0.3747
14006TIP3    H163433   5.369   2.837   4.390  2.1879  1.8967 -0.6964
14006TIP3    H263434   5.429   2.730   4.300 -1.2546 -0.6517 -0.1620
14007TIP3   OH263435   3.551   3.586   1.911 -0.2311  0.4450  0.3950
14007TIP3    H163436   3.546   3.667   1.860 -3.1684  1.0111  1.3458
14007TIP3    H263437   3.501   3.523   1.860 -1.5263  0.4756  1.5505
14008TIP3   OH263438   4.477   2.845   2.360 -0.1345 -0.2700  0.9977
14008TIP3    H163439   4.443   2.901   2.429  0.7798  1.3017  0.2258
14008TIP3    H263440   4.553   2.803   2.398  0.9233  1.3037  0.7167
14009TIP3   OH263441   5.768   6.520   0.206  0.0265 -0.0256 -0.2825
14009TIP3    H163442   5.755   6.485   0.294  0.3838 -0.8211 -0.5345
14009TIP3    H263443   5.748   6.446   0.148  1.0772  0.0966 -0.8241
14010TIP3   OH263444   5.576   5.444   3.604  0.3263 -0.0192  0.5396
14010TIP3    H163445   5.520   5.366   3.604  0.0713  0.0660 -2.1464
14010TIP3    H263446   5.661   5.412   3.635  0.6806 -1.8312 -1.9655
14011TIP3   OH263447   2.444   4.272   0.895  0.0628  0.1698  0.0854
14011TIP3    H163448   2.372   4.217   0.865 -0.7706  0.9921  0.5295
14011TIP3    H263449   2.523   4.230   0.860 -0.6674 -0.4234 -0.8819
14012TIP3   OH263450   4.002   2.266   0.435  0.1726 -0.1203 -0.1436
14012TIP3    H163451   4.051   2.186   0.454  0.0086 -0.0617  0.5670
14012TIP3    H263452   3.940   2.274   0.508 -0.6464  0.0051 -0.8497
14013TIP3   OH263453   5.661   0.099   2.674  0.0314  0.0846 -0.4411
14013TIP3    H163454   5.568   0.118   2.658  0.0131  2.4640  1.8228
14013TIP3    H263455   5.667   0.004   2.666 -2.0344  0.0385 -3.0755
14014TIP3   OH263456   1.654   5.675   4.042  0.0490  0.2109 -0.3163
14014TIP3    H163457   1.685   5.717   3.961  2.6573 -1.0383 -0.0349
14014TIP3    H263458   1.727   5.683   4.103 -0.9207 -1.1558  1.0851
14015TIP3   OH263459   4.820   4.486  12.009 -0.3922 -0.3646  0.4250
14015TIP3    H163460   4.848   4.395  12.000  0.7607  0.0049  0.0450
14015TIP3    H263461   4.799   4.496  12.102  0.8400 -0.6666  0.7581
14016TIP3   OH263462   5.327   0.119   1.239  0.0881 -0.0441 -0.4336
14016TIP3    H163463   5.305   0.123   1.332  0.1909 -1.5933 -0.3204
14016TIP3    H263464   5.421   0.137   1.236 -0.0785  0.8646 -0.3307
14017TIP3   OH263465   3.948   2.783  12.926 -0.1088 -0.6772 -0.2153
14017TIP3    H163466   3.987   2.840  12.860 -0.5497 -1.2096 -0.9535
14017TIP3    H263467   4.023   2.743  12.971  0.1974 -0.6560 -0.7025
14018TIP3   OH263468   0.262   2.380  17.088 -0.0008 -0.1659 -0.3547
14018TIP3    H163469   0.280   2.417  17.175  0.0965  0.7573 -0.7598
14018TIP3    H263470   0.342   2.396  17.039 -0.8478  1.3374 -1.2890
14019TIP3   OH263471   5.226   2.831  15.260  0.0889 -0.1043 -0.4393
14019TIP3    H163472   5.297   2.766  15.258 -0.0016 -0.2315  0.2286
14019TIP3    H263473   5.175   2.808  15.338  0.1906  0.9226 -0.0620
14020TIP3   OH263474   4.684   2.446  15.899 -0.2970 -0.1840 -0.4270
14020TIP3    H163475   4.601   2.477  15.864 -0.2426 -0.5767 -0.9162
14020TIP3    H263476   4.681   2.467  15.992 -1.2150 -0.7711 -0.3159
14021TIP3   OH263477   3.457   5.518   1.333  0.8201  0.1613  0.1990
14021TIP3    H163478   3.477   5.610   1.316  1.0181  0.0036 -0.4765
14021TIP3    H263479   3.363   5.510   1.317  1.1065 -0.1121 -1.5307
14022TIP3   OH263480   0.275   1.786   2.950 -0.3629  0.2199 -0.4479
14022TIP3    H163481   0.183   1.788   2.926 -0.0092  1.2289 -1.8880
14022TIP3    H263482   0.319   1.838   2.882  1.0554  1.1450  1.0669
14023TIP3   OH263483   4.456   5.416  15.360 -0.1332  0.0458 -0.0455
14023TIP3    H163484   4.454   5.327  15.324 -1.0175  0.0723 -0.0875
14023TIP3    H263485   4.389   5.416  15.428 -0.4350  0.7937 -0.3331
14024TIP3   OH263486   2.526   5.397  14.790  0.4101 -0.1009 -0.7756
14024TIP3    H163487   2.611   5.357  14.808  0.5610  1.1838  1.7981
14024TIP3    H263488   2.463   5.326  14.798  0.8841 -0.3310  1.4328
14025TIP3   OH263489   3.793   4.317   1.475 -0.4887 -0.2374 -0.2873
14025TIP3    H163490   3.713   4.359   1.445 -0.7958  1.0348  2.0383
14025TIP3    H263491   3.863   4.373   1.441 -0.6658 -0.3629 -0.8711
14026TIP3   OH263492   5.603   5.048  15.277 -0.2139  0.4271  0.0209
14026TIP3    H163493   5.525   5.033  15.330 -0.8507  2.8124 -0.1141
14026TIP3    H263494   5.660   5.100  15.333  0.1998  0.8122 -0.7467
14027TIP3   OH263495   4.946   6.091  11.771  0.2913  0.0548  0.2258
14027TIP3    H163496   4.896   6.012  11.793  0.7918 -0.2193  0.3872
14027TIP3    H263497   5.002   6.105  11.846  0.8266  0.0639 -0.1665
14028TIP3   OH263498   1.427   6.230   0.249 -0.2300 -0.6664 -0.0273
14028TIP3    H163499   1.412   6.136   0.260  0.1357 -0.5022  2.4332
14028TIP3    H263500   1.468   6.258   0.331 -0.7326  1.7241 -0.5028
14029TIP3   OH263501   0.862   2.072   0.021 -0.2280  0.5217 -0.1321
14029TIP3    H163502   0.943   2.120   0.004 -0.8046  1.2480 -0.8924
14029TIP3    H263503   0.880   1.984  -0.011  0.3248  0.6262 -0.1308
14030TIP3   OH263504   4.253   4.800   2.977  0.2298 -0.5169 -0.0680
14030TIP3    H163505   4.330   4.853   2.957  0.7412 -0.5102  1.6857
14030TIP3    H263506   4.187   4.827   2.914  0.7859  1.5383  0.1699
14031TIP3   OH263507   0.041   2.392  15.000  0.0652 -0.4042  0.6489
14031TIP3    H163508   0.023   2.348  15.083 -0.1886 -1.0709  0.2509
14031TIP3    H263509   0.003   2.333  14.934 -1.4946  1.0382  0.1824
14032TIP3   OH263510   1.240   5.556  11.512 -0.2131  0.2122 -0.1516
14032TIP3    H163511   1.198   5.605  11.441  0.9426 -0.3793 -1.2799
14032TIP3    H263512   1.322   5.525  11.474  1.5201  1.7258  2.1027
14033TIP3   OH263513   1.556   1.312  12.717 -0.3304  0.1423  0.1520
14033TIP3    H163514   1.531   1.225  12.749  0.1871  0.8425  2.6725
14033TIP3    H263515   1.645   1.325  12.752  0.3413  0.9625 -1.7530
14034TIP3   OH263516   3.687   3.467   1.223  0.2715  0.0775  0.2113
14034TIP3    H163517   3.708   3.379   1.254 -0.0637 -0.2695 -0.5224
14034TIP3    H263518   3.766   3.495   1.177 -0.6363 -1.0728 -2.2072
14035TIP3   OH263519   3.942   6.207   0.302 -0.1072 -0.7332  0.4550
14035TIP3    H163520   3.990   6.124   0.293 -0.9306 -1.4696  2.3059
14035TIP3    H263521   3.862   6.194   0.250  0.5807 -0.3868 -0.7260
14036TIP3   OH263522   3.461   1.150   5.016  0.0899  1.0092 -0.4339
14036TIP3    H163523   3.468   1.197   5.098  0.1718 -0.0324  0.1775
14036TIP3    H263524   3.517   1.199   4.955 -1.0378  2.5667 -0.2705
14037TIP3   OH263525   5.460   2.158  10.362  0.0570 -0.1804 -0.7440
14037TIP3    H163526   5.382   2.176  10.310 -0.4626 -1.0466 -0.2883
14037TIP3    H263527   5.527   2.217  10.326  0.0653 -1.5572 -3.1630
14038TIP3   OH263528   5.180   4.651   2.401  0.0971  0.5575 -0.3126
14038TIP3    H163529   5.265   4.632   2.441 -1.4761 -0.0309  3.1481
14038TIP3    H263530   5.159   4.574   2.350  1.4068  0.5149 -0.8204
14039TIP3   OH263531   6.273   1.549   5.958 -0.1071  0.0904  0.7328
14039TIP3    H163532   6.293   1.631   5.913 -0.1897 -0.7369 -0.8806
14039TIP3    H263533   6.336   1.546   6.030  1.1545  0.6978 -0.2980
14040TIP3   OH263534   1.369   5.027   1.607  0.4681 -0.1967  0.0046
14040TIP3    H163535   1.437   5.050   1.671  1.4868  0.4556 -1.2582
14040TIP3    H263536   1.288   5.029   1.657  1.0913  1.4109  1.0580
14041TIP3   OH263537   3.702   3.550   5.736 -0.1661  0.1563  0.0332
14041TIP3    H163538   3.682   3.628   5.683  1.3533  0.5872  0.0296
14041TIP3    H263539   3.773   3.579   5.794 -2.2412 -0.0689  2.9062
14042TIP3   OH263540   1.490   5.810   0.928  0.0364  0.3756 -0.2037
14042TIP3    H163541   1.518   5.889   0.881  1.6273 -0.0065  0.0549
14042TIP3    H263542   1.541   5.739   0.887  1.8844  0.0876  2.3706
14043TIP3   OH263543   1.517   4.471  17.366 -0.0373 -0.0838  0.6968
14043TIP3    H163544   1.571   4.500  17.292  0.6733 -0.1704  1.1641
14043TIP3    H263545   1.572   4.486  17.443 -0.6077 -0.3786  1.1716
14044TIP3   OH263546   2.241   0.950   4.017 -0.2172 -0.6649 -0.2815
14044TIP3    H163547   2.332   0.921   4.016  0.4427  1.2427  0.0457
14044TIP3    H263548   2.217   0.956   3.925  0.9950  1.5958 -0.5234
14045TIP3   OH263549   4.425   2.537  13.371  0.2103 -0.4649  0.2478
14045TIP3    H163550   4.369   2.568  13.442  0.3729 -1.1840  0.7108
14045TIP3    H263551   4.373   2.548  13.292 -0.5926 -1.1109  0.6698
14046TIP3   OH263552   0.197   6.224  15.683  0.2926 -0.0248  0.3904
14046TIP3    H163553   0.121   6.194  15.634 -0.3192  1.0172  0.6588
14046TIP3    H263554   0.199   6.319  15.668  1.9177 -0.1197 -0.1307
14047TIP3   OH263555   0.105   6.036  13.269 -0.1553  0.5108  0.1113
14047TIP3    H163556   0.096   6.120  13.225  0.7599  0.1435 -0.8316
14047TIP3    H263557   0.027   6.029  13.324 -1.0606  1.2503 -1.0192
14048TIP3   OH263558   6.254   1.744   3.129 -0.6965 -0.6361 -0.4598
14048TIP3    H163559   6.162   1.721   3.144 -0.3540 -1.8299 -0.0910
14048TIP3    H263560   6.300   1.715   3.208 -0.0313  0.2128 -0.5135
14049TIP3   OH263561   2.772   4.217  16.489  0.3893  0.9332 -0.2011
14049TIP3    H163562   2.755   4.290  16.429 -0.1259  0.1251 -1.0812
14049TIP3    H263563   2.818   4.256  16.563  1.5206  1.8841 -1.3653
14050TIP3   OH263564   4.680   0.815  14.470  0.3728 -0.2684 -0.0141
14050TIP3    H163565   4.651   0.726  14.450  1.7236 -0.5511 -0.9420
14050TIP3    H263566   4.726   0.842  14.390  0.8621  0.8704  0.6408
14051TIP3   OH263567   2.581   3.072   3.183  0.0029 -1.0566  0.1543
14051TIP3    H163568   2.565   3.120   3.265 -1.1074  0.0618 -0.6830
14051TIP3    H263569   2.581   2.980   3.210  2.2685 -0.6548  1.8144
14052TIP3   OH263570   5.208   2.745  13.467  0.1173 -0.2580  0.2451
14052TIP3    H163571   5.120   2.754  13.504 -0.3119  1.5612 -1.0558
14052TIP3    H263572   5.266   2.785  13.532 -0.2997  0.5137  0.1516
14053TIP3   OH263573   5.441   0.003   6.059  0.0601 -0.4445 -0.0011
14053TIP3    H163574   5.427  -0.022   5.968  0.0799 -2.2604  0.4568
14053TIP3    H263575   5.405  -0.070   6.110 -0.2133  0.6628  1.4612
14054TIP3   OH263576   4.086   5.421   5.829  0.2778  0.6674  0.0218
14054TIP3    H163577   4.132   5.391   5.750 -0.4640  0.6495 -0.4084
14054TIP3    H263578   4.154   5.420   5.897  0.4616 -1.3698 -0.1120
14055TIP3   OH263579   5.275   1.570  12.996 -0.0321 -0.0683  0.2845
14055TIP3    H163580   5.216   1.634  12.956 -1.9163 -1.2049  1.1501
14055TIP3    H263581   5.362   1.612  12.991 -0.7425  1.3314 -1.6890
14056TIP3   OH263582   2.597   2.724  16.676 -0.1770 -0.1945 -0.1802
14056TIP3    H163583   2.631   2.635  16.685  0.9612  0.2772  0.4786
14056TIP3    H263584   2.536   2.720  16.603 -1.1179 -1.7980  0.6583
14057TIP3   OH263585   3.248   1.370   4.812  0.2972  0.3657 -0.3108
14057TIP3    H163586   3.294   1.440   4.767 -0.3190  1.8688  1.2730
14057TIP3    H263587   3.242   1.400   4.903 -2.2797 -0.5064 -0.1065
14058TIP3   OH263588   2.508   6.678  15.031  0.0182  0.0971  0.3956
14058TIP3    H163589   2.420   6.677  15.069 -1.3803  0.0638 -2.5820
14058TIP3    H263590   2.539   6.767  15.045 -0.9297  0.4117  0.5875
14059TIP3   OH263591   0.513   6.740   0.397  0.0094 -0.6103  0.5813
14059TIP3    H163592   0.542   6.815   0.449 -1.1574  1.6040 -1.7195
14059TIP3    H263593   0.580   6.731   0.329  0.2069 -1.8036  0.9100
14060TIP3   OH263594   1.681   4.168   3.445  0.3009 -0.1208 -0.1994
14060TIP3    H163595   1.667   4.251   3.492 -2.4806 -1.0590  0.8173
14060TIP3    H263596   1.715   4.195   3.360  1.1931  1.9146  0.7087
14061TIP3   OH263597   6.578   6.640   0.800 -1.1488 -0.0124 -0.1930
14061TIP3    H163598   6.661   6.635   0.754 -1.8270  1.1558 -1.6004
14061TIP3    H263599   6.519   6.685   0.740 -1.9034  2.2291  2.0636
14062TIP3   OH263600   3.761   4.222   3.734  0.3287  0.1391 -0.3539
14062TIP3    H163601   3.834   4.249   3.677  0.8155 -0.2626  0.0659
14062TIP3    H263602   3.780   4.263   3.818 -0.5778  1.0194 -0.5720
14063TIP3   OH263603   6.264   4.347   3.821 -0.0218 -0.4234 -0.5308
14063TIP3    H163604   6.313   4.419   3.781  0.8479 -0.9144 -0.3626
14063TIP3    H263605   6.255   4.282   3.751 -0.3332 -0.3902 -0.5251
14064TIP3   OH263606   6.196   3.541   2.553  0.2425 -0.0791  0.1156
14064TIP3    H163607   6.152   3.463   2.520  0.8502 -0.3614 -0.0334
14064TIP3    H263608   6.289   3.518   2.556  0.1806 -0.2220  2.4931
14065TIP3   OH263609   0.425   1.493  15.891  0.1702  0.0358 -0.0906
14065TIP3    H163610   0.451   1.401  15.887  1.0969  0.2393  0.8397
14065TIP3    H263611   0.507   1.542  15.886 -0.1861  0.7697  0.8670
14066TIP3   OH263612   0.558   1.075  15.725  0.0597  0.5311 -0.2665
14066TIP3    H163613   0.533   0.993  15.768 -0.4497  1.3223  0.9923
14066TIP3    H263614   0.543   1.058  15.632  0.7891 -1.0861 -0.1294
14067TIP3   OH263615   2.635   0.380  12.943 -0.1948 -0.1823  0.0456
14067TIP3    H163616   2.561   0.331  12.978 -0.6280 -0.3877 -1.1292
14067TIP3    H263617   2.596   0.460  12.908  0.3375  0.3908  0.7279
14068TIP3   OH263618   6.648   2.843  16.691 -0.0387 -0.0619  0.8555
14068TIP3    H163619   6.569   2.818  16.739 -2.8127  2.1842 -2.1445
14068TIP3    H263620   6.698   2.896  16.754 -0.8656 -1.5026  2.8183
14069TIP3   OH263621   5.102   5.878  16.259 -0.0165 -0.0524 -0.5824
14069TIP3    H163622   5.121   5.787  16.234  0.6609 -0.4270  1.2035
14069TIP3    H263623   5.181   5.926  16.235  1.1177 -0.6237  1.7864
14070TIP3   OH263624   1.320   3.145   4.445  0.4775 -0.0393 -0.5735
14070TIP3    H163625   1.275   3.222   4.410  1.1837 -0.9802 -3.9251
14070TIP3    H263626   1.252   3.078   4.451  0.5775 -0.2483 -1.5498
14071TIP3   OH263627   4.138   5.018   0.318  0.0103 -0.0560  0.2958
14071TIP3    H163628   4.100   4.945   0.269  0.7511  0.8743 -1.7663
14071TIP3    H263629   4.217   4.982   0.358  0.2663 -0.4466 -0.5407
14072TIP3   OH263630   3.891   6.307  12.978  0.4726  0.7552 -0.2010
14072TIP3    H163631   3.876   6.265  13.063 -1.0638  1.6329  0.0094
14072TIP3    H263632   3.925   6.237  12.923 -0.7017 -0.4407  0.5154
14073TIP3   OH263633   3.950   2.988  14.658  0.8710  0.3424 -0.0569
14073TIP3    H163634   3.963   2.896  14.681 -0.7472  0.1416  0.1553
14073TIP3    H263635   4.021   3.034  14.704 -0.2166 -0.4386  2.5883
14074TIP3   OH263636   3.849   5.276   2.930  0.0200  0.0941 -0.3705
14074TIP3    H163637   3.816   5.286   2.841  0.4698  0.2167 -0.5229
14074TIP3    H263638   3.792   5.209   2.968  0.1780 -0.3677 -0.9290
14075TIP3   OH263639   5.790   3.762   1.951  0.2494  0.2610 -0.2717
14075TIP3    H163640   5.876   3.770   1.993 -0.2446  0.8217  0.6548
14075TIP3    H263641   5.793   3.677   1.907  0.4303 -0.8119  1.7242
14076TIP3   OH263642   2.300   0.231   5.204  0.6037 -0.2385  0.9398
14076TIP3    H163643   2.359   0.163   5.171 -1.2072 -0.9456 -1.1323
14076TIP3    H263644   2.310   0.303   5.142 -1.3687 -0.7862 -0.1172
14077TIP3   OH263645   0.155   5.956  10.908  0.4434  0.2934  0.2737
14077TIP3    H163646   0.215   5.923  10.976  0.9487  0.1056 -0.2535
14077TIP3    H263647   0.108   5.878  10.879  0.1772  0.3859  0.4496
14078TIP3   OH263648   3.458   4.949   0.980 -0.4699  0.1716  0.0685
14078TIP3    H163649   3.390   5.010   0.950  1.3320  2.6630  0.7745
14078TIP3    H263650   3.486   4.904   0.901 -1.8183  0.2291 -0.4774
14079TIP3   OH263651   0.784   0.828   3.896 -0.6414 -0.1413 -0.0665
14079TIP3    H163652   0.697   0.861   3.920 -0.1809  0.0785  1.3814
14079TIP3    H263653   0.826   0.809   3.979  0.4463 -0.9394 -0.7824
14080TIP3   OH263654   1.170   0.680   0.881  0.0874 -0.2115 -0.1558
14080TIP3    H163655   1.197   0.627   0.956  1.0500 -0.5091 -0.6950
14080TIP3    H263656   1.207   0.766   0.897 -1.4463  0.3352  0.7022
14081TIP3   OH263657   2.319   4.663  15.984  0.0252  0.4098  0.1991
14081TIP3    H163658   2.267   4.728  15.937  0.9250  1.4483  0.5931
14081TIP3    H263659   2.371   4.714  16.046  1.6724 -0.5563 -0.3249
14082TIP3   OH263660   5.815   1.901  12.394 -0.3735 -0.6277 -0.0863
14082TIP3    H163661   5.864   1.844  12.335 -0.6349 -2.2127  1.1643
14082TIP3    H263662   5.853   1.988  12.381  2.1791 -1.6379  0.1836
14083TIP3   OH263663   4.457   2.368  16.080  0.1159 -0.4457 -0.3108
14083TIP3    H163664   4.522   2.435  16.099  0.5405 -0.3116 -1.9964
14083TIP3    H263665   4.501   2.286  16.100 -0.6338 -0.2603  2.3967
14084TIP3   OH263666   2.612   5.853   1.992 -0.7059 -0.3918 -0.5541
14084TIP3    H163667   2.536   5.796   1.982 -0.6377 -0.4816 -0.5593
14084TIP3    H263668   2.644   5.834   2.080 -0.6079 -0.4533 -0.6037
14085TIP3   OH263669   5.642   5.058   6.048 -0.4041  0.5753  0.5411
14085TIP3    H163670   5.661   4.993   6.115  0.1659 -0.2936 -0.4425
14085TIP3    H263671   5.728   5.097   6.028 -0.7025  1.4788  0.9539
14086TIP3   OH263672   4.322   2.359  15.611 -0.2333 -0.4681 -0.0361
14086TIP3    H163673   4.304   2.275  15.568 -0.4216 -0.1255 -0.6376
14086TIP3    H263674   4.248   2.373  15.669 -0.1723 -0.7432  0.1113
14087TIP3   OH263675   4.801   5.091  10.267 -0.2277 -0.2653  0.2585
14087TIP3    H163676   4.829   5.181  10.248 -1.0283 -0.2239 -0.7736
14087TIP3    H263677   4.781   5.092  10.361  0.4970  0.4230  0.4240
14088TIP3   OH263678   4.827   1.569   0.310  0.4625 -0.5234 -0.1630
14088TIP3    H163679   4.773   1.598   0.236  0.6856 -0.9199 -0.4830
14088TIP3    H263680   4.766   1.524   0.368  0.0404  0.8778  0.5142
14089TIP3   OH263681   5.941   5.008   1.736 -0.0913 -0.3839  0.3892
14089TIP3    H163682   6.036   5.015   1.744 -0.2677  1.1986  1.3875
14089TIP3    H263683   5.917   5.074   1.671 -0.6408  0.3345  1.2921
14090TIP3   OH263684   3.345   2.768  12.070  0.0010 -0.6020  0.1298
14090TIP3    H163685   3.341   2.832  11.999  1.6739 -0.1119  0.4462
14090TIP3    H263686   3.283   2.801  12.136  0.8750  0.7355  0.3108
14091TIP3   OH263687   6.335   1.512   4.323  0.6348 -0.3349 -0.5163
14091TIP3    H163688   6.287   1.488   4.402  0.7392  0.8336 -0.0789
14091TIP3    H263689   6.316   1.442   4.261 -2.5539  0.6047 -0.7631
14092TIP3   OH263690   4.728   5.152  15.308 -0.3984  0.2256  0.2272
14092TIP3    H163691   4.755   5.068  15.347 -1.2553  0.8814  2.3945
14092TIP3    H263692   4.805   5.208  15.318 -0.4754  0.2667  0.6103
14093TIP3   OH263693   1.689   5.213  15.144 -0.1975 -0.3118  0.2448
14093TIP3    H163694   1.656   5.288  15.194  0.8632  0.0280  0.4680
14093TIP3    H263695   1.776   5.240  15.114 -0.5258 -0.7803 -1.2063
14094TIP3   OH263696   5.527   6.726  14.109 -0.2011  0.2399 -0.0537
14094TIP3    H163697   5.577   6.805  14.128 -1.3999  0.9552  0.1937
14094TIP3    H263698   5.527   6.721  14.013 -1.8280  1.6962 -0.1684
14095TIP3   OH263699   5.995   3.893  14.087  0.1475 -0.2600 -0.2376
14095TIP3    H163700   5.964   3.928  14.003 -0.3112 -1.1385 -0.4563
14095TIP3    H263701   5.974   3.799  14.082 -3.4874  0.1842  2.3787
14096TIP3   OH263702   3.234   2.398   4.222 -0.3876  0.4315  0.2592
14096TIP3    H163703   3.192   2.441   4.147  2.5665  0.8462 -1.2900
14096TIP3    H263704   3.266   2.470   4.276  1.9394  0.2344 -0.7782
14097TIP3   OH263705   5.386   5.847  14.855  0.5525 -0.3320 -0.0950
14097TIP3    H163706   5.379   5.914  14.787  1.5773 -0.3042 -0.1872
14097TIP3    H263707   5.475   5.856  14.888  0.1129 -0.4360  1.1682
14098TIP3   OH263708   0.878   2.847   0.474  0.1719 -0.1388 -0.7612
14098TIP3    H163709   0.970   2.856   0.499  0.1844 -1.4720 -0.2378
14098TIP3    H263710   0.854   2.760   0.505 -0.9357 -0.2768 -1.9545
14099TIP3   OH263711   2.083   2.922   1.060  0.9028  0.3072 -0.0240
14099TIP3    H163712   2.136   2.917   0.980 -1.5045 -0.0732 -1.6934
14099TIP3    H263713   2.091   3.013   1.087  2.4197  0.2557 -0.1858
14100TIP3   OH263714   1.668   4.452  15.189 -0.2115  0.4690  0.1984
14100TIP3    H163715   1.698   4.400  15.115  1.0833 -0.6444  1.4401
14100TIP3    H263716   1.695   4.402  15.266  0.0740  2.4246  1.4391
14101TIP3   OH263717   4.280   2.615   1.208 -0.2007  0.5835  0.3543
14101TIP3    H163718   4.259   2.591   1.117 -0.4889 -0.3084  0.6484
14101TIP3    H263719   4.197   2.606   1.254 -0.0670  1.0991  0.6983
14102TIP3   OH263720   1.431   2.337   0.824 -0.3830 -0.7133  0.1665
14102TIP3    H163721   1.462   2.420   0.788 -0.0135 -0.2718  1.4528
14102TIP3    H263722   1.424   2.279   0.748 -2.8719  1.1123 -1.1783
14103TIP3   OH263723   3.294   3.859  10.651  0.3001 -0.2418  0.3481
14103TIP3    H163724   3.246   3.826  10.574 -0.6398  0.6839  0.5144
14103TIP3    H263725   3.386   3.841  10.631 -0.1418 -3.9329  0.8957
14104TIP3   OH263726   1.672   0.015  13.080 -0.2846  0.2469 -0.2514
14104TIP3    H163727   1.645   0.083  13.019 -1.1584  0.6265  0.5159
14104TIP3    H263728   1.598  -0.047  13.081 -1.3672  1.4418  2.0974
14105TIP3   OH263729   6.186   1.667  15.777  0.4267 -0.2243 -0.9112
14105TIP3    H163730   6.181   1.609  15.701 -1.5813 -1.8224  0.3229
14105TIP3    H263731   6.108   1.722  15.771 -0.4784 -1.2507  0.5749
14106TIP3   OH263732   1.822   0.699   4.785  0.1238 -0.2522  0.5288
14106TIP3    H163733   1.861   0.651   4.859  1.0926 -0.6615 -0.2286
14106TIP3    H263734   1.771   0.633   4.738  0.6921 -0.3317  0.0175
14107TIP3   OH263735   3.404   0.798   4.931 -0.3746  0.1049  0.0000
14107TIP3    H163736   3.386   0.725   4.871 -1.8771 -0.8804  1.5489
14107TIP3    H263737   3.322   0.848   4.932  0.6956  2.0025 -1.1808
14108TIP3   OH263738   1.512   5.978  13.025  0.4884  0.0363 -0.0776
14108TIP3    H163739   1.533   5.940  13.110  0.0500 -0.0810 -0.0197
14108TIP3    H263740   1.560   5.924  12.962  0.0842 -0.4471  0.0258
14109TIP3   OH263741   4.385   0.457  17.331  0.6182  0.4302  0.1951
14109TIP3    H163742   4.333   0.531  17.363  0.3355  1.0045 -1.4613
14109TIP3    H263743   4.475   0.482  17.350  0.3817 -0.2256  2.4014
14110TIP3   OH263744   4.111   3.873  10.597 -0.3663  0.4742  0.5658
14110TIP3    H163745   4.180   3.827  10.549 -2.6120 -1.8055 -0.7561
14110TIP3    H263746   4.132   3.857  10.690  0.0360 -1.6410  0.1734
14111TIP3   OH263747   4.560   1.660  11.741 -0.2867  0.2596 -0.0238
14111TIP3    H163748   4.510   1.741  11.754  0.2774  0.7474 -0.7918
14111TIP3    H263749   4.523   1.623  11.661  0.8500  0.8557 -0.8560
14112TIP3   OH263750   6.679   1.381   5.084  0.4452 -0.0933  0.1376
14112TIP3    H163751   6.654   1.288   5.080  0.8118 -0.1584 -0.8755
14112TIP3    H263752   6.710   1.401   4.996  2.3961  0.4116  0.8764
14113TIP3   OH263753   5.677   4.606   2.003 -0.7466 -0.2872  0.4233
14113TIP3    H163754   5.664   4.565   2.088 -1.2226 -0.4613  0.2691
14113TIP3    H263755   5.772   4.620   1.998 -0.5984 -1.1295  0.5902
14114TIP3   OH263756   5.083   0.297  13.742  0.0007 -0.3480 -0.3055
14114TIP3    H163757   5.171   0.262  13.750 -0.0358 -1.2275 -2.8940
14114TIP3    H263758   5.042   0.280  13.827  2.1285 -0.3793  0.7637
14115TIP3   OH263759   3.336   5.923  13.085  0.2851 -0.2550  0.0642
14115TIP3    H163760   3.312   5.857  13.020  0.6801 -1.8921  1.5221
14115TIP3    H263761   3.276   5.910  13.157 -1.4102  2.7964 -0.6143
14116TIP3   OH263762   1.046   0.369  12.242 -0.0714  0.7715 -0.6260
14116TIP3    H163763   1.044   0.289  12.294  1.1083  0.5591 -0.8808
14116TIP3    H263764   0.971   0.361  12.183 -0.2310  0.0633 -0.3383
14117TIP3   OH263765   4.287   4.229   4.484  0.0610  0.0264  0.0736
14117TIP3    H163766   4.374   4.202   4.514  0.6969  0.2177 -1.4736
14117TIP3    H263767   4.303   4.311   4.437 -0.7530 -0.5708 -1.3021
14118TIP3   OH263768   1.821   2.127  12.449  0.3465 -0.0879 -0.0524
14118TIP3    H163769   1.758   2.063  12.417  1.9324 -1.6474 -0.1733
14118TIP3    H263770   1.784   2.157  12.532  0.1500 -2.1283  0.6490
14119TIP3   OH263771   4.403   3.187   0.342 -0.0475 -0.6571 -0.0867
14119TIP3    H163772   4.493   3.198   0.373 -0.0508 -0.5339 -0.1172
14119TIP3    H263773   4.391   3.258   0.279 -0.5601  0.0899  0.8175
14120TIP3   OH263774   6.178   3.836  14.295  0.4270  0.1064  0.1085
14120TIP3    H163775   6.134   3.902  14.241  1.1654 -0.9141 -1.8398
14120TIP3    H263776   6.161   3.753  14.250 -0.5919 -1.0943  2.5640
14121TIP3   OH263777   1.282   0.126  16.336 -0.0500  0.6996 -0.1945
14121TIP3    H163778   1.350   0.161  16.279 -0.9185  0.8856 -1.1507
14121TIP3    H263779   1.263   0.039  16.300  1.2502 -0.3113  1.4364
14122TIP3   OH263780   3.566   3.604  12.557 -0.4884 -0.1577  0.4287
14122TIP3    H163781   3.616   3.684  12.541 -0.4443 -0.7231 -2.9863
14122TIP3    H263782   3.625   3.533  12.532 -1.9392 -0.9824 -0.8482
14123TIP3   OH263783   4.714   6.160  11.371 -0.2002  0.2221 -0.6367
14123TIP3    H163784   4.740   6.243  11.331  0.2541  1.4019  1.8821
14123TIP3    H263785   4.640   6.129  11.319  0.0592  1.8532 -2.0406
14124TIP3   OH263786   3.570   2.296   4.434  0.4269  0.0867 -0.1736
14124TIP3    H163787   3.567   2.389   4.455 -0.0628 -0.0553  0.4355
14124TIP3    H263788   3.599   2.254   4.515  2.1188 -0.1722 -0.8821
14125TIP3   OH263789   3.294   6.063   4.246 -0.0840  0.1062  0.2253
14125TIP3    H163790   3.316   6.133   4.307 -2.0965  0.1456  0.9736
14125TIP3    H263791   3.379   6.033   4.213  0.8823  2.1005  0.7472
14126TIP3   OH263792   5.646   1.422   0.561  0.4597  0.4266  0.4659
14126TIP3    H163793   5.728   1.411   0.512  0.2793 -0.2096  0.3000
14126TIP3    H263794   5.634   1.339   0.606 -0.4248  0.2776 -0.0126
14127TIP3   OH263795   4.914   2.434   4.484  0.0953  0.4246 -0.3470
14127TIP3    H163796   4.824   2.411   4.459 -0.2508  0.7047  0.5867
14127TIP3    H263797   4.903   2.504   4.548  1.0073  0.8089 -0.6080
14128TIP3   OH263798   5.049   1.223   2.098 -0.6842  0.0316 -0.8026
14128TIP3    H163799   5.109   1.283   2.143 -0.8679 -0.0006 -0.5095
14128TIP3    H263800   5.095   1.139   2.097 -1.2346 -0.3128  0.5584
14129TIP3   OH263801   5.179   4.732   2.662 -0.0480  0.2711  0.0169
14129TIP3    H163802   5.170   4.697   2.574  2.3983  1.2870 -0.7354
14129TIP3    H263803   5.208   4.823   2.648  0.4599  0.4264  1.8629
14130TIP3   OH263804   6.532   4.103   2.468 -0.0078 -0.1221  0.0067
14130TIP3    H163805   6.479   4.182   2.481  0.0048  0.0730 -1.0494
14130TIP3    H263806   6.500   4.066   2.386  0.2414 -1.0212  0.3072
14131TIP3   OH263807   2.945   5.021  15.561 -0.0872  1.1421  0.0209
14131TIP3    H163808   2.958   4.938  15.516 -3.8585  0.0161  0.6587
14131TIP3    H263809   2.972   5.004  15.652  0.5676  1.1239 -0.1718
14132TIP3   OH263810   1.764   2.482  17.135 -0.4142  0.6561 -0.5708
14132TIP3    H163811   1.706   2.409  17.158 -0.5660  0.6880 -0.8488
14132TIP3    H263812   1.706   2.551  17.105 -0.2331  0.6722 -0.8952
14133TIP3   OH263813   4.031   4.943   3.233 -0.2145 -0.2238  0.8002
14133TIP3    H163814   4.087   5.017   3.210  1.2555 -1.7322 -0.7945
14133TIP3    H263815   4.092   4.874   3.260 -1.5051 -1.0384  1.7716
14134TIP3   OH263816   5.716   3.248   4.323 -0.7034 -0.4512  0.2634
14134TIP3    H163817   5.643   3.265   4.382 -1.4105 -1.5570 -0.2535
14134TIP3    H263818   5.692   3.294   4.242 -0.0912  0.4384  0.5705
14135TIP3   OH263819   0.958   1.121  12.104 -0.1174  0.3659 -0.5074
14135TIP3    H163820   0.926   1.143  12.017 -2.1051 -0.1251  0.0368
14135TIP3    H263821   0.964   1.025  12.103  0.9753  0.4257 -0.4531
14136TIP3   OH263822   5.406   1.399   3.531  0.0629  0.2667 -0.4241
14136TIP3    H163823   5.458   1.333   3.576  0.0051  0.0382 -0.6944
14136TIP3    H263824   5.396   1.469   3.596  2.3519  1.2056 -0.9676
14137TIP3   OH263825   0.034   3.149   0.704 -0.3593 -0.0246 -0.2922
14137TIP3    H163826   0.022   3.204   0.627  0.6735 -1.2292 -1.3676
14137TIP3    H263827   0.077   3.205   0.767  0.0794  0.5897 -1.1223
14138TIP3   OH263828   4.303   4.181  15.994  0.2264  0.0142  0.4051
14138TIP3    H163829   4.312   4.244  16.066 -1.3964  0.1306  0.5377
14138TIP3    H263830   4.219   4.201  15.954  0.0026 -1.5899 -0.0213
14139TIP3   OH263831   5.823   1.057   0.795 -0.1023 -0.0337 -0.1620
14139TIP3    H163832   5.810   1.140   0.841  1.5179 -0.4558  1.1498
14139TIP3    H263833   5.801   0.990   0.860 -0.3518 -0.6332 -0.8613
14140TIP3   OH263834   6.665   2.396   0.443  0.3218 -0.0778  0.0728
14140TIP3    H163835   6.621   2.402   0.528  3.2067  0.4404  1.6528
14140TIP3    H263836   6.684   2.303   0.433 -0.3814 -0.1982 -0.2585
14141TIP3   OH263837   4.329   0.722  14.553  0.2830 -0.4075 -0.0923
14141TIP3    H163838   4.318   0.776  14.474  1.3430  1.5571  1.0277
14141TIP3    H263839   4.273   0.646  14.538 -1.5271  1.1267 -1.6581
14142TIP3   OH263840   3.012   0.594  12.160 -0.0578 -0.1256  0.0343
14142TIP3    H163841   3.016   0.668  12.221  0.2207  0.1271 -0.2880
14142TIP3    H263842   3.060   0.624  12.083 -1.7127  0.1633 -0.9388
14143TIP3   OH263843   6.560   4.966   3.013 -0.1124 -0.0839 -0.1948
14143TIP3    H163844   6.632   4.932   2.961 -0.1732  1.2921 -1.2333
14143TIP3    H263845   6.537   5.050   2.972 -0.4661  0.8598  1.7732
14144TIP3   OH263846   1.623   2.719  15.312 -1.0038  0.3597 -0.3620
14144TIP3    H163847   1.605   2.673  15.231  2.0684 -0.5148 -0.6927
14144TIP3    H263848   1.714   2.749  15.303 -1.2479  2.0749  1.9131
14145TIP3   OH263849   2.316   1.446   2.884  0.1549  0.7828 -0.0260
14145TIP3    H163850   2.325   1.424   2.791  1.0835  0.9432  0.0149
14145TIP3    H263851   2.400   1.423   2.922 -0.1700  0.8645  0.7519
14146TIP3   OH263852   2.400   3.261  11.101 -0.2229 -1.0442  0.3934
14146TIP3    H163853   2.470   3.252  11.165 -0.0262 -0.8144  0.2149
14146TIP3    H263854   2.423   3.200  11.031  0.5200 -0.0289 -0.2922
14147TIP3   OH263855   3.870   2.028  16.139 -0.5584 -0.0515 -0.7455
14147TIP3    H163856   3.852   2.091  16.209 -3.5110 -0.0574 -1.3752
14147TIP3    H263857   3.865   1.943  16.183 -1.3762 -0.0163 -0.7598
14148TIP3   OH263858   4.611   0.440   5.077  0.1777 -0.2772  0.0464
14148TIP3    H163859   4.606   0.406   5.167  2.0097 -0.5606  0.0677
14148TIP3    H263860   4.582   0.367   5.022  1.4620 -0.9772  0.2686
14149TIP3   OH263861   1.122   1.476   0.208  0.5510  0.1751 -0.0629
14149TIP3    H163862   1.215   1.496   0.214  0.0817  2.2967  1.4035
14149TIP3    H263863   1.108   1.447   0.118  2.5443  0.2654 -0.4275
14150TIP3   OH263864   6.657   5.698   0.278  0.6470 -0.1498  0.4386
14150TIP3    H163865   6.708   5.724   0.201 -0.0939  0.2341  0.0675
14150TIP3    H263866   6.644   5.603   0.268 -0.1554  0.0382 -0.3442
14151TIP3   OH263867   2.437   3.878  16.628 -0.3638  0.2868 -0.6443
14151TIP3    H163868   2.361   3.820  16.624 -0.5642  0.5828 -1.5328
14151TIP3    H263869   2.411   3.954  16.575 -0.1682  1.2527  0.6175
14152TIP3   OH263870   4.814   6.128  15.896 -0.2518 -0.3079 -0.4680
14152TIP3    H163871   4.806   6.034  15.913  3.3938 -0.6071  0.3360
14152TIP3    H263872   4.807   6.169  15.982 -2.5293  0.3376 -0.8831
14153TIP3   OH263873   1.380   6.533  13.329 -0.2576 -0.4128 -0.6270
14153TIP3    H163874   1.371   6.544  13.423  0.3312  0.4068 -0.6612
14153TIP3    H263875   1.404   6.441  13.318 -1.0152 -0.6918 -0.0386
14154TIP3   OH263876   0.808   2.821   4.281  0.6816 -0.3082  0.3144
14154TIP3    H163877   0.732   2.772   4.311  0.4316  0.4006  0.8679
14154TIP3    H263878   0.809   2.900   4.336  0.8355  0.5097 -0.8195
14155TIP3   OH263879   1.117   2.324   4.469 -0.2169 -0.2166 -0.0775
14155TIP3    H163880   1.111   2.346   4.562  0.9097 -0.4316  0.0651
14155TIP3    H263881   1.162   2.399   4.430  0.3061 -0.6174 -0.2503
14156TIP3   OH263882   5.236   3.240  10.968 -0.2826  0.1338 -0.0136
14156TIP3    H163883   5.229   3.149  10.939 -0.1867  0.1602 -0.1185
14156TIP3    H263884   5.266   3.288  10.891  0.1248  0.1781  0.1690
14157TIP3   OH263885   3.181   4.485  16.071 -0.3905 -0.5818  0.0908
14157TIP3    H163886   3.154   4.393  16.073  1.5057 -1.2416 -1.1925
14157TIP3    H263887   3.157   4.515  15.983 -0.1014 -0.1565  0.1547
14158TIP3   OH263888   0.262   6.448  14.417  0.5592  0.4212 -0.0899
14158TIP3    H163889   0.217   6.370  14.448  2.1509  0.1153  1.6486
14158TIP3    H263890   0.269   6.436  14.322 -0.3866 -0.8968 -0.0185
14159TIP3   OH263891   0.152   2.928   5.647  0.0662  0.5943  0.4606
14159TIP3    H163892   0.154   2.887   5.733  0.6502  0.1905  0.2583
14159TIP3    H263893   0.235   2.973   5.640  0.5392 -0.3737 -0.3679
14160TIP3   OH263894   1.804   0.789   0.032 -0.0964  0.1167 -0.2609
14160TIP3    H163895   1.847   0.794  -0.054  1.8134  0.2674  0.6619
14160TIP3    H263896   1.715   0.757   0.012  1.4541 -3.8489 -1.9844
14161TIP3   OH263897   2.646   5.215   1.098 -0.3447 -0.2938 -0.0536
14161TIP3    H163898   2.702   5.137   1.106 -0.8387 -0.5114  1.4507
14161TIP3    H263899   2.608   5.227   1.184 -2.1266  0.2459 -0.8690
14162TIP3   OH263900   3.643   6.470   5.170 -0.0971  0.6400 -0.0166
14162TIP3    H163901   3.559   6.466   5.215  0.3399 -1.5090  0.7608
14162TIP3    H263902   3.629   6.528   5.096 -1.8940  1.3303  0.8117
14163TIP3   OH263903   1.119   1.631   4.969 -0.2721 -0.2762 -0.1868
14163TIP3    H163904   1.111   1.631   5.064 -0.7405  0.1363 -0.2234
14163TIP3    H263905   1.145   1.720   4.947  0.2311 -0.4740 -0.4202
14164TIP3   OH263906   4.108   2.360  14.691 -0.5616 -0.4102 -0.7117
14164TIP3    H163907   4.203   2.348  14.686 -0.5164 -1.7373  1.7603
14164TIP3    H263908   4.095   2.455  14.692  1.0478 -0.1213  1.9316
14165TIP3   OH263909   3.730   3.140   3.172  0.6880 -0.0397 -0.1985
14165TIP3    H163910   3.741   3.104   3.084 -0.2417  0.9116 -0.7243
14165TIP3    H263911   3.815   3.176   3.195  0.5528  1.0677 -1.3411
14166TIP3   OH263912   1.034   4.627  12.964  0.5050 -0.0877  0.1334
14166TIP3    H163913   0.959   4.656  12.913  0.5307 -2.3058 -1.3067
14166TIP3    H263914   1.064   4.705  13.010 -1.8267  1.1480 -0.3271
14167TIP3   OH263915   1.700   1.951   4.864  0.1055  0.6522  0.5161
14167TIP3    H163916   1.657   1.989   4.941  0.8917  0.3984  1.0903
14167TIP3    H263917   1.627   1.923   4.808 -0.4896  0.2473  1.4617
14168TIP3   OH263918   2.760   0.720  11.708  0.3578 -0.3049  0.9414
14168TIP3    H163919   2.802   0.734  11.623 -0.5402 -0.4564  0.4587
14168TIP3    H263920   2.710   0.800  11.724  3.8078  1.6199  3.3838
14169TIP3   OH263921   2.535   2.145  12.605  0.2990 -0.0909  0.0460
14169TIP3    H163922   2.500   2.199  12.534 -0.1290 -0.3735  0.0411
14169TIP3    H263923   2.615   2.107  12.569  0.2996  0.0880 -0.1466
14170TIP3   OH263924   1.344   3.935  14.782 -0.0808 -0.2991  0.2613
14170TIP3    H163925   1.307   4.023  14.786  1.6309  0.5734 -1.4637
14170TIP3    H263926   1.384   3.929  14.695  0.4245 -2.5605  0.5721
14171TIP3   OH263927   5.758   3.278   5.956 -0.1305 -1.0005  0.0074
14171TIP3    H163928   5.720   3.195   5.983  1.2429 -1.1360  1.6929
14171TIP3    H263929   5.843   3.281   6.000  0.8677  0.2630 -1.8542
14172TIP3   OH263930   6.620   3.882  15.138  0.0755 -0.6464 -0.0097
14172TIP3    H163931   6.623   3.958  15.078 -1.3691  0.3844  1.1660
14172TIP3    H263932   6.707   3.881  15.178  0.1091  0.4446 -0.0088
14173TIP3   OH263933   3.425   0.228   2.272 -0.6108  0.0641  0.0656
14173TIP3    H163934   3.468   0.237   2.357 -0.6340  1.7557 -0.0685
14173TIP3    H263935   3.430   0.135   2.252  0.8700 -0.1136  1.1446
14174TIP3   OH263936   2.952   5.973   5.155 -0.3218  0.8590  0.2164
14174TIP3    H163937   2.956   5.885   5.117  0.3707  1.5014 -1.2630
14174TIP3    H263938   3.020   5.973   5.222  1.0180  0.8399 -1.0953
14175TIP3   OH263939   4.046   4.111   0.779  0.4131 -0.0615 -0.0402
14175TIP3    H163940   4.134   4.115   0.815  0.1344  0.7203  0.5928
14175TIP3    H263941   4.037   4.021   0.746  0.7143 -0.8172  1.7951
14176TIP3   OH263942   5.241   4.459   1.310 -0.3894 -0.7005 -0.0710
14176TIP3    H163943   5.253   4.545   1.269 -1.2852 -0.0421  0.9967
14176TIP3    H263944   5.325   4.415   1.298 -0.5162 -0.4387 -2.3230
14177TIP3   OH263945   2.752   4.680   5.816  0.4877 -0.3367  0.1921
14177TIP3    H163946   2.816   4.691   5.746 -1.3158  1.1065 -1.3529
14177TIP3    H263947   2.723   4.589   5.809 -0.5503  0.0778 -1.8511
14178TIP3   OH263948   1.146   3.808  12.322 -0.0884  0.1370 -0.2247
14178TIP3    H163949   1.134   3.818  12.227  0.0207 -3.2279 -0.6925
14178TIP3    H263950   1.169   3.716  12.334 -0.6044  0.3341  3.1477
14179TIP3   OH263951   4.817   1.545  15.444  0.4262  0.9501 -0.0893
14179TIP3    H163952   4.895   1.518  15.494  0.5588  1.5568  0.0334
14179TIP3    H263953   4.809   1.478  15.376  1.4507  1.2375 -0.5186
14180TIP3   OH263954   3.664   0.925   4.199  0.2935  0.1734 -0.6797
14180TIP3    H163955   3.622   1.008   4.178 -0.3193  0.3194  0.9405
14180TIP3    H263956   3.630   0.863   4.134 -2.8640  0.1692  0.7811
14181TIP3   OH263957   0.679   3.804   2.409 -0.3503  0.4108  0.6656
14181TIP3    H163958   0.746   3.748   2.368 -0.0901  1.9352 -1.1341
14181TIP3    H263959   0.639   3.748   2.476  0.6747 -1.5370 -0.2560
14182TIP3   OH263960   2.843   0.678  15.385 -0.7553  0.5955 -0.1100
14182TIP3    H163961   2.800   0.758  15.355 -0.2995  1.0837  0.4872
14182TIP3    H263962   2.928   0.708  15.418 -0.3127 -0.2289 -0.4689
14183TIP3   OH263963   5.668   6.005  12.880  0.1857  0.2675 -0.1831
14183TIP3    H163964   5.677   6.010  12.784 -0.3010 -0.8917 -0.3140
14183TIP3    H263965   5.755   5.982  12.911  0.0159 -0.9213 -0.5137
14184TIP3   OH263966   3.647   0.926   5.605  0.0960  0.0585  0.2151
14184TIP3    H163967   3.552   0.934   5.594  0.2035 -0.1972 -1.0212
14184TIP3    H263968   3.665   0.972   5.687 -1.2907 -1.2699  1.3224
14185TIP3   OH263969   3.774   1.178  14.998 -0.0391 -0.9252 -0.0339
14185TIP3    H163970   3.710   1.127  15.047  1.2607 -2.2101  0.3881
14185TIP3    H263971   3.819   1.230  15.064 -0.7446  0.1375 -0.3569
14186TIP3   OH263972   6.002   5.535  15.549  0.1299  0.3215  0.1687
14186TIP3    H163973   5.914   5.528  15.585  0.8566 -0.4186  1.9128
14186TIP3    H263974   6.018   5.630  15.544 -0.7512  0.4661 -0.2302
14187TIP3   OH263975   6.185   2.146  15.281  0.2251  0.1707  0.0336
14187TIP3    H163976   6.229   2.102  15.353  2.0844  0.5793 -0.7981
14187TIP3    H263977   6.095   2.113  15.284  0.9343 -1.8416  0.8926
14188TIP3   OH263978   3.296   4.667   1.958  0.5112 -0.4539  0.3233
14188TIP3    H163979   3.363   4.716   2.005  0.4712  0.1294 -0.2100
14188TIP3    H263980   3.308   4.577   1.987  1.7347 -0.4168  0.0091
14189TIP3   OH263981   0.496   0.831  15.848  0.0787 -0.0046 -0.4215
14189TIP3    H163982   0.550   0.860  15.921 -0.3835 -0.8797  0.2898
14189TIP3    H263983   0.492   0.735  15.858 -0.9023 -0.0306 -0.9517
14190TIP3   OH263984   2.640   6.084  17.125 -0.5423 -0.1784 -0.1432
14190TIP3    H163985   2.665   6.059  17.037  0.2817  0.2071 -0.0286
14190TIP3    H263986   2.571   6.023  17.149  0.3635 -1.3575 -0.4313
14191TIP3   OH263987   2.786   3.169   5.522 -0.0159  0.2780  0.0962
14191TIP3    H163988   2.813   3.082   5.552  0.5421  0.9708  1.7510
14191TIP3    H263989   2.775   3.220   5.603 -1.7020  1.3729 -0.7602
14192TIP3   OH263990   2.702   6.503   4.328  0.1606 -0.5339  0.0467
14192TIP3    H163991   2.744   6.569   4.383 -0.4673  1.5915 -1.8421
14192TIP3    H263992   2.610   6.528   4.326  0.0798 -0.8282 -1.4967
14193TIP3   OH263993   3.552   5.038  15.191  0.0047  0.3346  0.5577
14193TIP3    H163994   3.492   4.998  15.253  0.4334  1.0887  1.4922
14193TIP3    H263995   3.633   4.988  15.200 -0.4392 -0.6629 -0.6806
14194TIP3   OH263996   0.579   5.037  11.788  0.0434 -0.1677  0.1522
14194TIP3    H163997   0.659   5.025  11.736 -1.0912 -1.4599 -1.3664
14194TIP3    H263998   0.572   5.132  11.798  1.2640  0.0202 -0.4787
14195TIP3   OH263999   6.506   0.402  13.229 -0.0470  0.2582  0.3918
14195TIP3    H164000   6.487   0.327  13.286 -1.9120 -0.3746 -0.9613
14195TIP3    H264001   6.587   0.379  13.185  0.6320  0.0968  1.6676
14196TIP3   OH264002   4.516   5.848  15.697  0.3059  0.5138  0.1830
14196TIP3    H164003   4.466   5.872  15.774 -1.7445  1.4157 -1.3344
14196TIP3    H264004   4.503   5.921  15.636  1.7397 -0.2196 -1.0621
14197TIP3   OH264005   0.860   1.590   2.091  0.0583  0.1513 -0.7283
14197TIP3    H164006   0.814   1.508   2.110  0.1641  0.1221 -0.5879
14197TIP3    H264007   0.900   1.614   2.175  0.2457  0.2067 -0.8330
14198TIP3   OH264008   2.221   3.716  16.553  0.3265  0.0960 -0.0548
14198TIP3    H164009   2.205   3.677  16.467 -0.5229  1.2936 -0.4593
14198TIP3    H264010   2.134   3.737  16.587  0.5933 -1.0657  1.4711
14199TIP3   OH264011   3.022   4.952  13.691 -0.7759 -0.0832 -0.2197
14199TIP3    H164012   2.967   4.881  13.724 -0.5584 -0.3185 -0.3607
14199TIP3    H264013   2.960   5.016  13.657 -1.0375  0.5286  1.3419
14200TIP3   OH264014   1.868   0.323  10.521 -0.0704 -0.5853  0.2248
14200TIP3    H164015   1.871   0.417  10.536  1.0217 -0.1780 -2.0734
14200TIP3    H264016   1.954   0.291  10.548 -0.0335 -0.7168 -0.0408
14201TIP3   OH264017   5.596   0.687  17.318  0.4890  0.0842 -0.1998
14201TIP3    H164018   5.541   0.721  17.248  0.1403  4.0141  1.7232
14201TIP3    H264019   5.685   0.691  17.283  0.1442 -0.1221 -1.1296
14202TIP3   OH264020   4.283   2.137  15.418  0.0021  0.1848 -0.1355
14202TIP3    H164021   4.228   2.137  15.340 -0.8959 -2.0871  0.4222
14202TIP3    H264022   4.372   2.148  15.385 -0.4142 -0.1697 -1.4296
14203TIP3   OH264023   3.275   1.635   5.019  0.0853 -0.2681  0.3727
14203TIP3    H164024   3.289   1.698   4.948 -0.4777  0.5958  0.9989
14203TIP3    H264025   3.363   1.606   5.043  0.2806 -0.5645 -0.6548
14204TIP3   OH264026   5.820   3.304  10.876 -0.1340 -0.5526 -1.1959
14204TIP3    H164027   5.845   3.212  10.876 -1.2895 -0.9697  1.6007
14204TIP3    H264028   5.899   3.352  10.900 -0.2681 -1.2076  0.7420
14205TIP3   OH264029   0.093   0.223  17.056 -0.3800 -0.1100  0.2394
14205TIP3    H164030  -0.001   0.232  17.075 -0.5939 -0.0997 -0.7311
14205TIP3    H264031   0.135   0.292  17.107 -0.9285  0.0471  0.4912
14206TIP3   OH264032   0.264   6.396   0.147  0.8036 -0.7054  0.3343
14206TIP3    H164033   0.317   6.340   0.091 -0.5580  0.0705 -1.8469
14206TIP3    H264034   0.309   6.480   0.148  0.5468 -0.5609 -0.0619
14207TIP3   OH264035   6.655   1.368   3.549 -0.2963 -0.2381  0.4829
14207TIP3    H164036   6.616   1.408   3.471 -2.4276  0.6029  1.8874
14207TIP3    H264037   6.677   1.442   3.605  1.9584 -0.7945  0.4048
14208TIP3   OH264038   3.351   3.965   3.415  0.1830  0.2579 -0.6215
14208TIP3    H164039   3.373   4.049   3.458 -1.6517  0.4632 -0.0154
14208TIP3    H264040   3.348   3.902   3.487 -4.2248  0.8442 -0.0199
14209TIP3   OH264041   3.393   3.710   6.272 -0.1994  0.1485 -0.5840
14209TIP3    H164042   3.457   3.653   6.230  2.0952  1.5631  0.7855
14209TIP3    H264043   3.332   3.650   6.315  1.6455 -1.3111  0.1277
14210TIP3   OH264044   3.398   5.442   1.766  0.0189  0.0639 -0.3293
14210TIP3    H164045   3.464   5.512   1.768  0.6616 -0.4947 -1.2958
14210TIP3    H264046   3.433   5.379   1.703 -1.6431 -0.0424 -1.1861
14211TIP3   OH264047   6.134   6.477  15.662 -0.0281  0.2277  0.2194
14211TIP3    H164048   6.197   6.529  15.712 -1.0882  2.5107 -0.6549
14211TIP3    H264049   6.051   6.489  15.707 -0.5892  0.5857 -0.8638
14212TIP3   OH264050   0.959   5.609   1.355 -0.3451  1.0568  0.0940
14212TIP3    H164051   0.973   5.515   1.351  0.9686  1.2833 -1.4666
14212TIP3    H264052   0.939   5.626   1.447 -0.1242 -0.6711  0.4934
14213TIP3   OH264053   3.218   1.202   2.305 -0.3204  0.0496  0.0778
14213TIP3    H164054   3.220   1.212   2.400 -1.4029  0.5378  0.0598
14213TIP3    H264055   3.310   1.190   2.281 -0.1299 -1.2017  1.2838
14214TIP3   OH264056   2.860   0.106  13.268 -0.0894  0.0606  0.3102
14214TIP3    H164057   2.846   0.017  13.237  1.9121 -0.1959  0.0697
14214TIP3    H264058   2.939   0.102  13.321 -0.1439  1.6442  0.5705
14215TIP3   OH264059   3.446   3.630  10.225 -0.5031 -0.3634  0.2155
14215TIP3    H164060   3.523   3.574  10.219 -0.9306 -1.0159  0.6621
14215TIP3    H264061   3.374   3.575  10.194 -1.0897 -0.4113  1.5879
14216TIP3   OH264062   1.366   2.911  16.531  0.0626  1.0276 -0.2880
14216TIP3    H164063   1.414   2.847  16.583 -0.2152  0.8351 -0.2667
14216TIP3    H264064   1.391   2.893  16.441  0.0661  0.9554 -0.2728
14217TIP3   OH264065   5.809   0.910   4.494 -0.6800  0.2477  0.0486
14217TIP3    H164066   5.832   0.972   4.564 -1.2181 -0.6573  1.0457
14217TIP3    H264067   5.733   0.949   4.451  0.3687  1.4029 -0.8477
14218TIP3   OH264068   4.926   1.795  17.363 -0.0728  0.3998 -0.1846
14218TIP3    H164069   4.833   1.791  17.385  0.2205 -0.5220  0.9580
14218TIP3    H264070   4.929   1.793  17.267 -1.2440  1.1125 -0.2491
14219TIP3   OH264071   0.409   1.708   1.468  0.4480 -0.6596 -0.1895
14219TIP3    H164072   0.406   1.801   1.488  1.2283 -0.3983 -1.2038
14219TIP3    H264073   0.387   1.702   1.375  2.1101 -1.2893 -0.5888
14220TIP3   OH264074   2.153   0.323   6.168 -0.3051 -0.0648  0.2111
14220TIP3    H164075   2.228   0.299   6.222  1.2462 -0.9289 -2.1794
14220TIP3    H264076   2.144   0.418   6.179  1.4277  0.1212  0.2170
14221TIP3   OH264077   2.271   2.302  13.515  0.1576 -0.0308  0.0916
14221TIP3    H164078   2.339   2.235  13.524  0.6077  0.4060 -0.0594
14221TIP3    H264079   2.189   2.253  13.525  0.4915 -0.5374  0.4262
14222TIP3   OH264080   2.546   0.468  13.249  0.3523 -0.3187 -0.0743
14222TIP3    H164081   2.635   0.469  13.284  0.5804 -0.6203 -0.6456
14222TIP3    H264082   2.529   0.376  13.228 -0.9722 -0.7011  2.2463
14223TIP3   OH264083   2.941   2.476  16.790 -0.3925 -0.2893  0.1983
14223TIP3    H164084   2.854   2.446  16.817 -1.6570  1.7784 -1.3066
14223TIP3    H264085   2.950   2.444  16.700  0.0578  0.1712  0.0782
14224TIP3   OH264086   4.319   6.482  15.945 -0.0107  0.5241  0.3014
14224TIP3    H164087   4.334   6.393  15.976  0.1523  0.8965  1.3396
14224TIP3    H264088   4.309   6.473  15.850  0.7937 -0.4907  0.2926
14225TIP3   OH264089   6.450   4.531   0.709 -0.3209 -0.4452 -0.1741
14225TIP3    H164090   6.477   4.455   0.761 -0.7107 -0.7455 -0.4012
14225TIP3    H264091   6.501   4.603   0.744 -0.4676 -0.6736  0.5354
14226TIP3   OH264092   3.481   1.564   1.689 -0.0803  0.0197 -0.3030
14226TIP3    H164093   3.542   1.625   1.647  0.4953 -1.1228 -1.1584
14226TIP3    H264094   3.516   1.553   1.778 -0.4518  1.2614  0.0292
14227TIP3   OH264095   1.535   3.007  10.781  0.7439 -0.2979  0.4096
14227TIP3    H164096   1.504   3.009  10.690 -0.9478 -2.9177  0.8372
14227TIP3    H264097   1.629   2.990  10.773  0.4659 -1.3748 -0.8688
14228TIP3   OH264098   0.331   2.756  14.753 -0.0380 -0.4641 -0.1981
14228TIP3    H164099   0.282   2.675  14.767 -0.6012  0.1179  1.2467
14228TIP3    H264100   0.410   2.745  14.806  0.8993 -0.9027 -1.6096
14229TIP3   OH264101   0.712   2.072   0.850 -0.5082 -0.3826  0.0068
14229TIP3    H164102   0.625   2.039   0.827 -0.4026  0.0991 -1.1472
14229TIP3    H264103   0.700   2.166   0.861  0.1556 -0.0153 -1.9042
14230TIP3   OH264104   3.622   6.743   0.223 -0.5626 -0.1575  0.1451
14230TIP3    H164105   3.697   6.789   0.261 -0.6674 -0.6342  0.9513
14230TIP3    H264106   3.661   6.669   0.177 -0.4390  0.3913 -0.6455
14231TIP3   OH264107   5.120   3.956  12.468 -0.4946 -0.1011 -0.3914
14231TIP3    H164108   5.161   3.878  12.505 -1.0963  0.0223  0.5709
14231TIP3    H264109   5.029   3.951  12.496 -1.0547 -0.1489 -2.1341
14232TIP3   OH264110   4.281   6.677   4.264  0.1669  0.5129 -0.2370
14232TIP3    H164111   4.360   6.627   4.286  0.7541  0.5869 -1.9462
14232TIP3    H264112   4.213   6.611   4.251  0.1752  0.3831  0.3617
14233TIP3   OH264113   2.095   4.422   2.103 -0.0776 -0.4025 -0.3691
14233TIP3    H164114   2.057   4.348   2.152  0.0503 -0.4178 -0.2931
14233TIP3    H264115   2.174   4.386   2.064 -1.1653 -0.9467 -2.1921
14234TIP3   OH264116   3.732   4.987  11.726 -0.2068 -0.2137 -0.2179
14234TIP3    H164117   3.742   4.903  11.771  2.0355  0.1783  0.1068
14234TIP3    H264118   3.770   4.972  11.639 -2.1855 -0.2261 -1.1513
14235TIP3   OH264119   6.285   0.052  11.178 -0.7321  0.1414  0.3356
14235TIP3    H164120   6.294  -0.027  11.124 -1.3775 -0.4483  1.0525
14235TIP3    H264121   6.312   0.124  11.122  4.2317 -0.9252  0.8901
14236TIP3   OH264122   0.594   5.363  10.830  0.3947 -0.2750  0.0181
14236TIP3    H164123   0.612   5.286  10.884 -0.4634 -0.4974 -0.0065
14236TIP3    H264124   0.551   5.329  10.752  1.4897  0.0612 -0.7695
14237TIP3   OH264125   0.188   2.922  12.615  0.1019 -0.0681  0.4957
14237TIP3    H164126   0.126   2.851  12.603 -0.8738  0.7739  0.4587
14237TIP3    H264127   0.134   3.000  12.628  1.1437  0.6841  0.4659
14238TIP3   OH264128   5.527   2.412   5.284  0.4387 -0.6052  0.2792
14238TIP3    H164129   5.543   2.507   5.288 -1.6774 -0.2193  1.6161
14238TIP3    H264130   5.486   2.399   5.198  0.7363 -0.3199  0.0884
14239TIP3   OH264131   0.655   3.194  11.577 -0.1366  0.0189 -0.5007
14239TIP3    H164132   0.581   3.152  11.620  0.5477  0.7707  1.5528
14239TIP3    H264133   0.732   3.157  11.620  0.6125  0.4481 -1.4426
14240TIP3   OH264134   3.139   4.896   5.226 -0.2130 -0.0613 -0.4167
14240TIP3    H164135   3.131   4.915   5.133 -2.4443 -0.1091 -0.2806
14240TIP3    H264136   3.087   4.963   5.269  0.5078 -0.2470  0.7900
14241TIP3   OH264137   6.572   6.250   5.004  0.1074  0.7193  0.1436
14241TIP3    H164138   6.582   6.175   5.063 -0.0488  0.0086 -0.7147
14241TIP3    H264139   6.478   6.254   4.985  0.3221  0.0781 -1.1404
14242TIP3   OH264140   0.194   4.417   0.559  0.0288 -0.0360 -0.1610
14242TIP3    H164141   0.100   4.407   0.576  0.2253 -1.3827  0.2934
14242TIP3    H264142   0.205   4.387   0.468  0.2728 -1.8345  0.4238
14243TIP3   OH264143   5.521   3.837  15.607  0.3662  0.3432  1.0511
14243TIP3    H164144   5.489   3.765  15.662  0.7746  0.8425  1.9548
14243TIP3    H264145   5.612   3.814  15.588  1.3031  1.7467  3.3753
14244TIP3   OH264146   3.599   1.666  17.259  0.3758 -0.4232  0.2568
14244TIP3    H164147   3.512   1.629  17.244 -0.1575  0.5823  0.7197
14244TIP3    H264148   3.649   1.642  17.182 -0.4776 -0.5658 -0.2654
14245TIP3   OH264149   3.956   1.928   3.167  0.0468  0.2573  0.1990
14245TIP3    H164150   3.998   1.914   3.252  1.3513  1.0454 -0.2846
14245TIP3    H264151   4.025   1.965   3.112 -0.4914 -1.0865 -1.4890
14246TIP3   OH264152   1.582   6.422  14.758  0.7301  0.0616  0.0039
14246TIP3    H164153   1.610   6.419  14.667 -1.9974 -0.0375 -0.9249
14246TIP3    H264154   1.641   6.362  14.804  1.1605 -1.1376 -2.0089
14247TIP3   OH264155   2.516   2.928  14.181 -0.0864 -0.0397 -0.0173
14247TIP3    H164156   2.593   2.928  14.124 -1.2535  1.8063 -1.7412
14247TIP3    H264157   2.502   2.836  14.203  2.5631 -0.4309  0.3635
14248TIP3   OH264158   1.904   2.866   1.651  0.0364 -0.1677  0.2042
14248TIP3    H164159   1.838   2.855   1.583 -1.5143 -2.0135  1.8812
14248TIP3    H264160   1.949   2.782   1.655  2.1266  0.8409 -0.4421
14249TIP3   OH264161   2.194   0.220   6.437 -0.4161  0.2130  0.4429
14249TIP3    H164162   2.280   0.221   6.395 -0.6898  1.8160 -0.1223
14249TIP3    H264163   2.201   0.150   6.503  1.3222  0.3201  0.4212
14250TIP3   OH264164   5.802   0.938   4.123 -0.0066  0.3408  0.0035
14250TIP3    H164165   5.802   0.911   4.031 -0.2229  1.5625 -0.3756
14250TIP3    H264166   5.713   0.970   4.139  0.8588  3.2419 -0.3599
14251TIP3   OH264167   2.116   2.667  13.089  0.3120  0.0400 -0.0647
14251TIP3    H164168   2.034   2.618  13.100  1.4104 -1.4668  2.4191
14251TIP3    H264169   2.100   2.750  13.136 -0.1379  0.2587 -0.5887
14252TIP3   OH264170   5.480   3.684   5.919 -0.3084 -0.0593  0.6679
14252TIP3    H164171   5.477   3.778   5.936 -3.6221 -0.3191  2.0958
14252TIP3    H264172   5.414   3.670   5.851 -0.0382 -1.3943  0.6624
14253TIP3   OH264173   0.831   0.934  14.383 -0.3780  0.0800  0.2133
14253TIP3    H164174   0.890   0.977  14.445  1.3368 -1.1293 -0.5091
14253TIP3    H264175   0.794   0.861  14.433 -1.1970  0.7497  0.6195
14254TIP3   OH264176   2.791   2.280   2.953 -0.4091  0.5508  0.1632
14254TIP3    H164177   2.775   2.283   2.858  1.5504  0.8808 -0.2083
14254TIP3    H264178   2.886   2.286   2.961 -0.0336 -3.8095  1.9328
14255TIP3   OH264179   1.471   5.461  12.332  0.2421  0.0759 -0.2487
14255TIP3    H164180   1.456   5.470  12.238  1.3799 -0.3764 -0.4905
14255TIP3    H264181   1.512   5.375  12.342  0.7719  0.4041  0.5651
14256TIP3   OH264182   1.477   1.026   4.266 -0.8494  0.7294  0.1696
14256TIP3    H164183   1.408   1.076   4.311 -2.3087  1.2583 -2.4271
14256TIP3    H264184   1.555   1.081   4.275 -1.3724  1.3816  1.0129
14257TIP3   OH264185   0.198   4.048  11.314 -0.0840  0.5765 -0.4148
14257TIP3    H164186   0.157   3.998  11.384  1.1560 -1.7539 -1.2369
14257TIP3    H264187   0.256   3.985  11.270  1.5979  2.7630 -1.5411
14258TIP3   OH264188   6.592   6.492   3.068  0.0124  0.6123  0.3963
14258TIP3    H164189   6.547   6.420   3.113 -0.5464  1.0559  0.5558
14258TIP3    H264190   6.537   6.511   2.992 -0.1380  1.2432  0.6631
14259TIP3   OH264191   3.705   4.192   4.930 -0.1730 -0.2264  0.3486
14259TIP3    H164192   3.673   4.276   4.964  2.1876  0.8091  0.1951
14259TIP3    H264193   3.790   4.213   4.891  0.1307 -2.5715 -0.3950
14260TIP3   OH264194   3.039   1.558  16.983  0.1616  0.1307  0.2047
14260TIP3    H164195   3.067   1.522  16.899 -1.6357  0.1130 -0.4313
14260TIP3    H264196   3.081   1.644  16.987  0.7438 -0.1090 -0.4208
14261TIP3   OH264197   4.007   3.301   4.088  0.2748  0.6713  0.2558
14261TIP3    H164198   4.092   3.345   4.081  0.1247  0.8006 -1.2628
14261TIP3    H264199   4.029   3.208   4.093  0.5454  0.5184 -2.1902
14262TIP3   OH264200   2.119   6.351   0.065 -0.0855 -0.0037 -0.0008
14262TIP3    H164201   2.129   6.271   0.014 -0.4090 -0.0315 -0.0233
14262TIP3    H264202   2.108   6.321   0.155 -0.3611  0.0087 -0.0302
14263TIP3   OH264203   3.778   0.843  16.024  0.2757  0.5825  0.7975
14263TIP3    H164204   3.792   0.931  15.988  1.3863 -0.4958 -1.6662
14263TIP3    H264205   3.829   0.786  15.967 -3.1230 -2.0733  0.0480
14264TIP3   OH264206   4.864   5.703  11.632  0.1589  0.2770  0.2092
14264TIP3    H164207   4.917   5.743  11.700  0.2526 -0.1663  0.4044
14264TIP3    H264208   4.919   5.705  11.554  0.5897 -0.4620  0.4858
14265TIP3   OH264209   0.005   2.833  12.938 -0.0291  0.2794 -0.5170
14265TIP3    H164210  -0.080   2.858  12.902  0.0649 -0.3500 -1.2039
14265TIP3    H264211   0.068   2.855  12.869  0.5787  2.2357  0.6078
14266TIP3   OH264212   3.208   5.039  11.301  0.2069  0.3586  0.0797
14266TIP3    H164213   3.186   5.028  11.393 -0.7133  0.4329 -0.1153
14266TIP3    H264214   3.143   4.986  11.255  0.5645  0.4440 -0.5334
14267TIP3   OH264215   2.091   3.912  15.909 -0.1372 -0.6004  0.0489
14267TIP3    H164216   2.064   4.004  15.917  0.2521 -0.5280  0.6536
14267TIP3    H264217   2.077   3.891  15.817 -0.4657 -0.0080 -0.0463
14268TIP3   OH264218   3.869   0.738   4.760 -0.1280  0.3553  0.0559
14268TIP3    H164219   3.876   0.664   4.821  0.2741 -0.6948 -1.2302
14268TIP3    H264220   3.946   0.792   4.778  0.1372 -0.0929  0.2865
14269TIP3   OH264221   1.205   0.203  17.006 -0.2140  0.1153  0.0560
14269TIP3    H164222   1.251   0.267  16.952  1.4778 -0.3978  0.8136
14269TIP3    H264223   1.253   0.121  16.992 -0.5827 -0.3336  1.2722
14270TIP3   OH264224   5.769   1.061  12.979 -0.3659 -0.3356 -0.7046
14270TIP3    H164225   5.838   1.072  12.913 -0.3352 -0.3248 -0.6708
14270TIP3    H264226   5.745   1.150  13.004 -0.0860 -0.3460 -0.4004
14271TIP3   OH264227   2.844   4.089   1.214  0.2283 -0.4155 -0.5925
14271TIP3    H164228   2.834   3.999   1.184  4.1186  0.3117 -5.5199
14271TIP3    H264229   2.787   4.140   1.156 -1.2357  0.5366  1.5289
14272TIP3   OH264230   2.334   1.141  14.374 -0.3823 -0.2622  0.5564
14272TIP3    H164231   2.395   1.073  14.348 -1.0995 -0.0032 -2.0133
14272TIP3    H264232   2.278   1.098  14.440  0.5474 -1.4644  0.5931
14273TIP3   OH264233   5.120   1.141  16.130 -0.6853  0.3301  0.3676
14273TIP3    H164234   5.109   1.210  16.065  0.8065  1.0158  0.8187
14273TIP3    H264235   5.144   1.186  16.210  0.3588 -0.7089  0.6670
14274TIP3   OH264236   0.777   3.881   0.637 -0.2720  0.1014  0.2005
14274TIP3    H164237   0.810   3.800   0.598  0.7382 -0.3990  1.9646
14274TIP3    H264238   0.683   3.879   0.620  0.0246 -0.4172 -1.5507
14275TIP3   OH264239   4.186   6.398   2.684  0.4395 -0.5750 -0.0115
14275TIP3    H164240   4.249   6.444   2.738 -0.0216  0.2870 -0.1960
14275TIP3    H264241   4.191   6.307   2.713  0.4902 -0.1986  1.1800
14276TIP3   OH264242   0.463   3.960  11.124  0.2491  0.2027  0.0385
14276TIP3    H164243   0.438   3.868  11.129 -3.6851  1.1450  2.8595
14276TIP3    H264244   0.391   4.002  11.077 -0.5586  2.3377  2.8647
14277TIP3   OH264245   6.352   1.281  11.725 -0.3683 -0.3774  0.0840
14277TIP3    H164246   6.355   1.271  11.630 -0.4338  0.1191  0.0257
14277TIP3    H264247   6.399   1.205  11.759  2.5286  1.0463 -0.4254
14278TIP3   OH264248   1.052   6.429   0.763  0.3583 -0.0982 -0.1866
14278TIP3    H164249   1.134   6.467   0.732 -0.7147  1.6524 -1.0418
14278TIP3    H264250   1.071   6.401   0.853  1.5699  1.3267  0.0360
14279TIP3   OH264251   1.565   5.644  12.512 -0.1400 -0.5230 -0.5209
14279TIP3    H164252   1.501   5.707  12.480 -1.3066 -2.3947 -2.1167
14279TIP3    H264253   1.571   5.579  12.442  0.2774 -2.6888  1.4207
14280TIP3   OH264254   3.925   5.847  14.238  0.1715 -0.1001  0.0331
14280TIP3    H164255   3.961   5.920  14.188 -0.8505  0.1330 -0.3919
14280TIP3    H264256   3.842   5.827  14.196 -1.2517  0.7934  2.2407
14281TIP3   OH264257   3.554   6.364   4.026 -0.4137 -0.2139  0.0592
14281TIP3    H164258   3.476   6.385   4.077 -1.3625 -1.4032 -0.8515
14281TIP3    H264259   3.544   6.413   3.945 -1.0560 -1.6110 -0.7394
14282TIP3   OH264260   1.390   0.582  13.031  0.0063  0.1737 -0.1890
14282TIP3    H164261   1.372   0.492  13.057  4.3748 -0.4267  1.7257
14282TIP3    H264262   1.381   0.583  12.936 -3.4057 -1.2547 -0.0160
14283TIP3   OH264263   2.684   5.853   1.705 -0.3136 -0.2809  0.0794
14283TIP3    H164264   2.639   5.884   1.783 -2.6769  0.2994 -1.4065
14283TIP3    H264265   2.757   5.801   1.738 -2.1786 -1.4465  2.6955
14284TIP3   OH264266   2.798   4.621   1.517  0.8869 -0.6499  0.2754
14284TIP3    H164267   2.839   4.678   1.582 -2.4470 -0.5164  2.4762
14284TIP3    H264268   2.795   4.535   1.558 -0.2604 -0.8347 -0.1591
14285TIP3   OH264269   6.721   6.382   3.971 -0.1082 -0.1256 -0.0866
14285TIP3    H164270   6.755   6.345   3.889  0.4801  0.5424 -0.1567
14285TIP3    H264271   6.749   6.473   3.969 -1.9189  0.4625 -0.1246
14286TIP3   OH264272   1.526   4.516   0.488 -0.0383 -0.0452  0.1964
14286TIP3    H164273   1.445   4.527   0.537 -0.1284  0.1083  0.0149
14286TIP3    H264274   1.506   4.451   0.421 -0.0637  0.1232  0.0393
14287TIP3   OH264275   0.018   5.323   4.564  0.1354 -0.3712 -0.0150
14287TIP3    H164276   0.002   5.415   4.542 -3.1504 -1.3651 -2.4514
14287TIP3    H264277   0.026   5.323   4.660 -1.4749  2.2498  0.2242
14288TIP3   OH264278   6.629   4.048   0.119  0.8611  0.3451 -0.7875
14288TIP3    H164279   6.709   4.006   0.150 -0.3667  0.2084  2.6690
14288TIP3    H264280   6.565   3.977   0.114 -0.5587  1.1859  2.6016
14289TIP3   OH264281   5.566   4.348  16.821 -0.0452 -0.1530  0.5455
14289TIP3    H164282   5.571   4.253  16.813  1.3976 -0.0260 -0.4307
14289TIP3    H264283   5.632   4.371  16.887  0.3186  0.2393  0.0558
14290TIP3   OH264284   3.915   5.771  15.363 -0.3802 -0.0840  0.0209
14290TIP3    H164285   3.820   5.756  15.359 -0.4515  0.5073 -0.6359
14290TIP3    H264286   3.928   5.825  15.441 -0.4401 -1.1234  0.7767
14291TIP3   OH264287   0.623   5.656  12.832 -0.2660 -0.1680  0.8111
14291TIP3    H164288   0.691   5.596  12.799  0.4169 -1.0637  3.5884
14291TIP3    H264289   0.542   5.605  12.827 -0.4937  0.2802 -0.8410
14292TIP3   OH264290   1.769   3.757  12.800  0.2574  0.0143 -0.2240
14292TIP3    H164291   1.862   3.735  12.805  0.1706 -0.4040 -0.3349
14292TIP3    H264292   1.761   3.810  12.721  0.7272  1.8329  0.9108
14293TIP3   OH264293   3.157   0.617   1.035 -0.3021  0.1711  0.2823
14293TIP3    H164294   3.223   0.682   1.063  0.0035 -0.5113  1.2315
14293TIP3    H264295   3.074   0.663   1.043  0.1017  1.8044 -3.0776
14294TIP3   OH264296   5.905   3.047  10.907  0.4752  0.4080 -0.4244
14294TIP3    H164297   5.970   3.035  10.837  0.6991 -1.3284  0.0412
14294TIP3    H264298   5.957   3.047  10.988  0.3862  3.7284 -0.2109
14295TIP3   OH264299   0.163   4.182   2.981  0.0945 -0.1732  0.4289
14295TIP3    H164300   0.143   4.236   2.905 -1.9135 -0.5098  0.6595
14295TIP3    H264301   0.149   4.092   2.952  1.6060 -0.4915  0.5759
14296TIP3   OH264302   0.246   3.461  17.292 -0.4734  0.2712  0.1228
14296TIP3    H164303   0.281   3.448  17.380 -0.5960 -1.3023 -0.0307
14296TIP3    H264304   0.161   3.503  17.306 -1.5248 -1.9935  0.9287
14297TIP3   OH264305   6.183   3.439   5.096 -0.3059  0.2242 -0.0228
14297TIP3    H164306   6.232   3.357   5.100  0.5035  0.7349  0.9727
14297TIP3    H264307   6.227   3.490   5.028 -0.8593 -0.1978 -0.6971
14298TIP3   OH264308   5.302   0.638  11.319 -0.1333  0.6468  0.3391
14298TIP3    H164309   5.295   0.731  11.343 -1.8389  0.4476  0.7437
14298TIP3    H264310   5.312   0.593  11.402 -0.9738  0.3578  0.2974
14299TIP3   OH264311   5.125   6.622  15.441 -0.3479 -0.0990  0.5547
14299TIP3    H164312   5.168   6.659  15.518 -1.1674  0.9436  0.5312
14299TIP3    H264313   5.105   6.698  15.386 -0.9074 -0.7089 -0.0987
14300TIP3   OH264314   3.036   0.375   4.322  0.3573  0.2551 -0.1149
14300TIP3    H164315   3.114   0.339   4.364 -0.2945  0.5488  1.4391
14300TIP3    H264316   3.068   0.415   4.241  1.8877  0.7282  0.6787
14301TIP3   OH264317   5.045   4.252  11.815  1.0713 -0.8896 -0.3866
14301TIP3    H164318   5.014   4.232  11.903  0.9972  1.1468  0.1079
14301TIP3    H264319   5.138   4.227  11.816  1.6093  0.9629  0.9821
14302TIP3   OH264320   5.468   4.894   0.668 -0.0101 -0.2999 -0.4555
14302TIP3    H164321   5.564   4.885   0.668  0.0833  0.6089  0.1750
14302TIP3    H264322   5.448   4.932   0.583  0.0232 -1.8575 -1.2125
14303TIP3   OH264323   4.710   4.664  15.255  0.0304  0.1537  0.6154
14303TIP3    H164324   4.711   4.758  15.275 -0.5338  0.7268 -1.6335
14303TIP3    H264325   4.651   4.626  15.320 -2.6403  2.0048 -0.5330
14304TIP3   OH264326   0.440   2.473   4.354  0.1862  0.0774 -0.2346
14304TIP3    H164327   0.395   2.390   4.370 -3.1600  1.3761 -1.9195
14304TIP3    H264328   0.524   2.448   4.317 -0.1108 -2.5523  0.6932
14305TIP3   OH264329   1.662   2.435  16.044  0.2580  0.3687 -0.1905
14305TIP3    H164330   1.627   2.410  16.129  1.6641 -0.5677  0.1635
14305TIP3    H264331   1.687   2.352  16.003  1.0382  0.9005 -0.8388
14306TIP3   OH264332   5.497   3.320  12.697  0.1197  0.0362 -0.5627
14306TIP3    H164333   5.572   3.288  12.746  0.0314 -0.2123 -0.5883
14306TIP3    H264334   5.525   3.317  12.605  0.0600 -0.1118 -0.5767
14307TIP3   OH264335   2.125   2.915   1.487  0.4259 -0.0227 -0.2336
14307TIP3    H164336   2.053   2.912   1.550  0.1002 -0.5775 -0.6222
14307TIP3    H264337   2.115   2.834   1.436  1.9585 -0.6451  0.4124
14308TIP3   OH264338   0.204   1.817  14.942 -0.2838 -0.1264 -0.2038
14308TIP3    H164339   0.135   1.798  15.005  0.2964  3.0287  1.5857
14308TIP3    H264340   0.162   1.807  14.856 -1.7847 -2.0897  0.6732
14309TIP3   OH264341   5.933   0.543   4.253 -0.4672  0.0673 -0.1875
14309TIP3    H164342   5.978   0.534   4.336  2.2093 -1.4106 -1.6591
14309TIP3    H264343   5.848   0.581   4.275 -0.6398 -2.0066  3.3925
14310TIP3   OH264344   5.338   2.459   0.677 -0.0403  0.1773  0.0573
14310TIP3    H164345   5.321   2.538   0.627  0.6951 -0.2865 -0.9768
14310TIP3    H264346   5.412   2.417   0.632 -0.0412 -0.8055  0.9105
14311TIP3   OH264347   6.047   4.706  13.013  0.5447 -0.0837 -0.0648
14311TIP3    H164348   5.991   4.781  13.032  0.1118  0.2603 -2.3668
14311TIP3    H264349   5.989   4.641  12.973  1.3350 -0.7124 -0.2377
14312TIP3   OH264350   1.166   0.781   0.197 -0.0127 -0.0178 -0.1600
14312TIP3    H164351   1.207   0.826   0.123  0.6986  0.5817  0.6001
14312TIP3    H264352   1.088   0.741   0.158 -0.2985  1.2762 -1.0036
14313TIP3   OH264353   2.033   4.205  15.255  0.4622  0.3006  0.0455
14313TIP3    H164354   2.008   4.113  15.244 -2.0233  0.9525 -0.1447
14313TIP3    H264355   2.122   4.209  15.220  0.9934 -2.1957  0.8913
14314TIP3   OH264356   6.041   4.752  13.590  0.1897  0.0056  0.5351
14314TIP3    H164357   6.056   4.846  13.597  1.3110 -0.2446  1.7106
14314TIP3    H264358   6.114   4.719  13.537 -0.9174 -0.0467 -1.0272
14315TIP3   OH264359   1.389   5.159   5.981 -0.0296  0.1291  0.3500
14315TIP3    H164360   1.416   5.163   6.073  1.7869 -0.7813 -0.0950
14315TIP3    H264361   1.312   5.102   5.981 -0.6199  0.8955  1.4015
14316TIP3   OH264362   1.923   6.693  10.561  0.4640 -0.1150 -0.7194
14316TIP3    H164363   1.833   6.689  10.593  0.8261  0.7952  0.5152
14316TIP3    H264364   1.931   6.618  10.503 -0.8384 -0.7219 -0.1687
14317TIP3   OH264365   2.386   4.652   5.515 -0.3656  0.2766 -0.3883
14317TIP3    H164366   2.363   4.654   5.422 -0.2282  2.0597 -0.4072
14317TIP3    H264367   2.305   4.628   5.559 -0.9607  1.4212 -0.8269
14318TIP3   OH264368   2.075   2.889  15.608  0.8496  0.0057  0.4716
14318TIP3    H164369   2.068   2.871  15.702  2.1952 -2.1095  0.2454
14318TIP3    H264370   1.984   2.886  15.577  0.3832  0.6922  1.6737
14319TIP3   OH264371   0.708   6.305   5.063  0.4166 -0.2934 -0.3982
14319TIP3    H164372   0.678   6.395   5.052  0.9865  0.2855  2.0834
14319TIP3    H264373   0.804   6.310   5.061  0.4898 -0.5945  1.0069
14320TIP3   OH264374   1.464   0.320  16.220 -0.2262  0.5652 -0.3580
14320TIP3    H164375   1.435   0.390  16.278  1.5958 -0.3245  1.7583
14320TIP3    H264376   1.558   0.333  16.212 -0.2239 -0.1591 -2.0804
14321TIP3   OH264377   2.843   2.765  14.439  0.5965  0.0558  0.1469
14321TIP3    H164378   2.922   2.718  14.466 -0.8041 -3.0569 -0.6850
14321TIP3    H264379   2.865   2.802  14.353  1.1378 -0.8846 -0.1367
14322TIP3   OH264380   4.819   5.379  16.157 -0.4541  0.2058 -0.0787
14322TIP3    H164381   4.913   5.398  16.163 -0.2441 -0.1046 -1.8566
14322TIP3    H264382   4.796   5.401  16.066 -2.0467  0.0327  0.2597
14323TIP3   OH264383   4.281   5.269   6.244  0.5857 -0.3561  0.2548
14323TIP3    H164384   4.234   5.330   6.301  1.3695  1.5141 -0.9870
14323TIP3    H264385   4.365   5.255   6.289  1.1421  0.9909 -0.2999
14324TIP3   OH264386   1.451   5.823  14.529  0.0383 -0.3667 -0.7990
14324TIP3    H164387   1.392   5.786  14.463 -1.5447  1.9219 -0.7942
14324TIP3    H264388   1.393   5.869  14.590  1.7487  1.2351 -0.2820
14325TIP3   OH264389   0.694   1.126  10.474 -0.3098 -0.6252 -0.1542
14325TIP3    H164390   0.668   1.214  10.503  1.1309 -0.3067  0.2457
14325TIP3    H264391   0.618   1.071  10.495 -1.1849  0.4900 -0.2922
14326TIP3   OH264392   4.588   3.202   0.940  0.7318  0.1877  0.5086
14326TIP3    H164393   4.676   3.186   0.974  0.5942 -1.3808  0.2049
14326TIP3    H264394   4.533   3.139   0.987  0.0077  0.2165 -0.2808
14327TIP3   OH264395   1.055   6.167   1.372 -0.3501 -0.0104 -0.5289
14327TIP3    H164396   1.081   6.176   1.281 -1.3737 -1.9195 -1.0653
14327TIP3    H264397   1.129   6.201   1.422  0.7052  0.0222 -2.0545
14328TIP3   OH264398   3.823   6.650   3.557  0.0293  0.0673  0.3196
14328TIP3    H164399   3.919   6.653   3.556  0.1719 -2.3764  0.8032
14328TIP3    H264400   3.799   6.683   3.644  0.4647  0.2874  0.3577
14329TIP3   OH264401   4.530   0.061  15.645  0.5958 -0.8324  0.5807
14329TIP3    H164402   4.477   0.127  15.600  0.3232 -1.0800  0.5345
14329TIP3    H264403   4.466   0.007  15.691  0.8347 -0.9270  0.8061
14330TIP3   OH264404   6.134   3.593  13.912 -0.0136 -0.6235  0.4956
14330TIP3    H164405   6.055   3.561  13.866  0.5595 -0.8921 -0.3244
14330TIP3    H264406   6.194   3.518  13.910 -0.0106 -0.6742  1.8003
14331TIP3   OH264407   0.108   2.083  16.310 -0.1591 -0.1569 -0.3773
14331TIP3    H164408   0.075   2.156  16.363 -0.3863 -0.1594 -0.5169
14331TIP3    H264409   0.057   2.007  16.340 -1.2612  0.0879 -1.5436
14332TIP3   OH264410   1.699   2.177  15.901  0.1005 -0.3061  0.1915
14332TIP3    H164411   1.714   2.096  15.950 -0.0771 -0.7995 -0.5471
14332TIP3    H264412   1.628   2.156  15.840  0.9428 -0.0273 -0.9399
14333TIP3   OH264413   6.083   2.731  14.634  0.3388 -0.2398 -0.4746
14333TIP3    H164414   6.122   2.665  14.577  0.2334 -0.0049 -0.8234
14333TIP3    H264415   6.144   2.739  14.707  0.2107 -0.9220 -0.2920
14334TIP3   OH264416   2.621   4.083   2.115 -0.6190  0.1693  0.4540
14334TIP3    H164417   2.629   4.027   2.192 -0.9829 -0.3874  0.0981
14334TIP3    H264418   2.580   4.027   2.049  1.4755 -0.0042 -0.7972
14335TIP3   OH264419   5.508   0.981   4.118 -0.4740 -0.3157 -0.6808
14335TIP3    H164420   5.445   0.909   4.115 -1.8658  0.8921 -2.0173
14335TIP3    H264421   5.506   1.018   4.030  1.5032  0.3031 -0.5086
14336TIP3   OH264422   2.399   3.367   3.759  0.1766  0.3970 -0.5829
14336TIP3    H164423   2.409   3.282   3.716 -0.3245  0.6761 -1.2695
14336TIP3    H264424   2.318   3.359   3.809  0.4107  0.2968 -0.2135
14337TIP3   OH264425   0.659   4.779   4.520 -0.4656  0.3414  0.0662
14337TIP3    H164426   0.736   4.833   4.538  0.5187 -0.3780 -1.7351
14337TIP3    H264427   0.612   4.775   4.603  1.6216  0.5242  1.3084
14338TIP3   OH264428   0.725   5.054  13.946 -0.5064  0.4954  0.1985
14338TIP3    H164429   0.785   5.115  13.990  1.4818  0.0605 -1.7183
14338TIP3    H264430   0.698   5.100  13.867 -0.5634 -0.3293 -0.2758
14339TIP3   OH264431   4.690   4.858   4.377  0.6600 -0.1256  0.3107
14339TIP3    H164432   4.673   4.861   4.283  1.5714  1.2479  0.1757
14339TIP3    H264433   4.718   4.946   4.400  1.3536 -0.6776  1.7059
14340TIP3   OH264434   4.367   1.197   3.157 -0.4788 -1.2520  0.1741
14340TIP3    H164435   4.285   1.148   3.149 -0.3425 -1.1881 -2.1310
14340TIP3    H264436   4.426   1.154   3.095  1.7542 -2.1819  2.7193
14341TIP3   OH264437   3.037   2.326   5.979 -0.0693  0.3933  0.6151
14341TIP3    H164438   2.978   2.347   5.907  0.1343  0.2493  0.4083
14341TIP3    H264439   2.989   2.262   6.032  0.2866 -0.4529 -0.0749
14342TIP3   OH264440   5.906   2.006  14.340  0.4313  0.2476  0.1020
14342TIP3    H164441   5.941   2.085  14.381 -0.0134  1.2203 -1.3159
14342TIP3    H264442   5.935   2.011  14.249 -0.6997 -0.5478 -0.3311
14343TIP3   OH264443   2.202   1.098   0.573  0.0100 -0.1443 -0.4092
14343TIP3    H164444   2.138   1.040   0.533 -2.1549  1.8981 -0.1619
14343TIP3    H264445   2.188   1.087   0.668 -1.8365  2.0302 -0.3276
14344TIP3   OH264446   3.583   1.661  11.457 -0.1830  0.2649  0.0007
14344TIP3    H164447   3.659   1.686  11.510  1.9854  0.7168 -3.0951
14344TIP3    H264448   3.524   1.618  11.520  1.1115  2.7222  3.2016
14345TIP3   OH264449   5.297   6.371  15.516 -0.3630 -0.2404  0.1639
14345TIP3    H164450   5.212   6.336  15.490  0.0475 -0.9508 -0.2481
14345TIP3    H264451   5.282   6.465  15.527 -0.7818 -0.0442 -1.7515
14346TIP3   OH264452   0.137   1.859  14.422 -0.3153  0.5552  0.2014
14346TIP3    H164453   0.154   1.797  14.351  0.6001  0.5131  0.4398
14346TIP3    H264454   0.201   1.929  14.407  0.3252  0.2343  1.3415
14347TIP3   OH264455   5.334   2.923   4.709  0.0459 -0.0455 -0.0673
14347TIP3    H164456   5.366   2.944   4.621 -0.7194 -1.0726 -0.6248
14347TIP3    H264457   5.244   2.954   4.710 -0.1288 -0.5435  0.1451
14348TIP3   OH264458   3.252   4.197   1.615  0.3968  0.1886  0.4468
14348TIP3    H164459   3.195   4.247   1.557  0.7894 -0.5660 -0.6209
14348TIP3    H264460   3.212   4.208   1.702 -2.1723 -1.3703 -0.4101
14349TIP3   OH264461   6.693   0.330   5.742 -0.0689  0.3184  0.2637
14349TIP3    H164462   6.599   0.319   5.756  0.0189 -0.3125  0.3660
14349TIP3    H264463   6.709   0.422   5.764 -0.2845 -0.1022  2.4711
14350TIP3   OH264464   0.838   2.555  14.123  0.2916  0.1808 -0.5740
14350TIP3    H164465   0.854   2.590  14.211  0.9390  0.3273 -0.7501
14350TIP3    H264466   0.832   2.632  14.067 -1.0583  0.1394 -0.5187
14351TIP3   OH264467   0.860   3.448   3.239 -0.0059 -0.4715 -0.4298
14351TIP3    H164468   0.934   3.507   3.256 -0.1972 -0.6699  1.2491
14351TIP3    H264469   0.899   3.360   3.238 -0.1966 -0.5822  0.5248
14352TIP3   OH264470   1.314   3.164  17.188  0.6445  0.1747  0.0171
14352TIP3    H164471   1.319   3.210  17.272 -0.0688 -2.0491  1.3313
14352TIP3    H264472   1.294   3.233  17.125  2.4769  2.1378  1.4021
14353TIP3   OH264473   6.120   6.569  10.800 -0.3341 -0.5550 -0.1842
14353TIP3    H164474   6.089   6.479  10.794 -3.1785  0.1853  1.8059
14353TIP3    H264475   6.215   6.560  10.810 -0.4563 -3.2657 -0.5505
14354TIP3   OH264476   1.263   2.079  11.348 -0.2111  0.0331  0.2933
14354TIP3    H164477   1.265   1.986  11.325 -1.0516  0.0671  0.0409
14354TIP3    H264478   1.307   2.123  11.275  0.5495 -0.1949  0.6056
14355TIP3   OH264479   3.171   3.079   2.627 -0.3860 -0.1907  0.1017
14355TIP3    H164480   3.168   3.144   2.556 -1.9397 -0.3348 -0.0045
14355TIP3    H264481   3.088   3.091   2.673 -0.2164 -1.3783  0.7384
14356TIP3   OH264482   5.462   1.869   1.983 -0.1187 -0.5027  0.1916
14356TIP3    H164483   5.478   1.885   1.890  0.8648  1.4234  0.6508
14356TIP3    H264484   5.429   1.952   2.017 -3.0741 -1.9084  1.0950
14357TIP3   OH264485   2.106   4.810  11.561 -0.8595  0.0209  0.4288
14357TIP3    H164486   2.133   4.737  11.617  2.6112  0.5980 -0.2397
14357TIP3    H264487   2.049   4.771  11.495 -0.3261 -1.8042  0.9919
14358TIP3   OH264488   4.156   5.193  15.281 -0.2207 -0.3615 -0.0030
14358TIP3    H164489   4.174   5.236  15.365  0.1969  1.1075 -0.7923
14358TIP3    H264490   4.061   5.191  15.275 -0.2489  0.0808  0.2486
14359TIP3   OH264491   0.978   2.888   1.855  0.0542  0.7475 -0.0054
14359TIP3    H164492   1.036   2.816   1.880 -0.5895 -0.9243 -2.8236
14359TIP3    H264493   0.909   2.886   1.921 -0.7051 -2.2749 -0.6943
14360TIP3   OH264494   2.677   3.607  13.080  0.1181 -0.2337 -0.3159
14360TIP3    H164495   2.672   3.535  13.143 -0.9603 -0.2439 -0.3924
14360TIP3    H264496   2.612   3.585  13.013  1.2946 -0.2686 -1.4963
14361TIP3   OH264497   3.318   2.137   0.545 -0.0408  0.4394  0.0414
14361TIP3    H164498   3.245   2.082   0.518  1.1633 -0.5475 -1.3619
14361TIP3    H264499   3.384   2.076   0.576  1.2783  1.0510 -1.4320
14362TIP3   OH264500   1.898   4.212   3.239 -0.1549 -0.0253  0.0467
14362TIP3    H164501   1.935   4.129   3.207  0.3286 -0.1879  0.9878
14362TIP3    H264502   1.944   4.228   3.322  0.1937  1.4911 -0.4020
14363TIP3   OH264503   6.664   3.005  13.688 -0.3060 -0.0098 -0.5064
14363TIP3    H164504   6.755   2.981  13.674 -0.1642 -0.1281  0.5326
14363TIP3    H264505   6.660   3.099  13.668 -0.0293 -0.0827 -0.8920
14364TIP3   OH264506   0.488   6.011  13.079  0.1294 -0.8543  0.7488
14364TIP3    H164507   0.533   5.936  13.117  1.4450 -0.3452  0.2565
14364TIP3    H264508   0.442   5.975  13.003  1.6664 -0.9931 -0.1469
14365TIP3   OH264509   0.042   5.784   3.439  0.1673 -0.2610 -0.2018
14365TIP3    H164510   0.105   5.842   3.395 -1.0873  0.0584 -1.6632
14365TIP3    H264511   0.006   5.730   3.369 -0.2152 -1.3855  0.8224
14366TIP3   OH264512   5.825   1.332  13.063  0.0154  0.1512  0.6113
14366TIP3    H164513   5.915   1.348  13.036 -0.4825  1.3436 -0.4699
14366TIP3    H264514   5.807   1.398  13.130 -0.3633  0.6201  0.0615
14367TIP3   OH264515   3.159   5.182   1.171  0.2019 -0.0377  0.7136
14367TIP3    H164516   3.127   5.099   1.137 -1.2909 -0.3762  2.7320
14367TIP3    H264517   3.090   5.245   1.148  0.7455  0.4134  0.2707
14368TIP3   OH264518   2.351   6.323   2.367  0.0635 -0.1150  0.2969
14368TIP3    H164519   2.377   6.340   2.458  0.9868  2.0248 -0.2916
14368TIP3    H264520   2.380   6.234   2.350 -1.2637 -1.0489  2.4499
14369TIP3   OH264521   4.009   6.003   0.936 -0.5650 -0.1453  0.0408
14369TIP3    H164522   3.966   6.082   0.903 -0.5514  0.3223  1.1171
14369TIP3    H264523   4.092   5.999   0.887 -1.3561 -0.5213 -1.3336
14370TIP3   OH264524   4.030   1.853  11.335 -0.4985  0.1363 -0.4095
14370TIP3    H164525   4.097   1.862  11.267 -0.6400 -1.3569 -0.7963
14370TIP3    H264526   4.062   1.906  11.408  1.6135 -1.2701 -0.2222
14371TIP3   OH264527   4.547   1.385   3.917  0.2599  0.6441 -0.4323
14371TIP3    H164528   4.469   1.411   3.867  0.3049 -0.9092 -1.3702
14371TIP3    H264529   4.583   1.311   3.868  0.0645 -1.2618  2.1056
14372TIP3   OH264530   0.904   1.062  15.884 -0.0386  0.5197  0.0063
14372TIP3    H164531   0.964   1.132  15.909  1.2785 -0.5015 -0.1981
14372TIP3    H264532   0.860   1.095  15.806  0.9495  0.9246 -0.3941
14373TIP3   OH264533   4.269   5.095   5.437 -0.2469 -0.0340 -0.0192
14373TIP3    H164534   4.179   5.103   5.406  0.1533 -0.1349 -1.2520
14373TIP3    H264535   4.267   5.019   5.496 -0.8508 -0.4180 -0.5228
14374TIP3   OH264536   4.062   4.438   5.774  0.0982  0.4991 -0.3134
14374TIP3    H164537   4.136   4.465   5.719  0.7179  0.6140  0.5592
14374TIP3    H264538   4.096   4.442   5.863 -1.6425  2.8996  0.3446
14375TIP3   OH264539   1.823   1.656   1.982  0.8085  0.5297 -0.0580
14375TIP3    H164540   1.910   1.617   1.994 -0.3083 -2.0042  0.4547
14375TIP3    H264541   1.785   1.608   1.908 -0.1952  1.5756 -0.2548
14376TIP3   OH264542   5.534   0.411  10.413  0.1017  0.7286 -0.1737
14376TIP3    H164543   5.452   0.451  10.383 -1.3877 -1.0100  1.3159
14376TIP3    H264544   5.561   0.354  10.340  0.3460  1.7704 -0.9127
14377TIP3   OH264545   6.368   0.625  13.164  0.1699  0.4911  0.0573
14377TIP3    H164546   6.411   0.546  13.196  0.1098 -0.1036 -1.3005
14377TIP3    H264547   6.403   0.638  13.076 -2.5432 -0.1543 -1.2200
14378TIP3   OH264548   4.225   1.885  12.914 -0.0459  0.2575  0.6098
14378TIP3    H164549   4.197   1.880  13.005  0.3230  1.3252  0.7886
14378TIP3    H264550   4.164   1.946  12.873 -0.8457 -0.9910 -0.1179
14379TIP3   OH264551   5.985   2.687   3.366 -0.0839  0.8097 -0.1983
14379TIP3    H164552   5.983   2.597   3.332 -0.4991  0.0571  1.6905
14379TIP3    H264553   5.904   2.727   3.335  0.2069  0.6159 -1.2331
14380TIP3   OH264554   1.904   3.912  11.191 -0.1547 -0.5112  0.4847
14380TIP3    H164555   1.982   3.909  11.246 -1.3283  0.9002  2.3593
14380TIP3    H264556   1.932   3.959  11.112  0.6469  1.0637  1.6561
14381TIP3   OH264557   3.316   1.522  16.169 -0.2293  0.1586 -0.5459
14381TIP3    H164558   3.284   1.467  16.240 -1.1202  1.2493 -0.0680
14381TIP3    H264559   3.290   1.475  16.089  0.9804 -1.1880 -0.1989
14382TIP3   OH264560   1.678   2.873  15.703  0.4058  0.0577 -0.2143
14382TIP3    H164561   1.701   2.787  15.739 -0.0248 -1.1770 -2.7226
14382TIP3    H264562   1.583   2.871  15.697  0.4207  0.5756 -0.6161
14383TIP3   OH264563   0.489   3.531  14.383  0.5190 -0.3373 -0.6828
14383TIP3    H164564   0.509   3.481  14.462 -1.3011 -1.5832 -0.9441
14383TIP3    H264565   0.485   3.622  14.412 -0.8010 -0.8388  0.8490
14384TIP3   OH264566   2.253   2.592   5.249  0.2345 -0.3799  0.3243
14384TIP3    H164567   2.206   2.632   5.322  0.0263 -0.1091  0.0447
14384TIP3    H264568   2.186   2.544   5.200  0.1908  0.2090 -0.2117
14385TIP3   OH264569   4.269   4.470  13.404  0.3474  0.4971  0.2831
14385TIP3    H164570   4.332   4.399  13.390 -0.3348  0.0835 -0.8741
14385TIP3    H264571   4.184   4.426  13.403  0.0527  0.8728  3.0640
14386TIP3   OH264572   2.217   2.589  16.070 -0.0719  0.3141 -0.6925
14386TIP3    H164573   2.144   2.529  16.056  0.0985  0.1839 -1.0542
14386TIP3    H264574   2.247   2.611  15.981  1.0792 -0.5709 -0.5437
14387TIP3   OH264575   3.749   3.681  16.590 -0.1984  0.3869 -0.5958
14387TIP3    H164576   3.714   3.641  16.510  1.0947 -1.1683 -0.4369
14387TIP3    H264577   3.713   3.628  16.661  2.8389 -1.7594 -0.4478
14388TIP3   OH264578   4.762   3.344   4.658 -0.3242 -0.6242  0.5373
14388TIP3    H164579   4.773   3.353   4.752 -0.2076  2.9451  0.3187
14388TIP3    H264580   4.846   3.373   4.621 -0.6167 -1.2515 -0.6673
14389TIP3   OH264581   3.485   0.772  15.960 -0.3160  0.1576  0.5096
14389TIP3    H164582   3.472   0.719  15.882  1.5338  0.2217  0.1086
14389TIP3    H264583   3.508   0.859  15.927  3.3148 -0.4729  0.9421
14390TIP3   OH264584   0.799   5.390  16.340 -0.0633 -0.2200 -0.4192
14390TIP3    H164585   0.705   5.407  16.349  0.2630  0.7794  2.1679
14390TIP3    H264586   0.808   5.298  16.366 -0.3184 -0.2956 -0.5884
14391TIP3   OH264587   4.157   4.695   1.858 -0.5336  0.0863  0.1140
14391TIP3    H164588   4.118   4.615   1.895  0.3801 -0.1490  0.6129
14391TIP3    H264589   4.212   4.729   1.929  2.0879 -0.9393 -1.2791
14392TIP3   OH264590   5.539   5.702  13.799 -0.1393 -0.0008  0.3908
14392TIP3    H164591   5.604   5.654  13.748 -0.2772  0.5588 -0.3360
14392TIP3    H264592   5.495   5.635  13.851  0.5169 -0.4823  0.3394
14393TIP3   OH264593   6.679   0.867   5.807 -0.1803 -0.0847 -0.5948
14393TIP3    H164594   6.645   0.956   5.798 -0.2455 -0.0245  0.1951
14393TIP3    H264595   6.687   0.854   5.901 -0.2985 -0.9669 -0.7015
14394TIP3   OH264596   5.188   6.504   1.844  0.4398 -0.3133  0.0770
14394TIP3    H164597   5.265   6.456   1.875  1.2535 -0.3885 -1.9225
14394TIP3    H264598   5.217   6.547   1.763 -0.7556  2.1636  0.8539
14395TIP3   OH264599   0.760   6.408   5.341 -0.6831  0.5125 -0.1725
14395TIP3    H164600   0.844   6.377   5.375 -1.6449 -0.9124  1.0438
14395TIP3    H264601   0.743   6.354   5.264  0.0307  1.5947 -1.1118
14396TIP3   OH264602   4.856   1.515   3.016 -0.3730 -0.2881  0.1842
14396TIP3    H164603   4.932   1.502   3.072  1.1836  1.2601 -1.4288
14396TIP3    H264604   4.852   1.436   2.962 -0.1371 -0.5417  0.5369
14397TIP3   OH264605   1.923   1.922  14.445  0.0772  0.1738 -0.1742
14397TIP3    H164606   1.904   1.995  14.503  4.3306  3.4397 -2.3570
14397TIP3    H264607   1.893   1.951  14.358  0.0037 -1.6317 -0.8049
14398TIP3   OH264608   1.348   6.177  14.019  0.3008  0.4330 -0.2161
14398TIP3    H164609   1.310   6.130  14.093  1.8643 -0.3593  0.1310
14398TIP3    H264610   1.278   6.180  13.954 -0.4396 -0.7551  0.4820
14399TIP3   OH264611   2.600   3.383   2.963 -0.5263 -0.2587  0.2023
14399TIP3    H164612   2.642   3.451   3.015 -1.3874  0.5462 -0.1405
14399TIP3    H264613   2.655   3.305   2.977  1.5069  0.8979 -0.7855
14400TIP3   OH264614   0.950   5.547  15.952 -0.0117 -0.2261 -0.1366
14400TIP3    H164615   0.973   5.479  15.888 -0.4444 -0.3849 -0.1288
14400TIP3    H264616   0.937   5.626  15.899  0.6041 -0.1216 -0.1327
14401TIP3   OH264617   1.477   2.816  15.927 -0.5026  0.7542  0.5162
14401TIP3    H164618   1.570   2.795  15.914 -0.5314 -0.1834  1.6171
14401TIP3    H264619   1.447   2.846  15.842  0.4597 -0.3220 -0.2341
14402TIP3   OH264620   4.563   3.094   2.205  0.3696  0.1062 -0.4314
14402TIP3    H164621   4.658   3.098   2.215  0.2487  2.0287  0.3336
14402TIP3    H264622   4.538   3.008   2.240  1.8468 -0.6136 -1.0724
14403TIP3   OH264623   2.360   4.747  15.558  0.3660  0.0088  0.0769
14403TIP3    H164624   2.276   4.729  15.601  0.4610 -2.6578 -0.6597
14403TIP3    H264625   2.351   4.707  15.471  2.1228  0.3658 -0.3087
14404TIP3   OH264626   3.664   4.258  14.851  0.0063  0.2851 -0.2920
14404TIP3    H164627   3.660   4.186  14.915 -1.8134  0.5906  0.0111
14404TIP3    H264628   3.682   4.336  14.904 -0.0038  0.3303 -0.3550
14405TIP3   OH264629   4.093   2.905  11.982 -0.4880  0.0045  0.2123
14405TIP3    H164630   4.111   2.824  12.030 -1.5337 -1.0290 -1.0349
14405TIP3    H264631   4.178   2.948  11.975 -0.0126 -0.6961  1.4009
14406TIP3   OH264632   6.534   6.516  14.750  0.2281 -0.3446  0.4888
14406TIP3    H164633   6.549   6.530  14.844 -0.2851 -0.5248  0.6007
14406TIP3    H264634   6.481   6.591  14.723  0.5364 -0.1935  0.2996
14407TIP3   OH264635   1.087   5.925   2.233 -0.5492  0.2315 -0.0802
14407TIP3    H164636   1.025   5.988   2.270  0.0270  1.1011 -0.5441
14407TIP3    H264637   1.173   5.955   2.263 -0.2922 -0.5325 -0.0366
14408TIP3   OH264638   0.855   1.278  13.653 -0.3707 -0.2436 -0.1109
14408TIP3    H164639   0.885   1.188  13.651 -2.3716 -0.9888  0.6707
14408TIP3    H264640   0.800   1.288  13.576  1.7974  1.1320 -1.5900
14409TIP3   OH264641   5.048   6.734   4.272  0.4619 -0.4728  0.4361
14409TIP3    H164642   5.001   6.710   4.351 -1.2378 -2.0557 -0.9641
14409TIP3    H264643   5.136   6.699   4.285 -0.2869 -2.2642  0.9286
14410TIP3   OH264644   4.701   4.554   3.243 -0.1679 -0.2344  0.3639
14410TIP3    H164645   4.775   4.556   3.303 -0.2461 -1.1639  0.4978
14410TIP3    H264646   4.670   4.645   3.240  0.1571 -0.0837  1.3216
14411TIP3   OH264647   5.134   5.354  15.551 -0.0591  0.3762  0.6221
14411TIP3    H164648   5.160   5.445  15.542  1.4825  0.0935  1.8185
14411TIP3    H264649   5.204   5.313  15.601  1.0012 -2.2832 -2.6729
14412TIP3   OH264650   1.357   5.956   2.320  0.8765  0.0498  0.1290
14412TIP3    H164651   1.386   6.046   2.334  2.0416  0.0761 -2.0653
14412TIP3    H264652   1.438   5.904   2.322  0.4836 -0.6274 -0.8449
14413TIP3   OH264653   0.772   5.120  14.858 -0.3239 -0.2651  0.4838
14413TIP3    H164654   0.803   5.051  14.918 -2.8717 -1.5471  0.4615
14413TIP3    H264655   0.820   5.198  14.884  1.6102 -1.7145  1.4909
14414TIP3   OH264656   0.508   0.779  13.993 -1.0098 -0.1645  0.4468
14414TIP3    H164657   0.501   0.799  14.086 -0.3460  2.3725  0.0130
14414TIP3    H264658   0.449   0.841  13.950  1.4138  1.2964 -1.0330
14415TIP3   OH264659   4.863   5.293   5.237 -0.1573 -0.5832 -0.0500
14415TIP3    H164660   4.789   5.284   5.177 -0.2505 -2.7948  0.2952
14415TIP3    H264661   4.874   5.387   5.249 -1.7480 -0.1661 -1.5274
14416TIP3   OH264662   4.496   1.001  10.835  0.1063 -0.1750  0.4531
14416TIP3    H164663   4.565   1.010  10.769 -1.6542  2.3628 -1.2198
14416TIP3    H264664   4.426   0.953  10.790 -0.1296 -0.7203  1.3811
14417TIP3   OH264665   4.994   4.540  14.862 -0.2407  0.2185 -0.0559
14417TIP3    H164666   4.950   4.547  14.947  3.0827 -1.8412  2.0942
14417TIP3    H264667   4.950   4.468  14.818 -0.4925 -0.3294  1.0421
14418TIP3   OH264668   0.210   0.345  14.958 -0.0395 -0.2434  0.5348
14418TIP3    H164669   0.226   0.334  14.864  0.4404  1.5689  0.3665
14418TIP3    H264670   0.278   0.292  15.000  1.3543  0.9264 -0.1662
14419TIP3   OH264671   4.881   6.297   4.667  0.2807  0.1037  0.1257
14419TIP3    H164672   4.966   6.308   4.709  1.1853 -2.1213 -0.9471
14419TIP3    H264673   4.827   6.252   4.732  0.8577 -1.0176 -0.1470
14420TIP3   OH264674   3.182   1.852   1.764  0.0146  0.0079  0.1716
14420TIP3    H164675   3.142   1.822   1.846 -0.6146  0.3380 -0.0021
14420TIP3    H264676   3.156   1.945   1.759 -1.7252 -0.4994 -1.4086
14421TIP3   OH264677   5.466   5.330   3.379 -0.5358 -0.5901 -0.0683
14421TIP3    H164678   5.534   5.264   3.370  1.4523  1.2694  0.4762
14421TIP3    H264679   5.512   5.414   3.372 -2.7242  0.7693  0.6358
14422TIP3   OH264680   5.009   2.013   3.081  0.3172  0.1801 -0.1362
14422TIP3    H164681   5.016   2.098   3.036  0.0471 -0.4814 -1.4697
14422TIP3    H264682   4.959   1.958   3.021  1.8415 -1.4188 -0.0162
14423TIP3   OH264683   0.388   3.680  16.022  0.2048  0.2374 -0.1697
14423TIP3    H164684   0.374   3.589  15.999  0.6976  0.2620 -0.5761
14423TIP3    H264685   0.472   3.681  16.068  0.6706  0.6190 -1.0050
14424TIP3   OH264686   6.601   5.761  13.044  0.6051  0.7856  0.2672
14424TIP3    H164687   6.572   5.783  12.955 -0.4820  0.3486  0.4994
14424TIP3    H264688   6.520   5.751  13.094  0.9494 -3.1041  0.3351
14425TIP3   OH264689   3.470   1.568   4.394 -0.3327 -0.1498  0.2403
14425TIP3    H164690   3.549   1.555   4.447 -0.5359  0.5968  0.7461
14425TIP3    H264691   3.405   1.601   4.456 -0.7685  0.1244 -0.3544
14426TIP3   OH264692   3.801   0.921   2.345  0.0476 -0.3929 -0.4510
14426TIP3    H164693   3.780   0.867   2.422 -0.5700  1.5401  0.8213
14426TIP3    H264694   3.716   0.944   2.309  0.3286 -0.8185 -1.4064
14427TIP3   OH264695   4.715   6.509   2.952  0.7507 -0.1082  0.3380
14427TIP3    H164696   4.651   6.457   2.903  1.7235 -1.1560  0.1303
14427TIP3    H264697   4.746   6.450   3.021  0.2704  0.9496  1.4899
14428TIP3   OH264698   1.275   2.009  14.214  0.9312  0.0934  0.3001
14428TIP3    H164699   1.239   2.098  14.213  0.8437  0.0569  0.1695
14428TIP3    H264700   1.280   1.986  14.307  0.9380  0.2281  0.3339
14429TIP3   OH264701   4.295   2.942  13.992  0.6788 -0.1122  0.2825
14429TIP3    H164702   4.288   2.854  14.029 -2.2628  0.2299  0.7940
14429TIP3    H264703   4.261   2.932  13.903 -1.1195  0.6783  0.8205
14430TIP3   OH264704   0.849   2.699  15.662 -0.4486  0.3754 -0.3281
14430TIP3    H164705   0.884   2.708  15.750 -1.7587  0.6242  0.1868
14430TIP3    H264706   0.905   2.633  15.621  0.6789  0.8471  0.4066
14431TIP3   OH264707   3.997   5.611   3.387  0.2789  0.4463  0.0372
14431TIP3    H164708   4.000   5.583   3.479  1.8048 -1.2602 -0.4640
14431TIP3    H264709   3.936   5.685   3.386  0.5069  0.7478  2.4740
14432TIP3   OH264710   6.477   4.610  14.390  1.0475  0.6063 -0.1223
14432TIP3    H164711   6.463   4.616  14.484  0.0102 -0.7547 -0.1675
14432TIP3    H264712   6.471   4.517  14.370  1.5691  0.8396 -1.4951
14433TIP3   OH264713   3.554   6.539   5.502  0.2283 -0.3499  0.0438
14433TIP3    H164714   3.636   6.525   5.549  0.0207 -0.1840  0.4696
14433TIP3    H264715   3.489   6.550   5.572 -0.2853 -1.2139 -0.2703
14434TIP3   OH264716   4.561   5.693  11.270 -0.2963  0.0110 -0.2177
14434TIP3    H164717   4.489   5.654  11.220 -1.9417  1.8190  0.6180
14434TIP3    H264718   4.580   5.776  11.225  0.5766  0.0334  0.1656
14435TIP3   OH264719   2.544   3.339   4.874 -0.4831 -0.0252  0.1315
14435TIP3    H164720   2.533   3.433   4.858  2.4079  1.1691  3.8406
14435TIP3    H264721   2.465   3.314   4.922 -1.1732  0.5286 -0.6882
14436TIP3   OH264722   2.460   4.149   5.297 -1.0621  0.3391  0.5353
14436TIP3    H164723   2.368   4.163   5.319 -1.1788 -0.4350  0.5989
14436TIP3    H264724   2.470   4.053   5.299 -0.8533  0.2454 -1.7995
14437TIP3   OH264725   0.609   3.250  15.437 -0.4736  0.1259  0.5677
14437TIP3    H164726   0.671   3.279  15.504 -1.6582  1.7345  1.0448
14437TIP3    H264727   0.664   3.222  15.364  0.8338  1.5974  0.9313
14438TIP3   OH264728   5.241   3.618  15.323 -0.0150  0.1623  0.2778
14438TIP3    H164729   5.233   3.532  15.282  1.4425 -0.9641  2.2228
14438TIP3    H264730   5.334   3.638  15.321  0.0383  0.3705  2.3746
14439TIP3   OH264731   5.930   5.954  12.941  0.9810  0.5873 -0.2794
14439TIP3    H164732   5.999   5.952  12.875  0.1890  1.2565 -1.1579
14439TIP3    H264733   5.973   5.926  13.022  1.8607 -0.7314 -1.1609
14440TIP3   OH264734   6.131   3.041  17.163 -0.3817  0.5587 -0.4197
14440TIP3    H164735   6.185   3.056  17.241  1.8528 -0.5294 -1.6445
14440TIP3    H264736   6.193   3.047  17.090 -2.3890  1.4876 -2.1374
14441TIP3   OH264737   0.624   4.096  16.552 -0.0378  0.3105  0.3121
14441TIP3    H164738   0.571   4.126  16.626  0.4701  1.8913  0.0757
14441TIP3    H264739   0.588   4.142  16.476 -0.1671 -0.8359 -0.3615
14442TIP3   OH264740   2.283   2.660  15.797 -0.0773  0.4477 -0.7574
14442TIP3    H164741   2.197   2.622  15.779 -0.1111  0.9864 -1.8282
14442TIP3    H264742   2.278   2.749  15.761  1.5523 -0.1500 -2.6118
14443TIP3   OH264743   1.509   4.243  14.851  0.1297  0.3239 -0.5490
14443TIP3    H164744   1.575   4.297  14.810 -0.7749  1.6155 -0.3542
14443TIP3    H264745   1.558   4.171  14.892  1.1427 -0.3206 -2.7826
14444TIP3   OH264746   2.502   3.085  12.451 -0.7190 -0.2900 -0.4398
14444TIP3    H164747   2.480   3.166  12.496 -2.7205 -0.2400 -1.4007
14444TIP3    H264748   2.544   3.114  12.369  0.4528 -0.3123  0.1322
14445TIP3   OH264749   4.389   5.184  17.010  0.2542 -0.1951 -0.5413
14445TIP3    H164750   4.357   5.268  17.043  1.1930  1.2058 -2.9829
14445TIP3    H264751   4.318   5.152  16.954  1.3532  0.9506 -2.7199
14446TIP3   OH264752   5.732   4.028   4.338 -0.6690 -0.2246  0.1567
14446TIP3    H164753   5.802   4.090   4.357 -0.0464 -1.1393  0.9347
14446TIP3    H264754   5.752   3.995   4.250 -0.0819 -0.5403  0.4096
14447TIP3   OH264755   2.694   3.444   3.239  0.2558  0.2463 -0.3201
14447TIP3    H164756   2.651   3.373   3.287 -0.0728 -0.6081 -1.8211
14447TIP3    H264757   2.687   3.520   3.297  1.7866 -1.2089  1.9313
14448TIP3   OH264758   2.851   6.189   4.969 -0.2863 -0.9648 -0.0351
14448TIP3    H164759   2.883   6.278   4.953  0.2378 -1.0701  0.4162
14448TIP3    H264760   2.927   6.133   4.957  0.4156 -0.9971  3.5324
14449TIP3   OH264761   5.155   1.802  16.962 -0.1174  0.5493  0.1578
14449TIP3    H164762   5.131   1.816  16.870 -0.0583 -0.3608  0.0010
14449TIP3    H264763   5.245   1.835  16.968  0.5394 -1.0007 -0.5524
14450TIP3   OH264764   3.570   4.957  14.655  0.5284  0.0277  0.2586
14450TIP3    H164765   3.569   4.865  14.627 -1.1101 -0.1820  0.8843
14450TIP3    H264766   3.662   4.975  14.674  0.7934 -1.7050  0.8127
14451TIP3   OH264767   4.931   6.569  14.703 -0.2578 -0.5430 -0.4977
14451TIP3    H164768   4.923   6.476  14.681 -0.3707 -0.4246 -0.9781
14451TIP3    H264769   4.980   6.606  14.630 -1.4985  0.0506 -1.0673
14452TIP3   OH264770   0.473   4.825   0.842  0.3994 -0.0307  0.2508
14452TIP3    H164771   0.550   4.879   0.861  0.2020 -0.3176  1.9816
14452TIP3    H264772   0.502   4.735   0.857  0.1603 -0.2832 -0.6915
14453TIP3   OH264773   4.262   6.438  15.095 -0.5227  0.3110  0.4649
14453TIP3    H164774   4.331   6.385  15.053 -1.4246 -0.5963  0.0979
14453TIP3    H264775   4.296   6.528  15.091  0.2667 -0.0075 -0.4751
14454TIP3   OH264776   4.427   6.293  16.629  0.2249 -0.5835 -0.7227
14454TIP3    H164777   4.331   6.283  16.631  0.2663 -0.8899  1.4178
14454TIP3    H264778   4.456   6.268  16.717  2.3084 -0.6701 -1.3799
14455TIP3   OH264779   4.295   5.982   2.086 -0.6295  0.0684  0.1608
14455TIP3    H164780   4.310   6.047   2.017 -0.0604  0.0563  0.2671
14455TIP3    H264781   4.345   5.905   2.059 -0.6940 -0.0633  0.4085
14456TIP3   OH264782   5.551   0.888  12.959  0.1699 -0.0034  0.0163
14456TIP3    H164783   5.635   0.928  12.940 -0.7539  1.9009 -0.3040
14456TIP3    H264784   5.515   0.865  12.873 -1.0312  2.3115 -0.2016
14457TIP3   OH264785   2.951   5.379   3.659 -0.5585 -0.1845  0.6327
14457TIP3    H164786   2.934   5.413   3.746 -2.3642  1.3534 -0.2677
14457TIP3    H264787   3.010   5.442   3.619  0.2740 -0.8908  0.6985
14458TIP3   OH264788   4.603   4.313   4.243  0.3579  0.5077 -0.0277
14458TIP3    H164789   4.578   4.287   4.332  1.4610 -0.0062  0.1506
14458TIP3    H264790   4.674   4.376   4.256  0.0585  0.9519 -0.5347
14459TIP3   OH264791   1.888   3.966  12.611 -0.2848  0.4322 -0.1820
14459TIP3    H164792   1.846   3.936  12.530  1.9932 -0.5123 -1.0946
14459TIP3    H264793   1.926   4.051  12.588 -0.7788  0.8089  0.3427
14460TIP3   OH264794   6.749   5.319   4.850  0.7477 -0.0811  0.2460
14460TIP3    H164795   6.722   5.392   4.906  0.2868 -0.0765  0.0216
14460TIP3    H264796   6.796   5.260   4.909  0.7000  0.1651  0.5333
14461TIP3   OH264797   2.059   6.206  14.098  0.2305  0.3121  0.3376
14461TIP3    H164798   1.999   6.280  14.088 -0.2878 -0.2050 -0.6691
14461TIP3    H264799   2.012   6.132  14.058  1.2122 -0.2947  0.2606
14462TIP3   OH264800   5.979   4.367   3.534 -0.0662  0.7112  0.1695
14462TIP3    H164801   5.888   4.390   3.513  0.0435 -0.1256 -1.3865
14462TIP3    H264802   5.997   4.415   3.615 -1.8141  1.0776  0.4020
14463TIP3   OH264803   1.025   0.431   2.602 -0.1481  0.0240 -0.0111
14463TIP3    H164804   0.982   0.516   2.615 -1.6665 -0.8508  0.9875
14463TIP3    H264805   1.046   0.429   2.509 -1.9956  0.6511 -0.4844
14464TIP3   OH264806   3.925   0.126   1.113  0.1185  0.4400  0.2213
14464TIP3    H164807   3.880   0.048   1.145 -1.8901 -0.0992 -3.3696
14464TIP3    H264808   3.859   0.195   1.118  0.1949  0.6474 -1.3014
14465TIP3   OH264809   4.229   5.042  10.916  0.2379 -0.1527 -0.1599
14465TIP3    H164810   4.271   5.091  10.845  0.1249 -2.0583 -1.6082
14465TIP3    H264811   4.140   5.075  10.919  0.1388 -0.2880 -1.1767
14466TIP3   OH264812   1.074   3.041  16.660 -0.4787 -0.5862 -0.4701
14466TIP3    H164813   1.072   3.096  16.582 -2.0550  0.4988  0.2797
14466TIP3    H264814   1.166   3.041  16.687 -0.5870  3.3780  0.5847
14467TIP3   OH264815   3.693   4.105  16.525 -0.1707 -0.1156  0.2764
14467TIP3    H164816   3.608   4.092  16.483 -0.3753  0.5815  0.4558
14467TIP3    H264817   3.676   4.172  16.592  0.3871 -0.4084  0.7206
14468TIP3   OH264818   3.603   1.091   0.492  0.4791 -0.0157  0.1389
14468TIP3    H164819   3.617   1.043   0.574 -2.0266  0.9619  1.2290
14468TIP3    H264820   3.596   1.023   0.425  1.5303 -0.8836  0.8798
14469TIP3   OH264821   0.182   5.627   5.447  0.0864  0.1035 -0.5924
14469TIP3    H164822   0.203   5.720   5.455 -1.0242  0.3012  0.2903
14469TIP3    H264823   0.260   5.582   5.481 -0.4304  0.7871  1.6707
14470TIP3   OH264824   5.689   0.755  13.168 -0.3232 -0.0093 -0.0527
14470TIP3    H164825   5.748   0.709  13.108  1.1089  1.0702  0.4653
14470TIP3    H264826   5.643   0.817  13.112  1.8480  1.8187  0.0226
14471TIP3   OH264827   2.145   3.340  12.766  0.6266 -0.2054 -0.1997
14471TIP3    H164828   2.112   3.378  12.685 -2.0273 -1.9499 -0.0270
14471TIP3    H264829   2.240   3.351  12.760  0.3471  1.8431 -2.3966
14472TIP3   OH264830   2.462   5.714  13.313  0.8178 -0.0662  0.6436
14472TIP3    H164831   2.392   5.654  13.341  1.1580 -1.0373 -0.4646
14472TIP3    H264832   2.490   5.679  13.228  0.1061  2.4559 -0.7345
14473TIP3   OH264833   0.793   4.395  12.780  0.2991 -0.3215 -0.0597
14473TIP3    H164834   0.745   4.472  12.810  2.6932  1.1716  0.1704
14473TIP3    H264835   0.778   4.392  12.686  0.4523  0.6498 -0.1229
14474TIP3   OH264836   2.858   3.258  13.389 -0.0611  0.5783 -0.0272
14474TIP3    H164837   2.789   3.323  13.376 -0.0819  0.2806 -1.7132
14474TIP3    H264838   2.914   3.268  13.312  1.8776  0.8912  1.3417
14475TIP3   OH264839   1.376   3.032   3.702  0.0705 -0.6459  0.1866
14475TIP3    H164840   1.357   3.087   3.626  1.4869  0.2609  0.4607
14475TIP3    H264841   1.301   2.971   3.707 -2.2730  2.0581  0.6613
14476TIP3   OH264842   2.544   1.320  16.504 -0.2062 -0.6368  0.4647
14476TIP3    H164843   2.587   1.255  16.559  1.6078  0.3720  0.3166
14476TIP3    H264844   2.547   1.283  16.416 -0.2087 -0.8337  0.5470
14477TIP3   OH264845   0.041   1.229  13.726 -0.0603  0.4438  0.3160
14477TIP3    H164846   0.052   1.139  13.695  1.8441  0.3467  1.1715
14477TIP3    H264847  -0.053   1.236  13.745  0.0042 -1.9282  1.8808
14478TIP3   OH264848   1.911   3.750  15.990 -0.6318  0.0907 -0.1282
14478TIP3    H164849   1.948   3.666  16.017 -1.6516 -0.8954 -1.6160
14478TIP3    H264850   1.986   3.810  15.987  0.4425 -1.2252 -0.7624
14479TIP3   OH264851   2.219   0.089  13.430  0.5419 -0.6857 -0.9435
14479TIP3    H164852   2.254   0.027  13.495  1.3401  2.0914  1.5049
14479TIP3    H264853   2.137   0.119  13.469  0.4748  0.2330 -1.7707
14480TIP3   OH264854   3.122   5.620  17.296  0.3224 -0.3358 -0.4295
14480TIP3    H164855   3.213   5.596  17.281  0.4801 -0.3183  0.4603
14480TIP3    H264856   3.075   5.536  17.299  0.4622 -0.3981  0.0638
14481TIP3   OH264857   1.412   6.521  13.638 -0.8670 -0.3209 -0.4662
14481TIP3    H164858   1.441   6.531  13.729 -0.8927 -1.8577 -0.2617
14481TIP3    H264859   1.439   6.432  13.614 -1.5897 -0.2284 -1.6974
14482TIP3   OH264860   2.548   2.528   4.583 -0.3465 -0.4879  0.7533
14482TIP3    H164861   2.495   2.606   4.570 -0.0203 -0.1147  1.5941
14482TIP3    H264862   2.612   2.553   4.650  0.2731 -1.2270  0.4584
14483TIP3   OH264863   4.425   2.270  13.770 -0.4633 -0.2915  0.6262
14483TIP3    H164864   4.398   2.357  13.740 -0.3658 -0.2963  0.5259
14483TIP3    H264865   4.342   2.225  13.787 -0.5085 -0.0336  1.0998
14484TIP3   OH264866   0.692   2.300  15.169 -0.0186 -0.5123  0.1413
14484TIP3    H164867   0.701   2.284  15.075  0.1060  3.4014 -0.7138
14484TIP3    H264868   0.777   2.337  15.195 -0.9823  1.1838  1.0394
14485TIP3   OH264869   3.762   4.913  15.336 -0.3444  0.1417  0.0308
14485TIP3    H164870   3.811   4.857  15.276 -2.9356 -0.2866 -1.8842
14485TIP3    H264871   3.771   4.869  15.421  2.0532 -0.1622 -0.3042
14486TIP3   OH264872   5.320   2.033   4.099  0.2805 -0.2799 -0.6655
14486TIP3    H164873   5.327   2.125   4.075 -0.1387 -0.8325 -3.1062
14486TIP3    H264874   5.234   2.024   4.139  0.6244  0.4929  0.2847
14487TIP3   OH264875   2.028   1.230   0.147 -0.0617 -0.8216 -0.3099
14487TIP3    H164876   2.118   1.222   0.114  0.4601  0.7815  0.6462
14487TIP3    H264877   1.974   1.230   0.069  1.0402  1.5226 -1.1413
14488TIP3   OH264878   6.260   6.225  12.279 -0.2223 -0.4600  0.1151
14488TIP3    H164879   6.211   6.246  12.359 -3.9986 -0.5863 -1.9109
14488TIP3    H264880   6.266   6.130  12.280  3.3510 -0.3631  2.0090
14489TIP3   OH264881   3.999   5.872  11.081  0.5271  0.0164 -0.5781
14489TIP3    H164882   3.944   5.820  11.140 -0.4330  2.2981  0.6972
14489TIP3    H264883   3.998   5.824  10.999 -2.5324 -0.6463 -0.2924
14490TIP3   OH264884   5.218   6.014   4.213 -0.4420  0.0753 -0.1525
14490TIP3    H164885   5.144   5.983   4.161  0.4903  2.0848 -2.9407
14490TIP3    H264886   5.296   5.990   4.161  0.8080 -0.6659  1.9559
14491TIP3   OH264887   2.891   2.328   4.991  0.4121 -0.3078  0.4709
14491TIP3    H164888   2.890   2.369   5.077 -0.5675 -1.8317  1.2356
14491TIP3    H264889   2.916   2.237   5.008 -2.7110 -1.4662 -0.3617
14492TIP3   OH264890   5.619   1.024  16.309  0.6092 -0.6100  0.6174
14492TIP3    H164891   5.602   1.028  16.215  1.2067  1.3349  0.5429
14492TIP3    H264892   5.577   0.943  16.338 -1.0891 -0.3728 -1.0248
14493TIP3   OH264893   3.637   5.951  13.177  0.0969  0.1733  0.0134
14493TIP3    H164894   3.678   5.874  13.136 -1.6899 -2.2446  2.3683
14493TIP3    H264895   3.563   5.972  13.120 -0.2800 -0.8771  0.0811
14494TIP3   OH264896   2.045   5.552  14.470 -0.6679 -0.1916  0.3088
14494TIP3    H164897   2.084   5.629  14.429 -3.1658  1.1573  0.2535
14494TIP3    H264898   2.054   5.568  14.564  0.6192 -0.8496  0.3084
14495TIP3   OH264899   0.218   3.108  11.159 -0.0204  0.2087 -0.2387
14495TIP3    H164900   0.225   3.033  11.101  2.7082  0.3115 -0.1831
14495TIP3    H264901   0.213   3.070  11.247  0.4914  0.0710 -0.2652
14496TIP3   OH264902   3.169   1.751   0.743 -0.4085  0.1067  0.7603
14496TIP3    H164903   3.212   1.689   0.802 -1.0121 -0.2854  0.7884
14496TIP3    H264904   3.086   1.772   0.786 -1.0039 -0.4249 -0.0884
14497TIP3   OH264905   4.379   4.644  14.674 -0.0306  0.3083  0.6445
14497TIP3    H164906   4.339   4.606  14.752  0.4145  1.2440  1.3407
14497TIP3    H264907   4.399   4.568  14.619 -2.2831 -0.2176  0.4788
14498TIP3   OH264908   2.630   0.007   3.322  1.0107  0.1162 -0.1781
14498TIP3    H164909   2.564  -0.002   3.254  1.4970 -0.0752 -0.6314
14498TIP3    H264910   2.619  -0.070   3.377  0.6970  0.2115 -0.1015
14499TIP3   OH264911   5.116   6.163   2.639  0.7583  0.5236  0.1681
14499TIP3    H164912   5.081   6.089   2.689 -0.8027  1.5054  0.6010
14499TIP3    H264913   5.096   6.141   2.548  1.3746 -0.1231  0.1807
14500TIP3   OH264914   4.688   2.829  16.673 -0.0192  0.1642 -0.4996
14500TIP3    H164915   4.691   2.877  16.756  4.0945  1.1608 -1.0309
14500TIP3    H264916   4.663   2.740  16.698  0.7648  0.5193  1.7759
14501TIP3   OH264917   6.703   3.901   3.163 -0.0500  0.2699  0.3446
14501TIP3    H164918   6.747   3.952   3.231  1.4208 -0.7686  0.2389
14501TIP3    H264919   6.618   3.879   3.201 -0.9508  3.1036  0.2166
14502TIP3   OH264920   0.160   5.782  12.272 -0.3506 -0.5573 -0.1001
14502TIP3    H164921   0.212   5.702  12.265  1.5651  0.6821 -0.6253
14502TIP3    H264922   0.135   5.801  12.181  0.2243  0.0695 -0.1325
14503TIP3   OH264923   1.939   0.965  11.499  0.5652  0.0590 -0.0202
14503TIP3    H164924   1.970   1.040  11.550  2.4742 -0.1041 -0.8345
14503TIP3    H264925   1.998   0.894  11.524 -1.3105 -1.2642  0.8528
14504TIP3   OH264926   1.758   2.771  13.413 -0.2598 -0.1797 -0.3400
14504TIP3    H164927   1.830   2.720  13.452  0.2269  1.8720  1.7139
14504TIP3    H264928   1.783   2.781  13.321  2.2474  0.6293  0.3434
14505TIP3   OH264929   2.814   4.248   4.045 -0.3663  0.4378  0.2898
14505TIP3    H164930   2.815   4.315   3.977  3.0964  0.4569  0.1985
14505TIP3    H264931   2.906   4.227   4.060 -1.2061 -3.0317  1.6150
14506TIP3   OH264932   4.816   6.532  12.998 -0.0913 -0.1944  0.7824
14506TIP3    H164933   4.798   6.603  13.060  1.2105  0.1183  0.8398
14506TIP3    H264934   4.835   6.577  12.915 -0.9483 -0.5703  0.3635
14507TIP3   OH264935   0.960   2.276  15.528 -0.2125  0.1586  0.1174
14507TIP3    H164936   1.015   2.205  15.561  1.2214  1.2592  0.1369
14507TIP3    H264937   0.872   2.238  15.528  0.6588 -2.0619 -1.0976
14508TIP3   OH264938   6.024   5.124  17.105  0.2013 -1.2214 -0.5395
14508TIP3    H164939   6.107   5.134  17.059 -0.3269 -1.6189 -1.6191
14508TIP3    H264940   6.048   5.098  17.194  1.2992  0.9670 -0.1355
14509TIP3   OH264941   5.024   0.752  12.025  0.3329 -0.8859  0.0847
14509TIP3    H164942   4.938   0.774  12.060  0.0854 -1.3309 -0.2384
14509TIP3    H264943   5.086   0.801  12.080 -0.1678  0.3036 -0.3667
14510TIP3   OH264944   3.936   4.616   4.378 -0.0186 -0.5859 -0.4613
14510TIP3    H164945   3.954   4.524   4.358 -1.0850 -0.4004 -2.5486
14510TIP3    H264946   3.974   4.664   4.305 -0.6773  0.5186 -0.0974
14511TIP3   OH264947   1.313   4.820   0.118  0.0134 -0.3194 -0.0546
14511TIP3    H164948   1.398   4.848   0.151 -0.3099 -0.6506  1.1011
14511TIP3    H264949   1.299   4.733   0.156 -0.1941 -0.9037 -1.4202
14512TIP3   OH264950   3.547   3.062   0.326 -0.1427 -0.2958  0.1160
14512TIP3    H164951   3.633   3.032   0.297  1.1102  0.3584  2.8392
14512TIP3    H264952   3.551   3.058   0.421 -3.0628  0.0379  0.3449
14513TIP3   OH264953   2.653   0.056  12.548 -0.1499  0.0966 -0.4160
14513TIP3    H164954   2.732   0.015  12.583 -0.1359  0.2481 -0.2659
14513TIP3    H264955   2.584   0.029  12.607  0.0036  0.9665  0.1744
14514TIP3   OH264956   4.187   6.237  11.971 -0.2091 -0.2608 -0.2528
14514TIP3    H164957   4.232   6.300  11.915 -0.7102  0.3093 -0.0126
14514TIP3    H264958   4.118   6.287  12.014  1.6522 -0.0599  2.7857
14515TIP3   OH264959   3.566   3.899  12.452 -0.1497 -0.8269  0.2005
14515TIP3    H164960   3.639   3.961  12.453  0.2980 -1.2473 -1.9796
14515TIP3    H264961   3.492   3.949  12.416 -0.4797 -0.8822  0.7866
14516TIP3   OH264962   4.364   0.889   2.520 -0.1342  0.4132 -0.2397
14516TIP3    H164963   4.270   0.907   2.511 -0.4211 -1.0439 -0.3841
14516TIP3    H264964   4.369   0.817   2.583  0.7597 -0.6031 -1.4196
14517TIP3   OH264965   3.057   3.224  14.146 -0.2445 -0.0996  0.5060
14517TIP3    H164966   3.107   3.238  14.227  0.9711 -0.0011 -0.2443
14517TIP3    H264967   3.123   3.215  14.078 -1.2668  0.3674 -0.5829
14518TIP3   OH264968   6.690   3.521  16.627 -0.1797  1.0754 -0.4376
14518TIP3    H164969   6.595   3.525  16.614 -0.4680  0.1859  1.1688
14518TIP3    H264970   6.722   3.603  16.590 -1.5059  1.1933 -1.4266
14519TIP3   OH264971   1.297   2.767   5.221 -0.7574 -0.3345 -0.3595
14519TIP3    H164972   1.233   2.836   5.208 -0.5813  0.0001  0.4741
14519TIP3    H264973   1.380   2.813   5.233 -0.7611 -0.6240  0.9951
14520TIP3   OH264974   0.083   5.040   3.823 -0.3014  0.3542 -0.4296
14520TIP3    H164975   0.114   4.975   3.760 -1.5042 -0.8158  0.1427
14520TIP3    H264976   0.025   5.097   3.773  1.0914  1.3047 -1.0330
14521TIP3   OH264977   4.241   3.459   0.932  0.1594 -0.0580  0.1848
14521TIP3    H164978   4.209   3.373   0.905  0.0416  0.2489 -0.6895
14521TIP3    H264979   4.333   3.460   0.905 -0.2132  0.6156 -1.1432
14522TIP3   OH264980   3.114   5.840   2.375  0.6349  0.3749  0.8379
14522TIP3    H164981   3.047   5.906   2.358  0.6316  0.1435 -0.1004
14522TIP3    H264982   3.157   5.827   2.291 -0.0410 -1.5387  0.7190
14523TIP3   OH264983   0.950   3.933  15.582  0.4711  0.0520  0.2301
14523TIP3    H164984   0.935   3.839  15.585  0.0768  0.1431  1.6956
14523TIP3    H264985   1.043   3.944  15.599  0.3302 -0.0289  1.0720
14524TIP3   OH264986   5.595   3.622   4.408  0.0921 -0.6147 -0.0024
14524TIP3    H164987   5.606   3.664   4.323  0.6905  1.6119  1.0780
14524TIP3    H264988   5.529   3.554   4.394  1.1480 -1.2117 -2.4839
14525TIP3   OH264989   0.512   3.651   5.817  0.0366 -0.5578 -0.0545
14525TIP3    H164990   0.446   3.601   5.865 -2.2502  2.4020  0.1904
14525TIP3    H264991   0.489   3.640   5.725  0.5217 -1.1810 -0.1075
14526TIP3   OH264992   3.642   3.706   0.539  0.1596 -0.0672 -0.6685
14526TIP3    H164993   3.571   3.751   0.492 -1.3740  1.2179  2.6051
14526TIP3    H264994   3.615   3.614   0.539 -1.0825  0.2693 -0.2645
14527TIP3   OH264995   2.731   1.723   5.494 -0.9621  0.3780 -1.0069
14527TIP3    H164996   2.719   1.750   5.403  1.9193  0.2797 -1.5142
14527TIP3    H264997   2.774   1.638   5.489  0.8196  1.1266  0.3591
14528TIP3   OH264998   5.347   3.467   4.444  0.4148 -0.2550 -0.0581
14528TIP3    H164999   5.265   3.423   4.469  0.1082  0.4247  0.1736
14528TIP3    H265000   5.325   3.560   4.447  1.6945  0.0476  1.8946
14529TIP3   OH265001   2.094   6.370   4.447 -0.1498 -0.4426 -0.6822
14529TIP3    H165002   2.128   6.453   4.415  0.0472  0.1560  0.9886
14529TIP3    H265003   2.108   6.373   4.542 -0.4276 -2.2466 -0.5454
14530TIP3   OH265004   2.009   1.454  12.767  0.3274  0.2393 -0.0519
14530TIP3    H165005   2.036   1.544  12.751 -1.8013  1.1718  1.2026
14530TIP3    H265006   2.085   1.413  12.808  1.7066  1.1029 -1.6247
14531TIP3   OH265007   4.733   3.846  12.703  0.0287 -0.3905 -0.1833
14531TIP3    H165008   4.783   3.806  12.632  2.4172 -0.9662  1.6727
14531TIP3    H265009   4.798   3.899  12.751 -1.7821  1.0846  0.7853
14532TIP3   OH265010   5.574   2.937   5.037 -0.5883 -0.0789  0.1355
14532TIP3    H165011   5.631   2.929   4.961 -0.0046 -1.8177  0.7106
14532TIP3    H265012   5.630   2.976   5.104 -0.0341 -1.7450  0.6864
14533TIP3   OH265013   4.702   0.298   1.280  0.2139  0.5630 -0.4015
14533TIP3    H165014   4.622   0.246   1.270 -0.3868  1.4670 -0.4250
14533TIP3    H265015   4.773   0.237   1.261 -0.5512  0.2867 -2.6657
14534TIP3   OH265016   6.013   1.171   0.414 -0.1664 -0.4050 -0.5671
14534TIP3    H165017   6.030   1.245   0.473  0.2849 -0.5545 -0.5019
14534TIP3    H265018   5.935   1.129   0.450  0.0471 -0.4355 -0.1326
14535TIP3   OH265019   3.301   3.127  15.448 -0.1969  0.5119 -0.5037
14535TIP3    H165020   3.240   3.065  15.407  1.7033 -0.5441 -1.8859
14535TIP3    H265021   3.292   3.207  15.397  1.4680 -0.4996 -2.5117
14536TIP3   OH265022   0.015   1.264  15.916 -0.5597 -0.5229 -0.2774
14536TIP3    H165023   0.021   1.356  15.887  0.2338 -0.6499 -0.5234
14536TIP3    H265024   0.002   1.270  16.010  0.1520 -0.1690 -0.1992
14537TIP3   OH265025   0.339   5.308  13.050  0.0589  0.1549  0.2019
14537TIP3    H165026   0.253   5.266  13.059  0.2752 -0.1074  1.1239
14537TIP3    H265027   0.381   5.295  13.135  0.7352  0.9086 -0.0111
14538TIP3   OH265028   6.541   1.153  13.786  0.3248 -0.2081  0.5811
14538TIP3    H165029   6.520   1.063  13.809  0.0381  0.0730  1.4717
14538TIP3    H265030   6.462   1.186  13.743  0.7269 -0.6191 -0.5230
14539TIP3   OH265031   1.260   4.247   4.415  0.6438 -0.7010 -0.2234
14539TIP3    H165032   1.343   4.202   4.402  0.4962 -1.0849  0.1433
14539TIP3    H265033   1.284   4.334   4.445  0.9750 -0.0734 -2.1437
14540TIP3   OH265034   4.329   6.430   2.438 -0.1742 -0.5037  0.5588
14540TIP3    H165035   4.373   6.510   2.467  0.3648 -1.0144  1.1943
14540TIP3    H265036   4.291   6.393   2.517 -1.0341 -0.5168  0.1512
14541TIP3   OH265037   5.081   5.024  15.312  0.0173  0.7048  0.4779
14541TIP3    H165038   5.025   5.014  15.235  2.1448  1.3583 -1.2504
14541TIP3    H265039   5.022   5.056  15.381 -1.5066  2.5563 -1.5732
14542TIP3   OH265040   3.319   6.283  11.250 -0.0657  0.2229  0.5899
14542TIP3    H165041   3.355   6.354  11.302  2.2036 -0.0545 -0.4695
14542TIP3    H265042   3.358   6.294  11.163 -1.0457 -1.2983 -0.1004
14543TIP3   OH265043   1.018   5.573   3.448 -0.5974 -0.9384 -0.1267
14543TIP3    H165044   1.113   5.586   3.444 -0.6137 -0.6601  0.2964
14543TIP3    H265045   1.003   5.534   3.534 -0.8022 -1.5667 -0.4431
14544TIP3   OH265046   0.292   6.170  10.780 -0.4639 -0.6674  0.0972
14544TIP3    H165047   0.233   6.096  10.790 -0.0578 -0.9996  0.0228
14544TIP3    H265048   0.283   6.219  10.862 -2.3778  0.4168 -0.6913
14545TIP3   OH265049   5.932   5.252  11.217 -0.5321  0.1703  0.3675
14545TIP3    H165050   5.847   5.294  11.202 -0.1510  0.3477 -1.4040
14545TIP3    H265051   5.996   5.320  11.197  0.0550 -0.5690 -0.3060
14546TIP3   OH265052   4.657   5.301  12.369 -0.6499  0.7035 -1.0317
14546TIP3    H165053   4.675   5.373  12.430 -1.6077  0.6751 -0.7012
14546TIP3    H265054   4.646   5.345  12.284 -2.2051  1.0698 -0.6590
14547TIP3   OH265055   6.204   2.038  14.715 -0.7106 -0.5560  0.0839
14547TIP3    H165056   6.215   2.072  14.804  0.2626 -1.9924  0.5537
14547TIP3    H265057   6.124   2.079  14.684 -0.6686  0.5621  1.3389
14548TIP3   OH265058   6.075   3.348   5.561  0.0716 -0.2831 -0.0958
14548TIP3    H165059   6.023   3.402   5.621 -1.8403 -1.0281 -0.9949
14548TIP3    H265060   6.110   3.410   5.497 -0.3658  0.1504  0.0807
14549TIP3   OH265061   5.994   6.302  12.920 -0.5619  0.7337  0.1807
14549TIP3    H165062   6.040   6.254  12.852  0.5178  1.5545  0.3071
14549TIP3    H265063   5.983   6.390  12.885 -2.1500  0.5366  0.1171
14550TIP3   OH265064   1.591   4.623  11.477  0.2276 -0.0143  0.1012
14550TIP3    H165065   1.627   4.694  11.423  0.0125  1.7662  2.1765
14550TIP3    H265066   1.662   4.601  11.538 -0.3760 -0.2249  0.7410
14551TIP3   OH265067   0.106   1.431  13.529 -0.0702  0.2782 -0.4339
14551TIP3    H165068   0.098   1.358  13.590 -1.5353  1.4293  0.8478
14551TIP3    H265069   0.022   1.477  13.535  1.3844  3.1148  0.2163
14552TIP3   OH265070   2.676   0.571   3.662 -0.0035  0.5433  0.9706
14552TIP3    H165071   2.689   0.493   3.608  0.5452  1.2465  0.0642
14552TIP3    H265072   2.745   0.631   3.634 -0.3113  1.2916  1.7845
14553TIP3   OH265073   3.062   0.768   0.698 -0.3328  0.5471 -0.4277
14553TIP3    H165074   2.978   0.784   0.655 -0.0296  0.7732 -0.9471
14553TIP3    H265075   3.099   0.855   0.714 -0.7766  0.5014  1.0048
14554TIP3   OH265076   3.955   0.982  13.953  0.3871 -0.6590  0.3795
14554TIP3    H165077   3.967   0.951  13.863  1.1226  2.5606 -0.7453
14554TIP3    H265078   3.876   1.035  13.951  0.6504 -0.1878  1.5442
14555TIP3   OH265079   6.278   3.812  12.473  0.4775  0.5545 -0.2803
14555TIP3    H165080   6.203   3.838  12.420 -0.6155 -1.3893  0.1834
14555TIP3    H265081   6.244   3.805  12.562  0.6882 -1.9443 -0.3003
14556TIP3   OH265082   6.466   2.863  13.531 -0.2305  0.0332 -0.0692
14556TIP3    H165083   6.520   2.908  13.596  0.7602  1.1575 -1.6002
14556TIP3    H265084   6.504   2.888  13.447 -0.1151 -3.1093 -1.0582
14557TIP3   OH265085   6.299   0.151   0.820 -0.0042  0.3267  0.2750
14557TIP3    H165086   6.307   0.061   0.788  1.6909  0.5962 -0.1439
14557TIP3    H265087   6.246   0.196   0.755 -0.7665 -0.3237  0.4282
14558TIP3   OH265088   2.394   4.760  14.768  0.2204 -0.3114  0.0951
14558TIP3    H165089   2.330   4.689  14.776 -1.4807  1.1433  0.1570
14558TIP3    H265090   2.458   4.743  14.837 -1.3274 -0.6508  1.5271
14559TIP3   OH265091   6.577   3.949   1.555  0.1120  0.6646  0.4243
14559TIP3    H165092   6.592   4.041   1.579  1.2407  0.9301 -1.1487
14559TIP3    H265093   6.495   3.950   1.506  0.7904  1.0832 -0.7464
14560TIP3   OH265094   1.963   4.762   1.227 -0.1599  0.2347 -0.6142
14560TIP3    H165095   1.985   4.805   1.145  1.1000  3.5074  1.2432
14560TIP3    H265096   1.897   4.820   1.267  1.0628  0.1379  1.7007
14561TIP3   OH265097   4.850   5.377   3.265  0.8190 -0.0578 -0.5005
14561TIP3    H165098   4.811   5.367   3.178 -2.5940 -0.6544  0.9294
14561TIP3    H265099   4.822   5.464   3.294  2.4764  0.4072 -0.1928
14562TIP3   OH265100   5.934   3.443  11.976 -0.4719 -0.6263 -0.5526
14562TIP3    H165101   5.996   3.516  11.983  0.6923 -1.4551 -1.7784
14562TIP3    H265102   5.969   3.377  12.035 -2.1172  0.1249  1.4058
14563TIP3   OH265103   6.365   1.400   6.198 -0.0501  0.1197 -0.2843
14563TIP3    H165104   6.336   1.351   6.121  1.5627 -0.1685 -0.7441
14563TIP3    H265105   6.370   1.335   6.268  1.5565 -0.3211 -0.7593
14564TIP3   OH265106   4.228   2.628  15.072  0.2420 -0.2672 -0.2372
14564TIP3    H165107   4.245   2.658  15.161  0.6279 -0.1875 -0.3331
14564TIP3    H265108   4.315   2.610  15.036  0.0085 -4.1633  0.7086
14565TIP3   OH265109   4.120   2.402   0.241 -0.0790  0.0153  0.3971
14565TIP3    H165110   4.203   2.373   0.204  0.0081 -0.2333  0.7824
14565TIP3    H265111   4.103   2.342   0.313 -1.7986 -1.4810 -1.1442
14566TIP3   OH265112   6.165   3.567   0.086  0.0276  0.0261  0.4045
14566TIP3    H165113   6.140   3.618   0.162 -2.4320 -1.0891  0.4542
14566TIP3    H265114   6.100   3.590   0.019 -0.6024 -2.2423  0.1335
14567TIP3   OH265115   0.618   5.228  15.631 -0.3252 -1.5109  0.0302
14567TIP3    H165116   0.555   5.238  15.560 -0.6007  0.2297  0.4869
14567TIP3    H265117   0.644   5.317  15.653  0.9543 -2.1044  1.0602
14568TIP3   OH265118   2.431   5.715   0.433 -0.1751 -0.0235 -0.3614
14568TIP3    H165119   2.510   5.738   0.385  1.2268 -1.5903  1.0467
14568TIP3    H265120   2.417   5.622   0.414 -1.8382  0.2635 -0.7546
14569TIP3   OH265121   3.153   6.303   1.474 -0.1575 -0.0178 -0.9720
14569TIP3    H165122   3.189   6.279   1.559 -0.0172  3.2306  0.0070
14569TIP3    H265123   3.222   6.279   1.411  1.4301  1.0813  0.2802
14570TIP3   OH265124   5.414   3.793  16.633  0.0840 -0.0713  0.0031
14570TIP3    H165125   5.428   3.769  16.725  0.7036 -0.8838 -0.2982
14570TIP3    H265126   5.333   3.845  16.635  0.4376  0.4856  1.0892
14571TIP3   OH265127   2.540   3.275  16.540 -0.3781  0.4763 -0.2852
14571TIP3    H165128   2.492   3.331  16.601  0.0779 -1.3626  1.8973
14571TIP3    H265129   2.632   3.298  16.553 -0.3737  2.0795 -2.4851
14572TIP3   OH265130   4.984   6.073  13.629 -0.3664  0.4004 -0.4577
14572TIP3    H165131   5.030   6.118  13.700 -0.0728  0.5260 -0.7279
14572TIP3    H265132   4.976   5.982  13.659 -3.4717  1.1167  1.3948
14573TIP3   OH265133   4.288   5.246   3.566  0.1579  0.1185  0.2919
14573TIP3    H165134   4.207   5.247   3.515  1.0022 -0.3746 -1.1423
14573TIP3    H265135   4.265   5.199   3.646 -0.5036 -1.9065 -1.0012
14574TIP3   OH265136   2.786   0.660   0.366 -0.1331 -0.4004 -0.5272
14574TIP3    H165137   2.720   0.600   0.401  0.7220 -1.1209 -0.1209
14574TIP3    H265138   2.833   0.608   0.301 -1.1693  0.6710 -2.2282
14575TIP3   OH265139   1.330   1.322   5.159  0.2541  0.2754 -0.3728
14575TIP3    H165140   1.260   1.311   5.094 -1.1698  0.3805  1.0721
14575TIP3    H265141   1.319   1.412   5.190  0.5053  0.0338  0.4514
14576TIP3   OH265142   6.673   5.161   1.142  0.4565 -0.5034  0.3910
14576TIP3    H165143   6.706   5.109   1.069 -1.3864  0.5703 -1.3144
14576TIP3    H265144   6.593   5.117   1.168 -0.1313  0.4071  0.1685
14577TIP3   OH265145   1.759   2.682   1.262  0.0653 -0.2191 -0.0149
14577TIP3    H165146   1.737   2.599   1.305  0.0676 -0.5048 -0.5540
14577TIP3    H265147   1.683   2.701   1.207  0.2903 -0.1443 -0.3033
14578TIP3   OH265148   2.106   3.572  15.763  0.8159 -0.4545  0.1060
14578TIP3    H165149   2.186   3.617  15.734  2.0034 -2.2428  0.4169
14578TIP3    H265150   2.120   3.481  15.737 -1.2813 -0.7711 -0.0761
14579TIP3   OH265151   6.716   5.315   5.256 -0.2468 -0.6593 -0.1396
14579TIP3    H165152   6.639   5.343   5.206 -1.6244 -3.5735  0.1289
14579TIP3    H265153   6.778   5.388   5.247 -3.4832  2.5083  0.8426
14580TIP3   OH265154   2.080   0.913  17.386  0.2099 -0.0431  0.0381
14580TIP3    H165155   2.009   0.933  17.447  0.8948  1.6237  0.3494
14580TIP3    H265156   2.037   0.874  17.310 -0.6951 -1.8393  1.4054
14581TIP3   OH265157   3.338   0.988   2.498 -0.3282  0.0706 -0.5141
14581TIP3    H165158   3.377   1.072   2.475 -0.4515 -0.1688 -1.6187
14581TIP3    H265159   3.301   1.003   2.586  0.3611  0.9176 -0.3479
14582TIP3   OH265160   5.902   4.910  13.101  0.3420  0.6953 -0.3410
14582TIP3    H165161   5.918   5.004  13.109 -1.2662  0.9209  0.5802
14582TIP3    H265162   5.808   4.903  13.085  0.7867 -0.6713 -2.7077
14583TIP3   OH265163   5.525   5.103  12.527 -0.1547  0.0968  0.1871
14583TIP3    H165164   5.614   5.137  12.530 -0.5723  1.2846  0.0540
14583TIP3    H265165   5.535   5.009  12.513  1.0652  0.2798 -0.3079
14584TIP3   OH265166   1.571   1.640   3.950 -0.4328 -0.3493  0.1628
14584TIP3    H165167   1.492   1.650   3.897 -0.3174 -1.7939 -0.3009
14584TIP3    H265168   1.550   1.687   4.032 -1.3263  0.2511 -0.3847
14585TIP3   OH265169   5.544   6.673   2.875 -0.2988 -0.1603  0.3343
14585TIP3    H165170   5.568   6.605   2.812  0.0064  1.6299 -1.6213
14585TIP3    H265171   5.593   6.651   2.954 -0.3624 -2.2875 -0.1647
14586TIP3   OH265172   4.828   3.305  11.026 -0.8604  0.0122 -0.0563
14586TIP3    H165173   4.845   3.335  11.115  1.9234 -1.6261  0.0907
14586TIP3    H265174   4.747   3.254  11.032 -1.1987  0.6717  1.3003
14587TIP3   OH265175   6.718   3.415   3.149  0.4193 -0.1567 -0.0977
14587TIP3    H165176   6.810   3.443   3.149  0.3425  0.2598  1.8219
14587TIP3    H265177   6.705   3.379   3.237 -0.7990 -1.8494 -0.9320
14588TIP3   OH265178   0.068   2.310  15.714  0.3230 -0.3206  0.7075
14588TIP3    H165179   0.033   2.301  15.803 -1.2547  2.4151  0.5012
14588TIP3    H265180   0.163   2.307  15.725  0.1402 -1.4966  2.2661
14589TIP3   OH265181   3.800   1.461   4.766  0.0175 -0.0134 -0.0563
14589TIP3    H165182   3.807   1.454   4.671 -1.8363 -2.6708 -0.1065
14589TIP3    H265183   3.785   1.555   4.782 -2.6347  0.1669 -2.7065
14590TIP3   OH265184   2.815   5.779  15.954 -0.2499 -0.0965  0.2070
14590TIP3    H165185   2.755   5.804  15.883  0.5420  0.2604 -0.3594
14590TIP3    H265186   2.830   5.861  16.002 -0.3530 -0.2235  0.4577
14591TIP3   OH265187   4.161   0.657   2.072  0.3817  0.5084  0.0117
14591TIP3    H165188   4.184   0.627   1.984  0.2816  0.7584 -0.1036
14591TIP3    H265189   4.072   0.691   2.062  0.1029 -0.1039  0.3660
14592TIP3   OH265190   3.037   2.251  11.216  0.0356 -0.1558  0.0791
14592TIP3    H165191   3.104   2.185  11.233 -0.5109 -0.3596  1.6511
14592TIP3    H265192   3.003   2.274  11.303 -0.0476  1.9492 -0.4532
14593TIP3   OH265193   4.476   6.513  13.679  0.3395  0.1965  0.2931
14593TIP3    H165194   4.537   6.582  13.653  2.4962 -1.7579 -0.1898
14593TIP3    H265195   4.458   6.531  13.772 -0.6789  2.4070 -0.2528
14594TIP3   OH265196   6.152   5.568  14.721  0.1308 -0.8464  0.1985
14594TIP3    H165197   6.164   5.502  14.653 -1.8339 -0.5518 -0.5048
14594TIP3    H265198   6.124   5.647  14.673  0.2386 -0.1650  1.2223
14595TIP3   OH265199   0.602   5.585   5.034  0.3589 -0.0400 -0.2444
14595TIP3    H165200   0.587   5.597   5.128 -1.2391 -0.6562 -0.3893
14595TIP3    H265201   0.607   5.674   4.999  1.8671  0.2132  0.5174
14596TIP3   OH265202   0.947   0.269  11.591 -0.0692 -0.1582  0.3715
14596TIP3    H165203   0.862   0.279  11.634  0.3357 -0.9394  1.4055
14596TIP3    H265204   0.928   0.280  11.498 -1.2296  0.0786  0.6138
14597TIP3   OH265205   2.010   0.290   4.173 -0.3059  0.2858 -0.3366
14597TIP3    H165206   2.056   0.348   4.234  1.4261  0.2800 -1.5971
14597TIP3    H265207   2.073   0.270   4.105 -2.1441  0.1883 -2.1161
14598TIP3   OH265208   1.154   5.942  13.349  0.0599 -0.0701 -0.1920
14598TIP3    H165209   1.167   5.940  13.254 -2.4127  0.0191 -0.5981
14598TIP3    H265210   1.142   6.035  13.370 -1.0030 -0.2189 -0.0793
14599TIP3   OH265211   2.218   2.268   1.126  0.3184 -0.3998 -0.3289
14599TIP3    H165212   2.129   2.231   1.122  0.6694 -1.2517 -0.4888
14599TIP3    H265213   2.218   2.336   1.059 -1.2042  1.9041  1.8121
14600TIP3   OH265214   4.274   4.022  12.206  0.5911  0.4342 -0.0552
14600TIP3    H165215   4.318   4.026  12.291  0.3215  1.3627  0.0505
14600TIP3    H265216   4.328   4.077  12.148  0.1438  0.7485 -0.1814
14601TIP3   OH265217   5.032   1.952   4.799 -0.0195 -0.3089  0.4000
14601TIP3    H165218   5.090   2.026   4.782 -0.2052 -0.3126 -0.2745
14601TIP3    H265219   5.041   1.896   4.722  0.2450 -1.0775  0.9790
14602TIP3   OH265220   0.823   2.713  13.756  0.1396 -0.0882 -0.0512
14602TIP3    H165221   0.866   2.708  13.841 -0.4554  0.3623  0.2813
14602TIP3    H265222   0.764   2.788  13.763  0.2462  0.0816 -0.9361
14603TIP3   OH265223   3.138   6.188  11.574  0.2955  0.8255 -0.5120
14603TIP3    H165224   3.187   6.269  11.567 -1.6856  1.9969 -1.8636
14603TIP3    H265225   3.052   6.215  11.607  0.6053 -1.2028  2.3361
14604TIP3   OH265226   4.909   6.391  11.245 -0.0967 -0.6312 -0.2213
14604TIP3    H165227   4.824   6.434  11.235  1.5447  2.4637 -2.0322
14604TIP3    H265228   4.932   6.407  11.337 -1.3773 -1.4571  0.2783
14605TIP3   OH265229   5.202   1.420   1.932  0.0523  0.2566 -0.3585
14605TIP3    H165230   5.129   1.416   1.871 -1.8115 -1.3581  1.8053
14605TIP3    H265231   5.248   1.500   1.910 -2.5168  1.4711 -1.6720
14606TIP3   OH265232   5.088   0.064  17.120 -0.6942  0.6463  0.1751
14606TIP3    H165233   5.123   0.153  17.117 -0.6134  0.7219  1.9334
14606TIP3    H265234   4.995   0.074  17.100 -0.8142  1.2334  0.9868
14607TIP3   OH265235   3.791   2.714   0.800 -0.5477  0.0488  0.1918
14607TIP3    H165236   3.712   2.741   0.753 -0.7252  2.0438  1.4772
14607TIP3    H265237   3.759   2.658   0.871 -0.8488  0.8276  0.6923
14608TIP3   OH265238   6.548   6.643   0.345  0.0102  0.1085 -0.7738
14608TIP3    H165239   6.541   6.710   0.412 -0.8617 -0.1166 -0.6220
14608TIP3    H265240   6.615   6.675   0.285 -0.8790  1.4490 -1.0792
14609TIP3   OH265241   2.975   2.486  14.879  0.6285 -0.5587  0.4553
14609TIP3    H165242   2.993   2.472  14.972 -0.3482 -1.0132  0.5904
14609TIP3    H265243   2.983   2.399  14.840  2.7419 -0.1035 -0.2136
14610TIP3   OH265244   5.053   3.297   6.323  0.0916 -0.1650 -0.1846
14610TIP3    H165245   4.975   3.258   6.363 -0.2133  0.2124 -0.4036
14610TIP3    H265246   5.084   3.231   6.262 -0.3011 -0.1472 -0.4021
14611TIP3   OH265247   6.172   0.685  10.771 -0.2083 -0.1080  0.1670
14611TIP3    H165248   6.091   0.635  10.777 -0.6783  0.3534 -1.6797
14611TIP3    H265249   6.236   0.634  10.821 -1.4790 -0.7880  1.1479
14612TIP3   OH265250   6.266   2.382   1.435 -0.1829  0.3609 -0.3750
14612TIP3    H165251   6.345   2.367   1.488 -0.5925  2.1856  0.8512
14612TIP3    H265252   6.290   2.455   1.378 -0.5963  0.1306 -0.8422
14613TIP3   OH265253   5.905   6.668  15.456  0.1314 -0.4989  0.1380
14613TIP3    H165254   5.826   6.615  15.446  0.0903 -0.3972 -0.0730
14613TIP3    H265255   5.905   6.693  15.549 -0.1063 -0.4657  0.1292
14614TIP3   OH265256   2.561   3.227   1.371 -0.2470  0.3607  0.9237
14614TIP3    H165257   2.552   3.139   1.408  0.9039 -0.0669  0.2443
14614TIP3    H265258   2.498   3.280   1.419  0.1934 -0.4773  2.5035
14615TIP3   OH265259   0.724   5.093  15.984  0.2196  0.3195 -0.3005
14615TIP3    H165260   0.816   5.075  15.966  0.0292 -1.2859  0.2035
14615TIP3    H265261   0.696   5.023  16.044 -1.0876  1.3006  0.2976
14616TIP3   OH265262   2.942   3.339  15.446 -0.0156  0.0783 -0.1859
14616TIP3    H165263   2.959   3.418  15.498  1.0304 -0.7128  0.7154
14616TIP3    H265264   2.847   3.332  15.445 -0.0946  0.8413  0.5214
14617TIP3   OH265265   0.752   0.361   2.246  0.1560  0.2419 -0.2754
14617TIP3    H165266   0.709   0.335   2.165 -1.7489  2.7820 -0.2330
14617TIP3    H265267   0.766   0.280   2.294 -2.1701 -1.0049 -1.5363
14618TIP3   OH265268   4.426   3.306  16.928 -0.2869  0.5883 -0.2067
14618TIP3    H165269   4.370   3.356  16.869 -0.3481  2.3064  1.1989
14618TIP3    H265270   4.508   3.294  16.879 -0.2516  2.1691 -0.6075
14619TIP3   OH265271   0.950   6.738   1.414 -0.3239 -0.1141  0.6898
14619TIP3    H165272   0.873   6.715   1.361 -0.7649  1.9220  0.3809
14619TIP3    H265273   0.940   6.685   1.493 -1.3417 -0.8607  0.1002
14620TIP3   OH265274   0.220   1.481  14.641 -0.4673  0.2088 -0.4336
14620TIP3    H165275   0.128   1.502  14.624  0.0544  2.5178 -0.7195
14620TIP3    H265276   0.267   1.562  14.621  1.4268 -0.2963  1.6382
14621TIP3   OH265277   4.432   6.482  10.373  0.7131  0.2272  0.4337
14621TIP3    H165278   4.522   6.501  10.400  0.6668  0.8489  0.1528
14621TIP3    H265279   4.435   6.391  10.342  1.3132  0.3572  0.1072
14622TIP3   OH265280   4.972   2.296  11.939  0.1108 -0.0630 -0.1314
14622TIP3    H165281   4.933   2.275  12.024  2.0285 -0.0563  0.7993
14622TIP3    H265282   4.972   2.212  11.892  1.1632 -0.6246  0.8114
14623TIP3   OH265283   1.285   4.292   0.499 -0.3996 -0.1870 -0.1424
14623TIP3    H165284   1.199   4.271   0.462 -0.1975  0.6609 -1.1157
14623TIP3    H265285   1.337   4.213   0.485 -0.9815 -0.6831  0.3867
14624TIP3   OH265286   5.550   3.279  14.774 -0.2827  0.5131  0.3180
14624TIP3    H165287   5.545   3.188  14.802  2.5983  0.8631  2.4481
14624TIP3    H265288   5.631   3.284  14.723  0.1225  2.0194  1.0384
14625TIP3   OH265289   1.639   0.539   1.914 -0.1343 -0.0897 -0.3062
14625TIP3    H165290   1.615   0.626   1.883 -0.1824 -0.2956 -0.8513
14625TIP3    H265291   1.582   0.525   1.991 -1.1110 -0.1949 -1.0283
14626TIP3   OH265292   5.184   2.914   5.740  0.2924 -0.3549 -0.1995
14626TIP3    H165293   5.231   2.929   5.821 -1.2821  1.5312  0.4566
14626TIP3    H265294   5.186   2.819   5.727  2.7904 -0.4821  0.6080
14627TIP3   OH265295   6.455   3.496  16.904  0.4314 -0.3890 -0.1756
14627TIP3    H165296   6.465   3.445  16.823 -1.8619 -0.6311 -0.3825
14627TIP3    H265297   6.510   3.451  16.968 -0.6202 -2.4938 -0.6470
14628TIP3   OH265298   1.551   2.782   6.020  0.3300 -0.2031 -0.2159
14628TIP3    H165299   1.477   2.838   6.042  0.2198 -0.4847  0.1342
14628TIP3    H265300   1.565   2.728   6.098 -0.2227 -1.3951 -0.9235
14629TIP3   OH265301   1.402   3.706  14.149  0.1774  0.0006  0.3927
14629TIP3    H165302   1.359   3.706  14.235 -1.4028  1.0355 -0.3436
14629TIP3    H265303   1.410   3.799  14.127  1.8474 -0.1992 -0.0030
14630TIP3   OH265304   3.127   3.515   3.735 -0.6035  0.0016  0.2464
14630TIP3    H165305   3.059   3.544   3.796 -0.6664  0.4720 -0.0468
14630TIP3    H265306   3.086   3.444   3.685 -0.1975 -1.1537  1.4948
14631TIP3   OH265307   3.534   2.251   0.724 -0.5980 -0.1550  0.1028
14631TIP3    H165308   3.467   2.228   0.788 -1.0578  1.1884  0.1299
14631TIP3    H265309   3.492   2.315   0.667 -0.6241 -2.2342 -2.3916
14632TIP3   OH265310   6.422   2.870  14.401 -0.2230 -0.1371 -0.0512
14632TIP3    H165311   6.446   2.929  14.329 -2.7114 -1.8364 -2.4573
14632TIP3    H265312   6.448   2.783  14.371 -2.2537 -1.0228  0.5601
14633TIP3   OH265313   4.237   5.637   3.241  0.5232 -0.3138  0.6851
14633TIP3    H165314   4.232   5.729   3.268 -0.8260  0.0160 -0.5675
14633TIP3    H265315   4.154   5.600   3.268  0.5429 -0.8385  0.0389
14634TIP3   OH265316   2.874   0.703   3.514  0.0167 -0.7199 -0.1762
14634TIP3    H165317   2.895   0.705   3.420  0.3512 -1.7775 -0.1387
14634TIP3    H265318   2.950   0.742   3.556 -0.1093 -0.2937 -0.3350
14635TIP3   OH265319   4.780   2.425  11.262  0.0892  0.3801  0.4076
14635TIP3    H165320   4.690   2.454  11.277 -0.1031 -0.5290  1.0944
14635TIP3    H265321   4.781   2.390  11.173  0.1330  1.7101 -0.1431
14636TIP3   OH265322   4.709   2.742   5.352  0.5203 -1.1436  0.6805
14636TIP3    H165323   4.639   2.681   5.376  1.8852 -2.5108  1.3416
14636TIP3    H265324   4.788   2.704   5.390  1.6599  0.2999 -0.1459
14637TIP3   OH265325   1.219   5.298   2.528  0.3353 -0.2663  0.2731
14637TIP3    H165326   1.194   5.258   2.445  0.6621  0.1827 -0.0415
14637TIP3    H265327   1.183   5.239   2.594  1.2229 -1.3801 -0.1850
14638TIP3   OH265328   4.090   3.159  15.503  0.9578 -0.1996 -0.9566
14638TIP3    H165329   4.118   3.245  15.474  0.1463  0.3562 -0.1492
14638TIP3    H265330   4.050   3.174  15.589 -1.0705 -1.0435 -1.6829
14639TIP3   OH265331   3.758   5.431  13.935 -0.3564 -0.1303 -0.3783
14639TIP3    H165332   3.698   5.375  13.885 -3.8784  2.0122  1.0672
14639TIP3    H265333   3.730   5.421  14.026 -1.4486  3.9699 -0.0498
14640TIP3   OH265334   4.140   5.910   3.361  0.1612  0.6443 -0.0717
14640TIP3    H165335   4.059   5.884   3.319  1.8225 -1.2148 -2.3966
14640TIP3    H265336   4.155   6.000   3.331 -1.6235  1.5615  1.5371
14641TIP3   OH265337   2.573   6.629  13.996  0.1534 -0.5027 -0.4931
14641TIP3    H165338   2.622   6.549  14.016 -0.0167  0.1066  3.0366
14641TIP3    H265339   2.639   6.698  13.997 -0.1051 -0.2543 -0.5732
14642TIP3   OH265340   3.313   2.057  17.405 -0.4419 -0.9985  0.0570
14642TIP3    H165341   3.271   2.068  17.320  0.9373 -0.2065 -0.5639
14642TIP3    H265342   3.395   2.012  17.385  1.1707  1.4811  0.5129
14643TIP3   OH265343   1.774   3.726   0.757 -0.1279 -0.2391 -0.2304
14643TIP3    H165344   1.725   3.736   0.675 -0.3348  0.6626  0.0018
14643TIP3    H265345   1.740   3.794   0.814 -0.2785 -1.1188  0.7615
14644TIP3   OH265346   5.412   1.298  14.235  0.2469  0.2753 -0.0329
14644TIP3    H165347   5.382   1.293  14.326 -0.6876 -1.3300 -0.4010
14644TIP3    H265348   5.502   1.330  14.242  0.2205  0.1040  1.4571
14645TIP3   OH265349   5.332   4.783   1.017 -0.1218 -0.7638 -0.1354
14645TIP3    H165350   5.394   4.710   1.010  0.0120 -0.7720  0.9536
14645TIP3    H265351   5.336   4.809   1.109 -0.0074  0.7743 -0.5494
14646TIP3   OH265352   5.441   0.224  10.606 -0.1242  0.2842  0.7929
14646TIP3    H165353   5.351   0.194  10.596 -0.4091  0.9430  1.2720
14646TIP3    H265354   5.455   0.285  10.534  0.3420 -0.7011  0.0224
14647TIP3   OH265355   6.158   3.522  16.661 -0.1840  0.0821  0.0015
14647TIP3    H165356   6.147   3.488  16.750 -0.8307  0.2165 -0.0232
14647TIP3    H265357   6.109   3.604  16.661  0.5018  0.5071 -0.2447
14648TIP3   OH265358   0.499   1.513  13.490  0.4399  0.1275  0.1467
14648TIP3    H165359   0.476   1.492  13.581  2.2384 -2.1238  0.1591
14648TIP3    H265360   0.448   1.452  13.437  0.1763  0.7382 -0.3133
14649TIP3   OH265361   1.855   0.114  15.414 -0.0187  0.5148 -0.1192
14649TIP3    H165362   1.861   0.182  15.346 -0.7645  0.0483 -0.6684
14649TIP3    H265363   1.763   0.089  15.414  0.3492 -0.9156 -0.3307
14650TIP3   OH265364   0.213   0.683   0.824 -0.4174 -0.3547 -0.2833
14650TIP3    H165365   0.277   0.626   0.866 -1.3799 -2.0644 -1.0598
14650TIP3    H265366   0.266   0.742   0.769  0.5804 -0.5954  0.3875
14651TIP3   OH265367   5.120   1.728   3.141 -0.2386  0.3217 -0.0295
14651TIP3    H165368   5.146   1.757   3.229 -2.0093 -0.0821  0.6720
14651TIP3    H265369   5.057   1.794   3.112 -0.5309 -0.1611 -0.5112
14652TIP3   OH265370   0.695   0.070   4.646 -0.1139  0.3217 -0.2620
14652TIP3    H165371   0.678  -0.024   4.640 -0.3725  0.2981  0.6545
14652TIP3    H265372   0.608   0.110   4.640 -0.1790  0.4002  1.0335
14653TIP3   OH265373   0.929   0.950   2.055  0.2086 -0.2954 -0.2282
14653TIP3    H165374   0.987   1.024   2.072  0.4111 -0.1300 -1.5418
14653TIP3    H265375   0.864   0.984   1.993 -2.1708 -0.0836  2.2262
14654TIP3   OH265376   3.675   3.304   3.565 -0.0332 -0.3561 -0.4392
14654TIP3    H165377   3.591   3.269   3.596  1.0064 -0.9312  1.9335
14654TIP3    H265378   3.707   3.358   3.638  0.3205  2.3661 -2.4355
14655TIP3   OH265379   3.799   1.934  13.880  0.3794 -0.0622  0.7990
14655TIP3    H165380   3.871   1.957  13.939  0.8939  0.1978  0.0910
14655TIP3    H265381   3.839   1.936  13.793 -0.8353  1.6268  0.2319
14656TIP3   OH265382   2.993   5.723  16.619  0.2743  0.2588  0.0349
14656TIP3    H165383   2.934   5.759  16.686 -0.2643 -0.3059 -0.1313
14656TIP3    H265384   2.946   5.647  16.584  1.5160 -0.7864  0.5703
14657TIP3   OH265385   6.419   2.133   4.225  0.0243 -0.2672 -0.6861
14657TIP3    H165386   6.373   2.049   4.221  0.1240 -0.2745 -2.5014
14657TIP3    H265387   6.431   2.158   4.133 -0.0290  1.7517 -0.1850
14658TIP3   OH265388   5.560   6.617  12.902 -0.2636 -0.1900  0.2641
14658TIP3    H165389   5.492   6.576  12.955 -0.2707 -1.0432 -0.3764
14658TIP3    H265390   5.586   6.694  12.952 -0.9470 -0.4383  1.0322
14659TIP3   OH265391   2.282   0.777  12.814  0.1829 -0.3753  0.2093
14659TIP3    H165392   2.274   0.753  12.722 -2.8381 -1.1379  0.5754
14659TIP3    H265393   2.238   0.862  12.820 -1.2916 -1.1700  1.2028
14660TIP3   OH265394   4.177   2.007   3.660 -0.2204  0.2255  0.3696
14660TIP3    H165395   4.263   1.964   3.658  0.5614  1.5627  2.2420
14660TIP3    H265396   4.146   2.003   3.570  1.0661 -1.7103 -0.0628
14661TIP3   OH265397   5.799   1.572  17.109  0.2628 -0.6898 -0.1488
14661TIP3    H165398   5.784   1.629  17.185  0.0109  2.3277 -2.2589
14661TIP3    H265399   5.889   1.591  17.083  0.7101 -2.4953 -0.0624
14662TIP3   OH265400   2.128   6.169  16.703  0.0840 -0.3027  0.0426
14662TIP3    H165401   2.052   6.213  16.743 -0.8703 -1.5350 -0.3333
14662TIP3    H265402   2.198   6.234  16.706 -1.5418  1.6680 -1.4885
14663TIP3   OH265403   6.743   5.716  17.105 -0.7443  0.4260 -1.0313
14663TIP3    H165404   6.748   5.708  17.010 -0.7751 -1.1738 -0.9166
14663TIP3    H265405   6.801   5.790  17.126  1.9666 -1.2775 -2.0267
14664TIP3   OH265406   4.446   6.295  15.439  0.3795 -0.0610 -0.4359
14664TIP3    H165407   4.408   6.218  15.397  1.0149 -0.5014 -0.2136
14664TIP3    H265408   4.445   6.274  15.533  1.4274 -0.2060 -0.4468
14665TIP3   OH265409   4.631   4.727   2.280 -0.2133  0.1429 -0.2836
14665TIP3    H165410   4.660   4.673   2.207 -1.5857 -0.2082 -0.5972
14665TIP3    H265411   4.639   4.671   2.357 -1.7457 -0.5998 -0.6226
14666TIP3   OH265412   2.057   1.235   5.476  0.1130 -0.5123  0.2114
14666TIP3    H165413   1.969   1.240   5.514  1.1095 -2.4802  3.0921
14666TIP3    H265414   2.063   1.313   5.420 -3.0992  0.1825  0.6185
14667TIP3   OH265415   4.631   5.342  16.873  0.2684  0.3101 -0.0169
14667TIP3    H165416   4.711   5.290  16.883  0.4891  0.9053  1.6155
14667TIP3    H265417   4.593   5.346  16.960 -0.6820  1.4077 -0.4516
14668TIP3   OH265418   6.531   4.994  13.926 -0.2229  0.2238 -0.2712
14668TIP3    H165419   6.496   4.933  13.861  0.5759 -0.3278 -0.1959
14668TIP3    H265420   6.559   4.938  13.999  1.9755  0.4951 -0.8480
14669TIP3   OH265421   5.727   1.479   0.838  0.0758 -0.5679  0.3269
14669TIP3    H165422   5.808   1.528   0.853 -0.4610 -0.2945  2.6427
14669TIP3    H265423   5.715   1.482   0.743  2.6696 -0.4630 -0.0755
14670TIP3   OH265424   1.993   0.482   0.348 -0.2855  0.2782  0.6258
14670TIP3    H165425   1.903   0.515   0.359 -1.2388 -1.9323  0.1316
14670TIP3    H265426   2.006   0.480   0.254  0.3790  0.7519  0.7001
14671TIP3   OH265427   1.370   5.149  11.705 -0.0328 -0.1076 -0.3593
14671TIP3    H165428   1.421   5.212  11.756  0.2827 -0.5349 -0.1362
14671TIP3    H265429   1.280   5.161  11.735  0.1271 -0.2392  0.1791
14672TIP3   OH265430   2.971   0.602  10.858 -0.3801  0.1774  0.1253
14672TIP3    H165431   2.989   0.649  10.776  0.4131  0.2446  0.3387
14672TIP3    H265432   2.887   0.559  10.842  0.6928 -1.4683 -1.4901
14673TIP3   OH265433   4.999   4.759  15.984  0.1920  0.4474  0.1003
14673TIP3    H165434   5.082   4.794  15.951  0.2839 -0.4435 -0.6540
14673TIP3    H265435   5.025   4.700  16.055  0.0703  1.4893  1.0321
14674TIP3   OH265436   1.296   3.064  11.449 -0.5956  0.2311  0.6215
14674TIP3    H165437   1.217   3.024  11.486 -0.2267 -0.4995  0.6410
14674TIP3    H265438   1.351   3.083  11.525  0.1406 -1.2226  0.4921
14675TIP3   OH265439   6.476   3.569   3.153  0.2367 -0.0384 -0.1430
14675TIP3    H165440   6.499   3.612   3.070  0.3978 -0.8451 -0.5239
14675TIP3    H265441   6.549   3.511   3.172  0.4993  0.6109  0.9174
14676TIP3   OH265442   0.218   5.855   0.620 -0.2081  0.0396 -0.2135
14676TIP3    H165443   0.196   5.890   0.706 -2.2446  0.4152 -0.8358
14676TIP3    H265444   0.262   5.928   0.575  1.1186 -0.2463  0.5501
14677TIP3   OH265445   6.398   6.206  17.234  0.2463  0.1112  0.0887
14677TIP3    H165446   6.381   6.257  17.155 -1.3318 -2.3444 -1.3258
14677TIP3    H265447   6.326   6.227  17.293 -1.0095 -1.1333 -0.9196
14678TIP3   OH265448   2.675   3.613  11.292  0.1434  0.4460 -0.0927
14678TIP3    H165449   2.606   3.615  11.358 -1.2652  0.8268 -1.4982
14678TIP3    H265450   2.705   3.703  11.285  0.0951  0.4563 -0.1686
14679TIP3   OH265451   6.532   0.909   0.453  0.6309  0.4597  0.3899
14679TIP3    H165452   6.610   0.910   0.508  0.6790 -0.2088  0.3449
14679TIP3    H265453   6.469   0.966   0.498  0.8307  0.2866  0.8922
14680TIP3   OH265454   3.129   4.772   3.724  0.4306  0.0632  0.2482
14680TIP3    H165455   3.185   4.801   3.652 -1.9576 -1.2583 -2.3140
14680TIP3    H265456   3.166   4.687   3.750  1.0182  0.3257  0.2850
14681TIP3   OH265457   3.597   4.111  12.715 -0.2398  0.2688 -0.3165
14681TIP3    H165458   3.543   4.163  12.775 -0.1784  0.2993 -0.2879
14681TIP3    H265459   3.551   4.026  12.710 -1.3769  0.9263 -1.8324
14682TIP3   OH265460   5.664   4.177  14.291  0.2502  0.2997 -0.5988
14682TIP3    H165461   5.703   4.091  14.308 -1.3079 -0.8744 -2.4408
14682TIP3    H265462   5.591   4.184  14.352  0.2386  0.2012 -0.6014
14683TIP3   OH265463   3.176   0.706   2.620  0.6243  0.5134 -0.0667
14683TIP3    H165464   3.244   0.704   2.688  1.6721  1.4892 -1.0456
14683TIP3    H265465   3.117   0.777   2.647 -0.1057 -0.3999  0.8368
14684TIP3   OH265466   6.248   1.273   4.160  0.3192 -0.9865 -0.0951
14684TIP3    H165467   6.277   1.282   4.069  0.1731 -1.6809 -0.2177
14684TIP3    H265468   6.164   1.228   4.153 -0.7568  0.8880  0.2607
14685TIP3   OH265469   3.553   0.111  16.464  0.0354 -0.7924  0.4589
14685TIP3    H165470   3.527   0.171  16.534  0.7191  0.4316 -0.2886
14685TIP3    H265471   3.536   0.161  16.383  2.1112 -0.9516 -0.1425
14686TIP3   OH265472   2.634   4.794  12.324  0.5083  0.0984  0.1347
14686TIP3    H165473   2.726   4.817  12.339  1.4593 -1.4710 -2.6874
14686TIP3    H265474   2.630   4.700  12.342  0.0816 -0.3416 -2.0119
14687TIP3   OH265475   5.801   6.694  13.527 -0.5681  0.3569 -0.5814
14687TIP3    H165476   5.773   6.631  13.593 -0.8676 -0.0114 -1.0459
14687TIP3    H265477   5.741   6.767  13.537  0.4972  1.1021  0.7314
14688TIP3   OH265478   0.836   4.503   5.612  0.0190  0.1441  0.0234
14688TIP3    H165479   0.760   4.463   5.653 -0.0893  1.0783  0.7756
14688TIP3    H265480   0.883   4.545   5.684  2.0083 -1.5410 -0.1910
14689TIP3   OH265481   1.801   1.674   5.802  0.4089 -0.6365 -0.4393
14689TIP3    H165482   1.788   1.703   5.892  2.1295  0.8912 -0.6091
14689TIP3    H265483   1.842   1.588   5.810  2.4262  0.3341  0.3625
14690TIP3   OH265484   0.402   2.954  10.733 -0.4569  0.5643 -0.4765
14690TIP3    H165485   0.436   2.866  10.713 -0.5451  0.3329  0.3883
14690TIP3    H265486   0.382   2.991  10.647  2.7761  1.0346 -1.1504
14691TIP3   OH265487   4.297   6.163  11.593  0.6410 -0.6187 -0.1783
14691TIP3    H165488   4.235   6.106  11.547 -0.3948 -0.3875  0.8947
14691TIP3    H265489   4.356   6.102  11.638  0.0971 -0.8523  0.2318
14692TIP3   OH265490   1.340   1.486   4.547 -0.3833 -0.6006  0.2844
14692TIP3    H165491   1.337   1.580   4.566 -0.2504 -0.6365  0.4815
14692TIP3    H265492   1.248   1.460   4.544 -0.4168 -0.4937  0.3749
14693TIP3   OH265493   3.544   0.789  14.210 -0.0611 -0.1751  0.0796
14693TIP3    H165494   3.521   0.744  14.129  0.4108  1.4605 -0.9969
14693TIP3    H265495   3.599   0.727  14.257 -0.3087 -1.1350 -0.8588
14694TIP3   OH265496   3.741   3.401  12.495  0.2459  0.1604  0.4653
14694TIP3    H165497   3.765   3.390  12.403  1.6593 -1.8949  1.0151
14694TIP3    H265498   3.817   3.444  12.535 -0.0462  0.3443  0.8291
14695TIP3   OH265499   4.217   2.168  16.065  0.0709 -0.3630  0.0181
14695TIP3    H165500   4.200   2.261  16.053  0.6128 -0.2866 -0.1900
14695TIP3    H265501   4.209   2.131  15.977  2.2180 -0.1078 -0.3393
14696TIP3   OH265502   1.635   5.878   2.990  0.4394 -0.0961 -0.4673
14696TIP3    H165503   1.670   5.790   3.004 -0.2604 -0.1685  0.9661
14696TIP3    H265504   1.546   5.874   3.023  0.2552  1.0515 -0.7892
14697TIP3   OH265505   2.238   0.902  17.058 -0.1375 -0.0739  0.3851
14697TIP3    H165506   2.230   0.996  17.078 -0.0621  0.1774 -0.7043
14697TIP3    H265507   2.277   0.864  17.138  0.5474  0.9507  0.5639
14698TIP3   OH265508   4.820   6.148   5.046  0.6662  0.6234  0.0398
14698TIP3    H165509   4.887   6.106   4.992  1.5697  0.8973  0.9133
14698TIP3    H265510   4.746   6.087   5.046  0.9197  0.3027 -0.9192
14699TIP3   OH265511   4.458   5.019   0.806  0.3099 -0.5192 -0.2950
14699TIP3    H165512   4.538   5.061   0.838 -0.0002 -0.6520  0.6795
14699TIP3    H265513   4.446   4.943   0.863 -1.5929  0.5936  0.9299
14700TIP3   OH265514   0.705   0.122  16.445 -0.6133 -0.3625  0.3802
14700TIP3    H165515   0.738   0.042  16.405 -0.6743 -0.9038  1.3761
14700TIP3    H265516   0.733   0.192  16.386  0.5703 -0.9940  0.1666
14701TIP3   OH265517   2.290   3.542   5.002  0.4777  0.0298 -0.2158
14701TIP3    H165518   2.232   3.469   5.026  1.5021 -0.9157 -0.5405
14701TIP3    H265519   2.248   3.581   4.925  0.9495 -1.5202 -1.3106
14702TIP3   OH265520   0.912   5.099  13.006  0.4040 -0.3253  0.2438
14702TIP3    H165521   0.946   5.078  13.093  1.2895  0.2295  0.0508
14702TIP3    H265522   0.960   5.040  12.948 -0.5375 -1.0366  0.1671
14703TIP3   OH265523   4.302   6.626  17.269 -0.5365 -0.2215 -0.1021
14703TIP3    H165524   4.225   6.629  17.326 -1.4932 -0.5023 -1.3250
14703TIP3    H265525   4.292   6.702  17.212  0.1236 -0.2383 -0.2444
14704TIP3   OH265526   2.855   1.401   0.978  0.4976  0.1777 -0.2985
14704TIP3    H165527   2.878   1.416   1.070 -1.6793  0.2421  0.2863
14704TIP3    H265528   2.932   1.432   0.929  0.8485  2.2272  1.3849
14705TIP3   OH265529   2.781   3.550   1.034 -0.4007  0.1741 -0.1332
14705TIP3    H165530   2.849   3.506   0.983  0.4404  0.9476  0.3007
14705TIP3    H265531   2.740   3.480   1.085  0.3979 -0.2345 -0.0314
14706TIP3   OH265532   3.512   4.048  13.684  0.0481 -0.4383  0.0756
14706TIP3    H165533   3.440   4.111  13.684 -1.1830 -1.7688  0.8673
14706TIP3    H265534   3.590   4.100  13.701 -1.0793  0.7545  1.9682
14707TIP3   OH265535   1.683   3.796   6.046  0.3129  0.2542 -0.0723
14707TIP3    H165536   1.678   3.748   6.129 -1.3478 -0.6814 -0.6556
14707TIP3    H265537   1.599   3.841   6.040  0.6755  0.8358 -0.9458
14708TIP3   OH265538   0.286   6.572  14.884 -0.1777  0.0748 -0.9532
14708TIP3    H165539   0.301   6.478  14.892 -0.1614  0.1771  0.7378
14708TIP3    H265540   0.336   6.598  14.807  1.2505 -1.0311 -0.4479
14709TIP3   OH265541   5.624   1.923  17.007  0.4268 -0.5781 -0.2494
14709TIP3    H165542   5.604   1.830  16.992  0.3360 -0.4365 -1.0636
14709TIP3    H265543   5.716   1.924  17.032  0.0558 -1.0180  1.2308
14710TIP3   OH265544   5.979   1.589   5.516 -0.1818 -0.0495  0.3214
14710TIP3    H165545   5.919   1.662   5.526  1.1089  0.9567  1.0084
14710TIP3    H265546   6.045   1.602   5.584  1.8233 -0.1035 -1.4918
14711TIP3   OH265547   6.487   6.498  15.324  0.1766  0.1807  0.1901
14711TIP3    H165548   6.508   6.497  15.417 -2.2240  2.3807  0.8816
14711TIP3    H265549   6.545   6.564  15.286 -0.5129  1.0592  0.6420
14712TIP3   OH265550   4.348   5.273   0.272 -0.0769 -0.0023  0.0386
14712TIP3    H165551   4.280   5.211   0.300  0.8751 -0.8836  0.4986
14712TIP3    H265552   4.429   5.223   0.278  0.6575  1.1280 -0.1647
14713TIP3   OH265553   3.620   5.939   5.768  0.1249 -0.0194 -0.1364
14713TIP3    H165554   3.652   6.027   5.786 -1.2119  0.4052  0.2443
14713TIP3    H265555   3.662   5.884   5.835  1.2727  0.2294 -0.6163
14714TIP3   OH265556   1.768   2.449  12.537  0.4788  0.0533 -0.1712
14714TIP3    H165557   1.862   2.428  12.533  0.5562  0.5036 -2.3435
14714TIP3    H265558   1.730   2.382  12.592  1.7873 -1.4084 -0.9744
14715TIP3   OH265559   2.521   3.989   0.089 -0.5721  0.3988  0.1934
14715TIP3    H165560   2.607   4.029   0.077  0.3548 -1.6939 -0.6096
14715TIP3    H265561   2.460   4.063   0.084  1.1652  2.0473  1.5041
14716TIP3   OH265562   3.447   3.840   0.390  0.3856  0.0457  0.5089
14716TIP3    H165563   3.377   3.809   0.332  1.1770 -3.3281  1.1682
14716TIP3    H265564   3.505   3.891   0.332 -1.3113  0.8587 -0.5499
14717TIP3   OH265565   0.141   1.284  14.008 -0.6271  0.7683 -0.1819
14717TIP3    H165566   0.168   1.253  13.922 -1.1340  1.2306 -0.5173
14717TIP3    H265567   0.045   1.291  14.002 -0.5343  2.3227 -0.0997
14718TIP3   OH265568   4.367   1.740  17.371 -0.6035 -0.9932  0.4141
14718TIP3    H165569   4.335   1.828  17.352  2.0945 -0.0420 -0.0898
14718TIP3    H265570   4.315   1.683  17.314 -2.6568  0.1518  1.0179
14719TIP3   OH265571   4.605   6.370  16.076 -0.2143  0.1468  0.2391
14719TIP3    H165572   4.681   6.374  16.135 -1.0007 -2.1754  1.5510
14719TIP3    H265573   4.553   6.447  16.100  1.2306  1.2893 -0.0744
14720TIP3   OH265574   0.547   4.333  13.815  0.6294 -0.0879 -0.4205
14720TIP3    H165575   0.519   4.242  13.825  0.2511  0.1502  0.8739
14720TIP3    H265576   0.642   4.329  13.804  0.4595 -0.7139 -1.7386
14721TIP3   OH265577   6.353   3.468  11.736 -0.5398  0.3062  0.0335
14721TIP3    H165578   6.354   3.375  11.714  0.7800  0.2247  0.3406
14721TIP3    H265579   6.287   3.505  11.679  0.0098 -0.5667 -1.2202
14722TIP3   OH265580   2.551   1.856   1.765 -0.6919 -0.4205  0.3541
14722TIP3    H165581   2.633   1.831   1.807 -0.1238  0.1041 -0.4229
14722TIP3    H265582   2.537   1.947   1.794 -2.1273 -1.1793  2.2133
14723TIP3   OH265583   3.086   1.396  12.276  0.1605 -0.4823  0.1714
14723TIP3    H165584   3.092   1.356  12.189  0.9170 -0.2275  0.0920
14723TIP3    H265585   3.164   1.364  12.322 -0.2294 -0.5995  0.7466
14724TIP3   OH265586   0.790   5.577  12.015  0.5075 -0.6812 -0.1467
14724TIP3    H165587   0.805   5.512  12.083 -2.5713 -0.4577  0.8865
14724TIP3    H265588   0.864   5.638  12.023  0.5380 -0.9865  2.6088
14725TIP3   OH265589   6.631   4.373  14.027 -0.1338 -0.4091 -0.7113
14725TIP3    H165590   6.625   4.436  14.098 -0.1895 -0.6440 -0.5069
14725TIP3    H265591   6.635   4.426  13.948 -1.1407 -0.1682 -0.6064
14726TIP3   OH265592   6.138   5.123  11.787  0.5206  0.0799  0.5150
14726TIP3    H165593   6.208   5.188  11.796 -0.4921  1.0814  1.4869
14726TIP3    H265594   6.063   5.172  11.754  0.1512 -0.9026 -0.1652
14727TIP3   OH265595   4.836   5.609  14.681 -0.2919 -0.0387 -0.1280
14727TIP3    H165596   4.791   5.542  14.733  0.7854 -0.8047 -0.1288
14727TIP3    H265597   4.801   5.692  14.713 -0.8525 -0.5618  0.6579
14728TIP3   OH265598   5.574   5.625   3.348 -0.2190  0.0459 -0.4272
14728TIP3    H165599   5.645   5.662   3.296  0.2179  0.0529  0.1598
14728TIP3    H265600   5.594   5.651   3.438 -0.3470 -0.9102 -0.1106
14729TIP3   OH265601   1.096   5.071  13.760 -0.1932  0.2855  0.1977
14729TIP3    H165602   1.036   5.107  13.696  0.3895  0.7605 -0.0923
14729TIP3    H265603   1.164   5.138  13.771  0.5980 -0.4733  0.0799
14730TIP3   OH265604   1.272   0.423   1.578 -0.1927 -0.1042 -1.0505
14730TIP3    H165605   1.290   0.493   1.515  2.9184 -0.6429 -0.9002
14730TIP3    H265606   1.188   0.448   1.618 -0.3884  2.2281 -2.7007
14731TIP3   OH265607   0.248   1.428   1.802 -0.1862  0.0852  0.2785
14731TIP3    H165608   0.252   1.343   1.847 -0.2971  0.3444  0.7838
14731TIP3    H265609   0.189   1.412   1.728  0.5703 -0.5336 -0.2067
14732TIP3   OH265610   2.478   3.247   2.394  0.0377  0.4554  0.2091
14732TIP3    H165611   2.440   3.315   2.450 -1.3948 -0.4585  0.3849
14732TIP3    H265612   2.544   3.205   2.448 -1.4954 -0.5775  1.3646
14733TIP3   OH265613   4.819   0.221   2.655  0.6407  0.2233 -0.5141
14733TIP3    H165614   4.907   0.191   2.678  0.3021 -1.0497 -0.8315
14733TIP3    H265615   4.760   0.154   2.689 -0.2494  1.2219 -0.0130
14734TIP3   OH265616   1.259   5.188   5.399  0.2903  0.3244  0.5197
14734TIP3    H165617   1.207   5.263   5.370  1.5685  0.5651 -1.3560
14734TIP3    H265618   1.219   5.161   5.481  0.8661  4.2317  2.3166
14735TIP3   OH265619   4.920   1.512   2.396 -0.4392 -0.6180 -0.6862
14735TIP3    H165620   5.000   1.549   2.360  0.2492  0.6808  1.9028
14735TIP3    H265621   4.850   1.568   2.364  0.1713  0.6341  0.0991
14736TIP3   OH265622   5.580   5.690   4.218 -0.4599 -0.0838 -0.2545
14736TIP3    H165623   5.658   5.636   4.207 -1.1204 -1.0605 -0.2457
14736TIP3    H265624   5.605   5.775   4.181  0.6197 -0.3604 -0.1990
14737TIP3   OH265625   5.583   3.572  13.844 -0.6183 -0.0652 -1.0742
14737TIP3    H165626   5.589   3.643  13.780  0.4248  2.5249  1.6620
14737TIP3    H265627   5.506   3.594  13.897  0.0934 -0.5891  0.2098
14738TIP3   OH265628   0.991   3.896   1.818 -1.0324  0.5336  0.0974
14738TIP3    H165629   0.898   3.917   1.823 -0.6753  2.0128  1.0872
14738TIP3    H265630   1.001   3.820   1.877 -1.5060  0.7825  0.5100
14739TIP3   OH265631   3.204   5.033  12.177  0.7356 -0.6231  0.4418
14739TIP3    H165632   3.202   5.109  12.236  0.0837  0.1575 -0.5457
14739TIP3    H265633   3.256   5.062  12.102  0.2799 -1.0679 -0.0515
14740TIP3   OH265634   0.453   0.288   5.583  0.3809  0.0318  0.4133
14740TIP3    H165635   0.465   0.377   5.550 -1.8355  0.3434  0.3322
14740TIP3    H265636   0.473   0.232   5.508  3.6688  0.2678  0.9568
14741TIP3   OH265637   3.960   3.281   3.281 -0.1460  0.4027  0.2293
14741TIP3    H165638   3.991   3.223   3.351  0.5404 -0.5036 -0.7911
14741TIP3    H265639   3.927   3.358   3.327 -0.3406 -0.4515  1.5817
14742TIP3   OH265640   3.066   1.375  13.088 -1.1425  0.0689 -0.8088
14742TIP3    H165641   3.129   1.342  13.152 -1.3947  1.8852  0.4312
14742TIP3    H265642   3.121   1.405  13.015 -0.8907 -2.6132 -1.8221
14743TIP3   OH265643   1.924   0.085  13.505 -0.4033  0.4027 -0.0514
14743TIP3    H165644   1.908   0.160  13.447 -1.0172 -0.4853 -1.0680
14743TIP3    H265645   1.842   0.037  13.506  0.4756 -1.2030 -0.8174
14744TIP3   OH265646   2.610   5.422  12.845  0.3301 -0.5974  0.5319
14744TIP3    H165647   2.619   5.470  12.762 -0.0972 -2.9067 -0.9284
14744TIP3    H265648   2.679   5.356  12.842  0.9439 -0.1026  2.5224
14745TIP3   OH265649   3.244   0.934  15.673 -0.1657 -0.1367  0.4617
14745TIP3    H165650   3.231   1.029  15.667 -0.7370 -0.0284  2.5537
14745TIP3    H265651   3.160   0.901  15.707  0.0976 -1.3724 -0.0444
14746TIP3   OH265652   4.721   0.470  13.438 -0.0365  0.2478  0.5257
14746TIP3    H165653   4.791   0.515  13.486  0.9338  0.5199 -1.0551
14746TIP3    H265654   4.767   0.408  13.381 -1.2578 -1.4223  1.2848
14747TIP3   OH265655   2.811   1.384  12.018  0.0863 -0.2536 -0.5213
14747TIP3    H165656   2.832   1.417  11.930  0.1925 -0.0741 -0.4295
14747TIP3    H265657   2.762   1.455  12.059  1.6273  0.4255  0.2181
14748TIP3   OH265658   0.240   2.619   5.210 -0.0125 -0.1272  0.2868
14748TIP3    H165659   0.266   2.543   5.262  1.5855  0.1203 -0.1154
14748TIP3    H265660   0.316   2.678   5.213 -0.6049  0.7248 -0.7708
14749TIP3   OH265661   4.420   4.728  15.628  0.3552 -0.2396  0.1105
14749TIP3    H165662   4.417   4.750  15.721  0.6299  2.7425 -0.4942
14749TIP3    H265663   4.337   4.761  15.593  1.5040  1.4094 -1.1825
14750TIP3   OH265664   1.627   6.019   1.588 -0.2417 -0.0681  0.2787
14750TIP3    H165665   1.548   5.989   1.544 -0.1516  0.8420 -0.5261
14750TIP3    H265666   1.601   6.028   1.680 -0.1284 -3.0569  0.7070
14751TIP3   OH265667   4.700   2.710  14.259 -0.0698  0.0727 -0.4900
14751TIP3    H165668   4.766   2.666  14.206 -0.5802 -0.4758 -0.6857
14751TIP3    H265669   4.698   2.800  14.227 -0.6544 -0.3498 -1.6890
14752TIP3   OH265670   3.178   3.220  16.431  0.5490 -0.0508 -0.3311
14752TIP3    H165671   3.125   3.230  16.353  0.0565 -1.4451 -0.2126
14752TIP3    H265672   3.125   3.257  16.502  0.8887  0.9768 -0.5994
14753TIP3   OH265673   3.594   0.678   1.783  0.1144  0.2470  0.4712
14753TIP3    H165674   3.587   0.768   1.751  1.2136  0.3284  0.4160
14753TIP3    H265675   3.507   0.640   1.768 -1.4750  2.2296  3.4063
14754TIP3   OH265676   5.549   6.390  14.660 -0.1553 -0.5011 -0.1734
14754TIP3    H165677   5.598   6.472  14.653  0.0137 -0.6483 -0.7730
14754TIP3    H265678   5.513   6.391  14.749  1.2784 -0.5855  0.4435
14755TIP3   OH265679   4.605   4.638   1.265  0.1022  0.4546 -0.1201
14755TIP3    H165680   4.653   4.709   1.222 -0.8705  2.1315  1.4337
14755TIP3    H265681   4.516   4.671   1.275 -0.6754 -1.4331 -0.3147
14756TIP3   OH265682   1.078   2.564   3.966  0.1660  0.2498  0.6075
14756TIP3    H165683   1.022   2.569   4.044 -0.9602 -2.4290  0.0765
14756TIP3    H265684   1.021   2.590   3.894 -0.0706 -1.2456  0.2231
14757TIP3   OH265685   0.376   5.494   5.803 -0.0915  0.5246  0.1013
14757TIP3    H165686   0.419   5.578   5.817 -1.5575  1.4517 -0.7236
14757TIP3    H265687   0.326   5.506   5.723  1.9967 -2.1159 -1.7934
14758TIP3   OH265688   1.253   5.477  11.774 -0.1286  0.4209 -0.6838
14758TIP3    H165689   1.336   5.432  11.768 -0.3195 -0.2866  1.3484
14758TIP3    H265690   1.228   5.494  11.683  0.9174 -1.7554 -1.4303
14759TIP3   OH265691   5.041   4.123  15.372 -0.9258 -0.0687 -0.4647
14759TIP3    H165692   5.021   4.145  15.281 -2.4155 -0.8232 -0.3568
14759TIP3    H265693   5.091   4.042  15.367  0.7287  0.9116 -0.6621
14760TIP3   OH265694   2.314   6.532  17.042 -0.5090 -0.0985 -0.3955
14760TIP3    H165695   2.358   6.613  17.068  0.7086 -0.1956 -1.9893
14760TIP3    H265696   2.325   6.473  17.117  0.4220  0.5288 -0.0195
14761TIP3   OH265697   5.759   2.774   2.949 -0.2782  0.3565  0.1072
14761TIP3    H165698   5.727   2.683   2.951 -0.9053  0.4978 -1.5366
14761TIP3    H265699   5.690   2.822   2.903 -0.4851  1.9236  1.9323
14762TIP3   OH265700   5.172   3.535  11.646 -0.2741 -0.7112 -0.4900
14762TIP3    H165701   5.101   3.536  11.581  0.1411 -0.8244 -0.9510
14762TIP3    H265702   5.127   3.534  11.731 -0.8624 -2.6917 -0.7790
14763TIP3   OH265703   6.354   5.753   3.482  0.0054 -0.4944  1.0680
14763TIP3    H165704   6.410   5.676   3.485  1.7680  0.5305 -1.6091
14763TIP3    H265705   6.398   5.812   3.421 -3.6508  0.7041 -0.6953
14764TIP3   OH265706   2.122   0.755   0.561 -0.3002 -0.0836 -0.3746
14764TIP3    H165707   2.216   0.740   0.548 -0.5780 -1.7083 -0.6621
14764TIP3    H265708   2.115   0.789   0.650  0.5497 -0.0079 -0.3300
14765TIP3   OH265709   6.742   4.573   6.136 -0.0367 -0.3453  0.0628
14765TIP3    H165710   6.828   4.555   6.175  0.4492 -1.4062 -1.4025
14765TIP3    H265711   6.683   4.510   6.179 -0.3052  0.9406  1.6792
14766TIP3   OH265712   0.012   0.615  15.613  0.2747 -0.8349 -0.2024
14766TIP3    H165713   0.057   0.536  15.641  0.9618 -0.0366  1.0709
14766TIP3    H265714   0.063   0.687  15.652 -2.0729  0.1163  1.3037
14767TIP3   OH265715   1.688   4.006   2.759 -0.1896 -0.3297  0.0048
14767TIP3    H165716   1.718   4.067   2.692  0.0586  0.3481  0.7252
14767TIP3    H265717   1.758   4.006   2.825 -1.0212  0.0310  0.9103
14768TIP3   OH265718   3.751   2.608  12.469  0.1284  0.2128 -0.0867
14768TIP3    H165719   3.746   2.592  12.375 -0.1250 -0.2712  0.0082
14768TIP3    H265720   3.758   2.704  12.477  0.4538  0.2312 -0.6052
14769TIP3   OH265721   4.290   0.138   4.453  0.0023 -0.5344 -0.2637
14769TIP3    H165722   4.384   0.135   4.472  0.2141  0.1611 -1.1059
14769TIP3    H265723   4.274   0.063   4.397  0.5592  0.6270 -2.0693
14770TIP3   OH265724   3.344   5.621   5.141  0.2068 -0.1740 -0.2706
14770TIP3    H165725   3.346   5.532   5.107  2.0681 -0.6583  0.9489
14770TIP3    H265726   3.386   5.614   5.227  0.0559  1.8230  0.0030
14771TIP3   OH265727   5.428   2.766  15.736 -0.2485 -0.2623  0.8247
14771TIP3    H165728   5.481   2.710  15.678 -0.2272 -1.8620  2.3122
14771TIP3    H265729   5.343   2.722  15.740 -0.3909  0.0826  1.6358
14772TIP3   OH265730   5.832   5.217  11.935 -0.4303  0.0931 -0.1821
14772TIP3    H165731   5.840   5.277  12.009 -2.1168  1.2257 -0.8699
14772TIP3    H265732   5.846   5.271  11.858  0.6039 -0.9389 -0.7484
14773TIP3   OH265733   0.804   6.585  12.486 -0.8422 -0.2074 -0.4279
14773TIP3    H165734   0.772   6.574  12.576 -1.5385 -0.2961 -0.6815
14773TIP3    H265735   0.879   6.526  12.480 -0.7902 -0.2052  0.0903
14774TIP3   OH265736   5.895   3.664   5.543 -0.3276  0.2359  0.7914
14774TIP3    H165737   5.886   3.584   5.493 -2.3091  1.1731 -0.4935
14774TIP3    H265738   5.898   3.635   5.635 -0.2730 -1.3197  0.3202
14775TIP3   OH265739   1.132   1.145   0.534 -0.6286  0.7825  0.0031
14775TIP3    H165740   1.095   1.113   0.616  0.5389  0.5916  0.4733
14775TIP3    H265741   1.078   1.103   0.466 -1.5526  0.8789  0.6507
14776TIP3   OH265742   3.422   4.381   0.101 -0.1834 -0.3793 -0.5897
14776TIP3    H165743   3.398   4.384   0.194 -0.6411 -0.9051 -0.6831
14776TIP3    H265744   3.347   4.338   0.059  0.4477 -1.0337 -1.0611
14777TIP3   OH265745   6.348   4.840   4.005 -0.4092 -0.1523  0.1676
14777TIP3    H165746   6.293   4.915   3.983 -0.7687 -0.3924  0.2351
14777TIP3    H265747   6.412   4.835   3.934  1.2520  1.7691  1.4334
14778TIP3   OH265748   6.320   4.208   3.599  0.9159 -0.1553 -0.1187
14778TIP3    H165749   6.353   4.118   3.592  0.0729 -0.4108 -1.0451
14778TIP3    H265750   6.302   4.234   3.509  0.8652  0.8449  0.1671
14779TIP3   OH265751   0.811   5.659   2.085 -0.3879 -0.0464 -0.0747
14779TIP3    H165752   0.813   5.605   2.006  1.9871 -2.0906  1.2198
14779TIP3    H265753   0.755   5.611   2.146 -0.7389  0.5681  0.0958
14780TIP3   OH265754   0.513   1.351   4.388 -0.2792 -0.1681  0.2293
14780TIP3    H165755   0.467   1.399   4.320  1.8361  0.5343 -0.8071
14780TIP3    H265756   0.595   1.399   4.400  0.1722 -1.2900  2.0249
14781TIP3   OH265757   4.902   3.985  12.217 -0.4716  0.3130 -0.6210
14781TIP3    H165758   4.815   3.953  12.241  0.5066 -1.3018  1.0151
14781TIP3    H265759   4.944   4.005  12.301  0.4779  1.8303 -1.4231
14782TIP3   OH265760   0.951   6.294  12.964  0.0714  0.2829 -0.8609
14782TIP3    H165761   0.957   6.328  12.875 -0.6843 -1.8382 -1.7819
14782TIP3    H265762   0.878   6.232  12.962  0.5716 -0.4611  1.0090
14783TIP3   OH265763   4.848   6.746   0.591 -0.3309  0.0973 -0.2122
14783TIP3    H165764   4.898   6.723   0.512  0.2342 -0.0115  0.1724
14783TIP3    H265765   4.785   6.811   0.561  0.4375  0.6863 -0.5921
14784TIP3   OH265766   6.066   6.138  15.080 -0.5009 -0.1872 -0.1983
14784TIP3    H165767   6.151   6.183  15.076 -0.1218 -0.8961 -0.3200
14784TIP3    H265768   6.008   6.200  15.124 -0.3505  0.9871 -1.5789
14785TIP3   OH265769   2.022   3.269   0.679  0.1532 -0.4542 -0.0404
14785TIP3    H165770   1.984   3.186   0.654 -1.0635  0.0732  0.0018
14785TIP3    H265771   1.948   3.324   0.703  0.7600  1.2174 -1.7243
14786TIP3   OH265772   1.504   2.775   0.160 -0.1196  0.7975  0.0241
14786TIP3    H165773   1.523   2.861   0.121  0.4016  1.1261  0.9453
14786TIP3    H265774   1.431   2.792   0.220 -2.1536 -0.0720 -2.0751
14787TIP3   OH265775   5.073   0.433  11.405 -0.0157 -0.4421  0.1051
14787TIP3    H165776   5.115   0.439  11.320 -0.6492 -1.7040 -0.3267
14787TIP3    H265777   5.108   0.352  11.443 -1.2612 -0.9884  0.1508
14788TIP3   OH265778   1.531   1.690  12.633  0.2389 -0.5679 -0.1482
14788TIP3    H165779   1.490   1.774  12.609  0.9462 -0.0480  0.4287
14788TIP3    H265780   1.585   1.667  12.558  0.0134 -0.5230 -0.3242
14789TIP3   OH265781   0.564   5.845  15.082 -0.0779  0.2395  0.6734
14789TIP3    H165782   0.517   5.864  15.163 -2.0823  0.2952 -0.4468
14789TIP3    H265783   0.559   5.926  15.031 -0.3971 -0.3336 -0.2262
14790TIP3   OH265784   0.839   6.223  17.144 -0.1790  0.0127  0.7632
14790TIP3    H165785   0.816   6.251  17.055  0.2223  1.8454  1.1990
14790TIP3    H265786   0.768   6.163  17.169 -0.8524  0.2825 -0.4115
14791TIP3   OH265787   5.854   4.679   0.534 -0.3289 -0.2017  0.0616
14791TIP3    H165788   5.944   4.647   0.545  0.0302  1.0326  1.0707
14791TIP3    H265789   5.812   4.659   0.617 -0.4591  0.7745  0.2402
14792TIP3   OH265790   1.187   6.503  16.304 -0.4385 -0.0108 -0.2170
14792TIP3    H165791   1.150   6.453  16.377  0.8716 -1.7631 -0.6729
14792TIP3    H265792   1.277   6.522  16.330 -0.9341  2.2815 -0.0250
14793TIP3   OH265793   0.258   5.343   1.440 -0.2669  0.4383  0.4304
14793TIP3    H165794   0.298   5.311   1.360  0.5893 -1.2061  1.4595
14793TIP3    H265795   0.164   5.333   1.425 -0.0795 -1.0794  0.0655
14794TIP3   OH265796   3.872   3.989  11.644 -0.1533  0.1653  0.3961
14794TIP3    H165797   3.881   4.067  11.699 -0.5296 -0.0893  0.8155
14794TIP3    H265798   3.944   3.932  11.672  0.3371  0.4972 -0.1504
14795TIP3   OH265799   1.957   5.615  12.054 -0.1223 -0.6720 -0.5916
14795TIP3    H165800   2.015   5.553  12.011  0.1003 -0.9001  0.0362
14795TIP3    H265801   1.966   5.597  12.147  1.6255  1.7352 -0.1942
14796TIP3   OH265802   6.203   4.810  11.878 -0.1797  0.3918 -0.9626
14796TIP3    H165803   6.208   4.818  11.783 -1.8431  2.5287 -0.9440
14796TIP3    H265804   6.272   4.869  11.910 -0.7963  1.0727 -0.8626
14797TIP3   OH265805   2.094   2.481  11.406  0.0358 -0.2128 -0.4813
14797TIP3    H165806   2.015   2.514  11.365 -0.1185  0.9241  0.6962
14797TIP3    H265807   2.124   2.411  11.347 -3.3932 -2.7298  0.4353
14798TIP3   OH265808   3.089   2.628   3.058  0.6977  0.4539 -0.4430
14798TIP3    H165809   3.011   2.598   3.105  0.3351  0.7994 -0.8147
14798TIP3    H265810   3.083   2.584   2.973  2.2542 -1.5473  0.3993
14799TIP3   OH265811   0.860   1.754  10.939  0.2339  0.0075  0.0008
14799TIP3    H165812   0.818   1.691  10.881 -0.3120 -1.7342  2.1252
14799TIP3    H265813   0.929   1.795  10.886 -1.5115  0.0470 -2.4095
14800TIP3   OH265814   0.917   5.969   3.700 -0.3811  0.1662 -0.4043
14800TIP3    H165815   0.994   5.947   3.647 -0.4762 -0.9607 -0.0970
14800TIP3    H265816   0.878   6.045   3.656  1.5982  1.5934  0.1313
14801TIP3   OH265817   3.841   6.296  15.954 -0.4098 -0.2631  0.3874
14801TIP3    H165818   3.875   6.207  15.954  0.7932  0.1477  1.7825
14801TIP3    H265819   3.911   6.348  15.995 -0.8687  1.4077 -0.8344
14802TIP3   OH265820   1.144   2.330  12.169 -0.1032 -0.7174 -0.3985
14802TIP3    H165821   1.209   2.353  12.235 -1.0960  1.6120 -0.1294
14802TIP3    H265822   1.194   2.290  12.098  1.2463 -1.3838  0.8754
14803TIP3   OH265823   6.071   1.602  15.246  0.3003  0.3260 -0.0650
14803TIP3    H165824   6.086   1.536  15.178  0.1389  0.0005  0.2160
14803TIP3    H265825   5.984   1.638  15.226  0.6576  0.9219 -0.6066
14804TIP3   OH265826   5.909   3.911   3.045 -0.1822  0.1796 -0.2915
14804TIP3    H165827   5.940   3.938   2.959 -0.4010  0.5443 -0.2578
14804TIP3    H265828   5.870   3.825   3.030 -0.2734  0.2663 -0.5696
14805TIP3   OH265829   1.991   4.666  11.366 -0.4160 -0.1256 -0.5219
14805TIP3    H165830   2.075   4.688  11.327 -0.5620  3.5710  0.8586
14805TIP3    H265831   1.999   4.574  11.392  2.8810 -0.1035 -1.0861
14806TIP3   OH265832   6.710   3.796  14.288 -0.1811  0.0110 -0.0060
14806TIP3    H165833   6.774   3.727  14.304  1.6296  1.2081 -1.6325
14806TIP3    H265834   6.628   3.761  14.325  1.0651 -2.1475  0.9450
14807TIP3   OH265835   1.874   5.735  17.157  0.6200 -0.3667  0.2850
14807TIP3    H165836   1.948   5.736  17.096  0.6498  3.1776  0.1867
14807TIP3    H265837   1.801   5.699  17.106  1.4011 -0.4103 -0.8224
14808TIP3   OH265838   1.036   1.078   0.268  0.4007 -0.0853 -0.3602
14808TIP3    H165839   0.984   1.116   0.197 -0.4396  0.9514  0.7608
14808TIP3    H265840   1.126   1.106   0.251  0.3543 -0.5650 -1.4596
14809TIP3   OH265841   0.078   2.960   3.141 -0.1039  0.2463 -0.0039
14809TIP3    H165842   0.108   3.039   3.096 -0.4511 -0.0971 -0.8612
14809TIP3    H265843   0.142   2.893   3.117  0.4569  0.3551  1.0985
14810TIP3   OH265844   1.990   5.599   6.231 -0.0484 -0.1685  0.2810
14810TIP3    H165845   2.031   5.656   6.166 -0.9782  2.0217  1.5013
14810TIP3    H265846   2.046   5.521   6.234  1.0193  0.4560 -1.7959
14811TIP3   OH265847   3.406   4.163  16.417 -0.8991  0.1109 -0.1781
14811TIP3    H165848   3.381   4.244  16.373  2.6002  0.3386 -2.1410
14811TIP3    H265849   3.389   4.179  16.510 -2.5152  2.1481 -0.7617
14812TIP3   OH265850   2.921   1.998  11.387 -0.3563  0.8545 -0.2722
14812TIP3    H165851   2.980   2.031  11.454 -2.0434  1.9139  0.7742
14812TIP3    H265852   2.851   1.954  11.435 -0.8697  0.3826 -1.4091
14813TIP3   OH265853   1.642   5.405  15.301  0.5405 -0.2963 -0.2392
14813TIP3    H165854   1.676   5.493  15.284 -0.1174 -0.3291 -1.8048
14813TIP3    H265855   1.590   5.414  15.381  3.5195 -0.0949  1.8444
14814TIP3   OH265856   5.191   2.539  14.031 -0.3756  0.0104 -0.3924
14814TIP3    H165857   5.205   2.633  14.041 -1.9332  0.2484 -0.1966
14814TIP3    H265858   5.148   2.512  14.112  0.3910 -0.9670 -0.2874
14815TIP3   OH265859   4.288   0.209   5.517  0.4887  0.1558 -0.1122
14815TIP3    H165860   4.206   0.190   5.563 -0.1952 -2.2927 -2.0972
14815TIP3    H265861   4.261   0.250   5.436  1.2802 -0.0270 -0.4786
14816TIP3   OH265862   1.366   5.129  12.621  0.5938 -0.2265  0.0203
14816TIP3    H165863   1.383   5.210  12.669  0.7575 -0.5457  0.5037
14816TIP3    H265864   1.323   5.071  12.684 -0.5773 -0.1135 -0.6496
14817TIP3   OH265865   1.621   4.970  16.803  0.1990  0.3961 -0.3344
14817TIP3    H165866   1.684   4.906  16.835 -1.7897 -0.5868  1.9341
14817TIP3    H265867   1.674   5.041  16.768  2.5095 -0.9975  0.1483
14818TIP3   OH265868   5.734   4.461   4.339 -0.2301 -0.3653 -0.2443
14818TIP3    H165869   5.816   4.440   4.383 -0.6231  0.2341  0.8295
14818TIP3    H265870   5.667   4.422   4.395 -0.7742  0.8615 -0.0017
14819TIP3   OH265871   5.418   1.344   2.062  0.1003 -0.1144  0.0665
14819TIP3    H165872   5.337   1.362   2.015  1.0477 -0.1576 -1.6833
14819TIP3    H265873   5.440   1.254   2.039  0.9955  0.1220 -0.0706
14820TIP3   OH265874   0.455   4.462   2.907  0.3279 -0.4004  0.3277
14820TIP3    H165875   0.433   4.368   2.902  0.1254 -0.3214 -0.6179
14820TIP3    H265876   0.549   4.465   2.892  0.0606 -0.3461 -1.7060
14821TIP3   OH265877   1.688   1.057  14.389 -0.0796 -0.3596 -0.5464
14821TIP3    H165878   1.776   1.064  14.353  1.4282  0.5514  2.8742
14821TIP3    H265879   1.661   0.968  14.369  1.0961 -0.3183 -2.6504
14822TIP3   OH265880   2.759   1.066  12.484  0.3484 -0.2144 -0.1158
14822TIP3    H165881   2.711   1.149  12.475  0.0168 -0.2422  1.1598
14822TIP3    H265882   2.724   1.011  12.414  1.0333  0.9156 -1.3920
14823TIP3   OH265883   6.257   1.979  12.094  0.4636 -0.3433 -0.6689
14823TIP3    H165884   6.172   1.992  12.052  0.9567 -2.6229 -2.5832
14823TIP3    H265885   6.309   1.933  12.028  2.8071 -0.0464  0.8804
14824TIP3   OH265886   0.458   3.132  13.386 -0.0483  0.0640  0.4444
14824TIP3    H165887   0.433   3.041  13.398 -0.9178  0.2886  0.4658
14824TIP3    H265888   0.386   3.182  13.426 -0.4160  0.7616 -0.9977
14825TIP3   OH265889   4.665   6.449   5.376  0.5348 -0.0373  0.0048
14825TIP3    H165890   4.631   6.500   5.302 -0.0721 -0.5511 -0.0850
14825TIP3    H265891   4.589   6.400   5.407  0.6847  0.4961  1.2450
14826TIP3   OH265892   0.861   4.415   3.108 -0.5805  0.4758 -0.2645
14826TIP3    H165893   0.870   4.499   3.154  0.4316  0.7557 -0.9278
14826TIP3    H265894   0.952   4.386   3.095 -0.9110 -1.3725  1.0796
14827TIP3   OH265895   3.998   0.227   0.858 -0.7379  0.1942 -0.7604
14827TIP3    H165896   4.090   0.243   0.878 -0.0833 -1.7868 -1.9474
14827TIP3    H265897   3.963   0.184   0.936 -0.8510  1.4545 -0.0841
14828TIP3   OH265898   1.629   3.387   4.113 -0.2580 -1.0008 -0.1879
14828TIP3    H165899   1.651   3.322   4.180  0.2196  0.2420  0.8959
14828TIP3    H265900   1.642   3.340   4.030  2.9561 -1.4934  0.4442
14829TIP3   OH265901   2.502   6.159  13.281 -0.3162 -0.2462  0.5294
14829TIP3    H165902   2.448   6.189  13.354 -0.7225  1.1856 -0.3100
14829TIP3    H265903   2.439   6.142  13.210  0.2118  0.3864 -0.1140
14830TIP3   OH265904   6.512   6.053   3.510 -0.1801 -0.3447 -0.5459
14830TIP3    H165905   6.512   5.984   3.444 -0.3335 -0.0986 -0.8040
14830TIP3    H265906   6.582   6.112   3.483  1.4316 -1.4904  0.8355
14831TIP3   OH265907   3.650   3.614  15.704 -0.4010 -0.9708 -0.4036
14831TIP3    H165908   3.590   3.687  15.715  0.0705 -0.1256 -2.8697
14831TIP3    H265909   3.644   3.591  15.612  0.2040 -3.4323  0.0904
14832TIP3   OH265910   0.385   0.168  15.074  0.3907 -0.1523  0.0352
14832TIP3    H165911   0.474   0.147  15.102  0.7970  1.5064  0.0966
14832TIP3    H265912   0.375   0.122  14.990  0.0847 -3.0286  1.5244
14833TIP3   OH265913   0.792   1.965  15.547  0.4796 -0.5069  0.2485
14833TIP3    H165914   0.875   1.986  15.590  0.9221  0.2325 -0.9096
14833TIP3    H265915   0.800   1.872  15.524  0.9235 -0.4846  0.2899
14834TIP3   OH265916   6.213   0.779  15.520  0.8494 -0.3740  0.2357
14834TIP3    H165917   6.237   0.800  15.611  0.7878  0.3158  0.1031
14834TIP3    H265918   6.291   0.735  15.485  0.5863 -1.3486  0.8413
14835TIP3   OH265919   3.054   0.556  14.036 -0.3416  0.2215 -0.5295
14835TIP3    H165920   3.101   0.629  14.077  0.9405 -0.6050 -0.4810
14835TIP3    H265921   3.004   0.517  14.108 -0.0549  0.2955 -0.2868
14836TIP3   OH265922   3.926   2.657   1.648  0.4288 -0.4320  0.1080
14836TIP3    H165923   3.954   2.748   1.647  0.7902 -0.4901 -2.2510
14836TIP3    H265924   3.962   2.621   1.729  2.1722  0.9872  0.0236
14837TIP3   OH265925   4.838   1.293   2.542  0.0374  0.7596  0.4266
14837TIP3    H165926   4.892   1.215   2.530 -0.4092  0.1749  1.9835
14837TIP3    H265927   4.888   1.363   2.502  1.0806 -0.0863  0.2037
14838TIP3   OH265928   3.929   1.967  17.248 -0.0139 -0.4785  0.3509
14838TIP3    H165929   3.927   1.922  17.332 -1.0838 -0.2167  0.4883
14838TIP3    H265930   3.941   2.059  17.271  3.2352 -0.7034  0.0305
14839TIP3   OH265931   0.164   0.537  16.444 -0.3857  1.5310  0.1563
14839TIP3    H165932   0.211   0.557  16.526 -0.4672  0.1566  0.5719
14839TIP3    H265933   0.075   0.568  16.459 -0.2032  2.0042  0.2796
14840TIP3   OH265934   3.216   4.993  10.382 -0.2872  0.2005  0.7941
14840TIP3    H165935   3.186   5.043  10.459 -1.3027 -0.2835  0.7320
14840TIP3    H265936   3.234   5.060  10.317 -1.0831  0.5398  0.9023
14841TIP3   OH265937   3.178   1.102  13.258 -0.2710 -0.1311 -0.3920
14841TIP3    H165938   3.101   1.052  13.232  0.5364 -1.4296 -0.3754
14841TIP3    H265939   3.209   1.059  13.337 -0.2070  1.1229  0.2846
14842TIP3   OH265940   4.963   1.329  11.729 -0.5146  0.9234  0.7082
14842TIP3    H165941   5.043   1.277  11.736  0.0348  1.7415  0.7082
14842TIP3    H265942   4.893   1.269  11.753 -0.2621 -0.6957 -2.0943
14843TIP3   OH265943   3.337   2.666  17.407 -0.1885 -0.6819  0.6445
14843TIP3    H165944   3.411   2.641  17.352  1.5906  2.0099  1.5843
14843TIP3    H265945   3.360   2.633  17.494 -1.5143 -2.2790  0.4226
14844TIP3   OH265946   3.106   0.285  12.804 -0.2956 -0.2544  0.0113
14844TIP3    H165947   3.036   0.277  12.869 -0.7603 -0.6850 -0.5319
14844TIP3    H265948   3.094   0.210  12.747  0.8674 -0.5589  0.1423
14845TIP3   OH265949   5.075   6.435   1.107  0.5861  0.1325  0.2160
14845TIP3    H165950   5.001   6.464   1.160  1.3952  0.1110  1.3953
14845TIP3    H265951   5.111   6.360   1.155  2.4931  1.2797  0.6783
14846TIP3   OH265952   5.821   0.586  11.104 -0.0408 -0.2016 -0.0240
14846TIP3    H165953   5.761   0.649  11.144 -0.2135 -0.0766 -0.4650
14846TIP3    H265954   5.851   0.531  11.176 -0.4931 -0.1053  0.2414
14847TIP3   OH265955   5.045   4.929  14.586 -0.3163 -0.5409  0.3322
14847TIP3    H165956   5.090   5.000  14.540  0.3998  0.4165  2.3963
14847TIP3    H265957   4.962   4.920  14.539  0.2377  0.5706 -0.9510
14848TIP3   OH265958   3.530   3.753  10.482 -0.0684 -0.3023 -0.0911
14848TIP3    H165959   3.494   3.708  10.406 -1.3761  0.6319 -0.0551
14848TIP3    H265960   3.582   3.825  10.445  0.8168 -0.9368 -0.1160
14849TIP3   OH265961   5.862   4.251   2.180 -0.0017  0.9542 -0.2059
14849TIP3    H165962   5.872   4.285   2.269  0.7991  4.0313 -1.3494
14849TIP3    H265963   5.952   4.234   2.151 -0.1786  0.9050 -0.7360
14850TIP3   OH265964   1.222   3.366  11.623  0.0727 -0.1694  0.1221
14850TIP3    H165965   1.173   3.413  11.556  0.3422 -0.3705 -0.2191
14850TIP3    H265966   1.159   3.305  11.661  0.2317 -0.9070 -0.7813
14851TIP3   OH265967   4.827   2.790   0.418 -0.4847  0.2979  0.0209
14851TIP3    H165968   4.839   2.737   0.497 -0.0966 -0.1512 -0.3330
14851TIP3    H265969   4.916   2.814   0.392 -0.5592 -0.1500 -0.6684
14852TIP3   OH265970   5.674   1.388   5.183  0.8776  0.2544 -0.1934
14852TIP3    H165971   5.621   1.441   5.124  1.2191 -0.9307 -1.6474
14852TIP3    H265972   5.761   1.385   5.142  0.6203 -2.1758 -0.7204
14853TIP3   OH265973   0.123   5.038  10.803  0.0253  0.4873 -0.0725
14853TIP3    H165974   0.063   5.095  10.755  0.1990  1.0283  0.3367
14853TIP3    H265975   0.070   4.999  10.873 -0.0422  0.3228 -0.2161
14854TIP3   OH265976   3.929   4.963  16.140 -0.4487 -0.5812  0.2249
14854TIP3    H165977   3.877   5.042  16.127  0.4974 -0.1763 -1.4838
14854TIP3    H265978   3.865   4.893  16.151 -1.3167  0.1970  0.2204
14855TIP3   OH265979   2.707   3.121   4.118 -0.7871  0.0202  0.3766
14855TIP3    H165980   2.704   3.128   4.214  0.7083 -0.2960  0.4810
14855TIP3    H265981   2.635   3.062   4.096  0.1770 -1.7045  1.5466
14856TIP3   OH265982   0.433   2.197  14.579 -0.2364  0.1430 -0.0285
14856TIP3    H165983   0.431   2.232  14.491 -1.3821 -0.4907 -0.2763
14856TIP3    H265984   0.459   2.105  14.568 -1.2020 -0.1758  0.1779
14857TIP3   OH265985   4.592   1.617   3.068  0.0428  0.3916  0.3340
14857TIP3    H165986   4.680   1.580   3.066  0.1665  0.5999  1.4262
14857TIP3    H265987   4.559   1.596   3.156 -1.5477 -0.9394 -0.5113
14858TIP3   OH265988   5.147   2.247   1.689  0.0261 -0.4179  0.7200
14858TIP3    H165989   5.119   2.255   1.598 -0.6244 -0.1178  0.9340
14858TIP3    H265990   5.166   2.336   1.717 -0.6410 -0.3917  1.1287
14859TIP3   OH265991   4.796   2.097   4.196 -0.1217  0.1179  0.0728
14859TIP3    H165992   4.721   2.094   4.256 -1.6515  2.4494 -1.5299
14859TIP3    H265993   4.785   2.180   4.149  2.2271 -0.5648 -1.8664
14860TIP3   OH265994   5.461   0.554   4.881  0.4180 -0.2959 -0.0825
14860TIP3    H165995   5.471   0.548   4.786  0.4175 -0.2502 -0.0851
14860TIP3    H265996   5.547   0.531   4.916  1.5912  3.3867 -0.1821
14861TIP3   OH265997   2.032   6.244  11.688  0.8652  0.0015  0.1008
14861TIP3    H165998   1.974   6.173  11.717  1.2627 -0.3438  0.0487
14861TIP3    H265999   1.982   6.289  11.619  0.1517  0.4712  0.8995
14862TIP3   OH266000   6.488   4.126  11.043 -0.5631 -0.4099  0.0203
14862TIP3    H166001   6.455   4.191  11.105 -0.8129 -2.4683  2.2161
14862TIP3    H266002   6.410   4.078  11.016 -0.1034 -1.5237  0.6099
14863TIP3   OH266003   6.542   4.445  15.943 -0.0347 -1.0032  0.1378
14863TIP3    H166004   6.500   4.396  16.014 -1.9865 -0.5682 -0.6306
14863TIP3    H266005   6.606   4.501  15.986 -0.7604 -1.1873  1.5058
14864TIP3   OH266006   4.729   6.193  12.235  0.6325 -0.2551  0.4186
14864TIP3    H166007   4.634   6.202  12.233  0.4653 -1.4262  1.7753
14864TIP3    H266008   4.759   6.242  12.158 -0.9129  1.6996  0.9689
14865TIP3   OH266009   3.479   4.265  10.317 -0.2886  0.0304 -0.0302
14865TIP3    H166010   3.539   4.204  10.275  0.1351  0.8544 -0.6623
14865TIP3    H266011   3.532   4.308  10.385 -0.8042 -0.8599  0.9677
14866TIP3   OH266012   6.591   0.001  12.106  0.1356  0.3112  0.5228
14866TIP3    H166013   6.670  -0.051  12.120 -0.0914 -0.2787 -0.2943
14866TIP3    H266014   6.521  -0.063  12.093 -0.7227  0.8065  2.3423
14867TIP3   OH266015   4.926   3.295  14.949 -0.1610 -0.0105 -0.2354
14867TIP3    H166016   4.994   3.229  14.936 -0.9224 -1.0845  1.0096
14867TIP3    H266017   4.933   3.318  15.042  1.1232  2.8714 -0.9390
14868TIP3   OH266018   3.484   5.011  16.301 -0.0793  0.3581  0.6054
14868TIP3    H166019   3.489   5.009  16.205  1.2359  1.5042  0.6287
14868TIP3    H266020   3.399   5.050  16.320 -1.0514 -1.2997 -0.0442
14869TIP3   OH266021   2.562   0.384   4.567 -0.1314  0.1164 -0.1617
14869TIP3    H166022   2.653   0.398   4.540  0.2705  1.5451  1.6785
14869TIP3    H266023   2.515   0.461   4.534 -0.4721 -0.1300 -0.2543
14870TIP3   OH266024   4.566   4.817   3.184  0.4395 -0.3559 -0.5131
14870TIP3    H166025   4.632   4.861   3.129  0.9609 -0.0142  0.3758
14870TIP3    H266026   4.536   4.884   3.245  1.1626 -1.1736  0.7801
14871TIP3   OH266027   0.519   6.272   4.226 -0.0818  0.2019  0.3666
14871TIP3    H166028   0.575   6.281   4.149  0.5325 -0.1535  0.7711
14871TIP3    H266029   0.559   6.202   4.277 -0.9384 -0.1190  0.6209
14872TIP3   OH266030   2.971   0.794  16.614 -0.3757  0.1908  0.9406
14872TIP3    H166031   2.967   0.727  16.682  0.8410  0.9774  1.8223
14872TIP3    H266032   2.903   0.857  16.639 -1.3766 -0.5580  0.2257
14873TIP3   OH266033   1.607   5.850  11.362 -0.0151 -0.1450 -0.1136
14873TIP3    H166034   1.660   5.913  11.312 -0.4759  0.8257  0.5783
14873TIP3    H266035   1.576   5.788  11.296  1.7600 -0.5944 -0.5615
14874TIP3   OH266036   2.504   3.759  15.413 -0.1204  0.4728  0.6999
14874TIP3    H166037   2.544   3.844  15.429 -0.4863  0.9465 -0.7985
14874TIP3    H266038   2.495   3.721  15.501  3.1672  0.4766  1.1676
14875TIP3   OH266039   4.461   6.115  12.020  0.3244 -0.0695  0.1550
14875TIP3    H166040   4.381   6.142  11.976  0.9169  1.5096 -0.0442
14875TIP3    H266041   4.482   6.030  11.983 -0.1414  0.4283 -1.3194
14876TIP3   OH266042   5.810   3.682   2.984  0.3787  0.2907  0.2764
14876TIP3    H166043   5.732   3.653   2.937 -1.2992  3.6576  0.6903
14876TIP3    H266044   5.882   3.665   2.923 -1.3701  2.0681 -2.5453
14877TIP3   OH266045   0.225   4.149   4.915 -0.5423 -0.0049  0.2935
14877TIP3    H166046   0.274   4.074   4.883 -0.6328 -0.1613  0.5135
14877TIP3    H266047   0.274   4.178   4.993  0.0771  0.8123 -0.3834
14878TIP3   OH266048   6.087   4.816  15.193  0.3115  0.0684  0.6190
14878TIP3    H166049   6.099   4.889  15.254 -0.1064  0.4272  0.2788
14878TIP3    H266050   6.044   4.749  15.245 -0.1161  0.4036  0.7051
14879TIP3   OH266051   1.000   3.019  13.828  0.3296 -0.3946 -0.2346
14879TIP3    H166052   0.908   3.007  13.803  0.4567 -1.9562 -0.0472
14879TIP3    H266053   1.003   2.997  13.921  0.9661 -0.7710 -0.3372
14880TIP3   OH266054   1.258   0.793  11.438  0.0544 -0.3389  0.1006
14880TIP3    H166055   1.293   0.705  11.447  1.1030  0.0496 -0.0663
14880TIP3    H266056   1.269   0.814  11.345  1.2943  0.5456  0.4106
14881TIP3   OH266057   2.967   0.963   1.308  0.1377  0.8595  0.0893
14881TIP3    H166058   2.957   0.990   1.400 -0.8312 -0.0144  0.2585
14881TIP3    H266059   3.025   1.029   1.270 -0.2534  1.7975  1.0758
14882TIP3   OH266060   4.126   1.234  13.934 -0.3281 -0.0370 -0.5111
14882TIP3    H166061   4.169   1.177  13.871  1.5167  0.3193  0.3453
14882TIP3    H266062   4.063   1.178  13.979  0.2988 -0.9896 -0.7938
14883TIP3   OH266063   0.489   4.646  11.068 -0.1779  0.4773 -0.6848
14883TIP3    H166064   0.532   4.633  10.983 -1.5456 -1.2378 -1.1700
14883TIP3    H266065   0.457   4.560  11.092  0.8662  0.7466  2.0211
14884TIP3   OH266066   6.574   2.979  15.871 -0.1352  0.5599 -0.2883
14884TIP3    H166067   6.606   2.982  15.961 -1.0136 -0.5013  0.0816
14884TIP3    H266068   6.529   2.895  15.864 -3.0223  2.0387 -0.7066
14885TIP3   OH266069   5.288   0.015  14.808  0.3239  0.2339 -0.4285
14885TIP3    H166070   5.270  -0.046  14.737  0.5087  0.9654 -1.1140
14885TIP3    H266071   5.285   0.102  14.767 -1.4592  0.8168  0.8181
14886TIP3   OH266072   2.437   5.507  10.926  0.6610  0.2497  0.2893
14886TIP3    H166073   2.500   5.487  10.856 -0.1636 -0.3760 -0.2922
14886TIP3    H266074   2.441   5.602  10.936  0.0265  0.4825 -1.3601
14887TIP3   OH266075   6.337   6.302   2.728 -0.3554 -0.8690 -0.6361
14887TIP3    H166076   6.408   6.275   2.786 -1.0364 -1.5213 -0.0955
14887TIP3    H266077   6.349   6.247   2.650  0.1977 -0.4146 -0.8846
14888TIP3   OH266078   0.772   5.141   4.242  0.6219 -0.4198  0.0350
14888TIP3    H166079   0.754   5.206   4.175 -1.5378  0.0306  0.9952
14888TIP3    H266080   0.848   5.175   4.289  1.6491 -0.3366 -1.5959
14889TIP3   OH266081   5.838   0.386  11.704 -0.5194  0.0472  0.4999
14889TIP3    H166082   5.855   0.463  11.650  0.4910 -1.0984 -0.8990
14889TIP3    H266083   5.925   0.359  11.735 -0.6015 -1.6110 -0.6013
14890TIP3   OH266084   0.890   5.322  14.110  0.4078  0.4012  0.0819
14890TIP3    H166085   0.972   5.276  14.091  0.5423  0.7669 -0.2155
14890TIP3    H266086   0.911   5.377  14.186  0.0676 -0.5122  0.8579
14891TIP3   OH266087   2.613   4.019   2.657 -0.0504 -0.1415  0.1690
14891TIP3    H166088   2.582   3.955   2.594 -0.2668  0.3946 -0.2741
14891TIP3    H266089   2.607   4.103   2.612  1.9906  0.0049  0.0729
14892TIP3   OH266090   1.887   1.908  16.405  0.0197 -0.3376  0.4820
14892TIP3    H166091   1.964   1.963  16.392 -0.1877  0.3807  2.0212
14892TIP3    H266092   1.910   1.852  16.480  0.1029 -2.1562 -0.8297
14893TIP3   OH266093   2.549   0.321   0.895 -0.4505 -0.0177 -0.1380
14893TIP3    H166094   2.548   0.266   0.816  1.2468 -1.1950  0.5936
14893TIP3    H266095   2.598   0.269   0.959 -2.5639  0.4778  2.0337
14894TIP3   OH266096   2.376   4.625  11.747  0.5950 -0.1724 -0.1025
14894TIP3    H166097   2.406   4.535  11.761 -0.9556 -0.5933  0.6157
14894TIP3    H266098   2.434   4.658  11.677  0.6085 -2.0233 -1.0353
14895TIP3   OH266099   4.866   6.258  16.120  0.1513 -0.1947 -0.0547
14895TIP3    H166100   4.882   6.277  16.212  0.2337  2.3338 -0.4954
14895TIP3    H266101   4.954   6.248  16.082  0.0984 -1.9850  0.2395
14896TIP3   OH266102   6.630   1.286  10.441 -0.2567  0.1423  0.2975
14896TIP3    H166103   6.656   1.223  10.509 -1.3160 -1.4813 -0.7371
14896TIP3    H266104   6.579   1.235  10.379 -1.6532  2.1737 -0.3240
14897TIP3   OH266105   4.377   6.003  15.393 -0.1427  0.4240 -0.2006
14897TIP3    H166106   4.465   5.983  15.362  0.8513  1.2871  1.8667
14897TIP3    H266107   4.327   5.923  15.377  1.4325 -0.6423 -0.0064
14898TIP3   OH266108   1.205   1.240  11.005  0.2173 -0.1149 -0.4558
14898TIP3    H166109   1.245   1.172  10.951  0.2823 -1.3613  1.0853
14898TIP3    H266110   1.240   1.225  11.093 -3.9424 -1.7407  1.1918
14899TIP3   OH266111   2.264   6.445   3.895  0.0756  0.1051 -0.1642
14899TIP3    H166112   2.229   6.439   3.984 -0.7097  2.8474 -0.2143
14899TIP3    H266113   2.199   6.398   3.841 -1.0727  1.0156  0.3687
14900TIP3   OH266114   0.053   0.871  11.301 -0.1341  0.0113  0.3909
14900TIP3    H166115   0.070   0.926  11.225  2.4431 -0.9299  0.1759
14900TIP3    H266116  -0.034   0.834  11.285 -0.4192  1.2523 -1.1786
14901TIP3   OH266117   5.860   0.944   0.178 -0.4542 -0.1122  0.0478
14901TIP3    H166118   5.927   0.913   0.239  0.6666  3.5918  0.9350
14901TIP3    H266119   5.898   0.929   0.092  0.3038 -0.5661  0.4479
14902TIP3   OH266120   1.961   0.105  14.606  0.1248  0.4975  0.0639
14902TIP3    H166121   2.048   0.140  14.584  0.0093  0.2693 -0.7865
14902TIP3    H266122   1.910   0.182  14.630  0.2448  0.7690 -0.5284
14903TIP3   OH266123   2.253   4.715   3.080  0.2023 -0.5626  0.1887
14903TIP3    H166124   2.305   4.771   3.137  0.0662 -0.1109 -0.1273
14903TIP3    H266125   2.268   4.749   2.992 -0.6090 -0.4345  0.0932
14904TIP3   OH266126   2.665   2.575   5.023 -0.2977  0.2937 -0.5924
14904TIP3    H166127   2.608   2.511   5.065 -0.7370  1.1616  0.1702
14904TIP3    H266128   2.745   2.527   5.003 -0.8446 -0.6377 -0.5905
14905TIP3   OH266129   6.184   2.513  13.980 -1.0271  0.1490 -0.4551
14905TIP3    H166130   6.149   2.585  14.033  1.0609  0.0210  1.2323
14905TIP3    H266131   6.262   2.484  14.028 -0.4362 -1.6417 -2.3700
14906TIP3   OH266132   6.153   1.617  11.161 -0.4243  0.1214  0.2485
14906TIP3    H166133   6.087   1.607  11.230 -0.4025  0.8115  0.3789
14906TIP3    H266134   6.206   1.691  11.190 -0.7590  0.7742 -0.7849
14907TIP3   OH266135   3.414   5.684   2.309 -0.1958 -0.4689  0.5010
14907TIP3    H166136   3.490   5.676   2.250 -0.0500 -0.7600  0.7241
14907TIP3    H266137   3.357   5.748   2.266  0.0207 -0.4992  0.1621
14908TIP3   OH266138   0.972   5.418   3.752 -0.3728 -0.2793  0.7716
14908TIP3    H166139   0.945   5.340   3.801  1.3841 -0.5938  1.3215
14908TIP3    H266140   0.892   5.449   3.711 -0.8587 -3.4367 -1.0008
14909TIP3   OH266141   3.575   3.749   4.635 -0.0614  0.4680  0.5677
14909TIP3    H166142   3.556   3.810   4.707 -0.2538 -0.8563  1.6718
14909TIP3    H266143   3.670   3.756   4.623 -0.1247  1.2330  0.4344
14910TIP3   OH266144   5.894   2.224   3.473 -0.4221 -0.1082 -0.0425
14910TIP3    H166145   5.838   2.176   3.412  1.5184 -0.2151 -1.8336
14910TIP3    H266146   5.954   2.273   3.418  0.1432  1.3827  1.7892
14911TIP3   OH266147   6.036   6.529   5.539 -0.6480  0.2217 -0.0324
14911TIP3    H166148   6.099   6.458   5.527  1.2994  1.6024  1.3330
14911TIP3    H266149   6.026   6.567   5.451 -0.6781 -0.8987 -0.5246
14912TIP3   OH266150   1.749   1.731   6.461  0.1859 -0.5475 -0.5052
14912TIP3    H166151   1.699   1.670   6.407 -1.5425  0.1535  0.2566
14912TIP3    H266152   1.764   1.683   6.543 -0.1305 -0.3779 -0.3495
14913TIP3   OH266153   3.184   2.736   1.223  0.4358  0.5231 -0.6463
14913TIP3    H166154   3.189   2.760   1.130 -0.1309  0.8346 -0.6029
14913TIP3    H266155   3.272   2.706   1.245  0.1283 -1.3470 -1.7673
14914TIP3   OH266156   6.560   1.827  13.847  0.1703  0.1416  0.0037
14914TIP3    H166157   6.637   1.882  13.859 -0.5045  0.9730  0.7459
14914TIP3    H266158   6.593   1.738  13.848  1.2318  0.5090 -0.6769
14915TIP3   OH266159   6.553   1.558   5.483  0.3407  0.4877 -0.4159
14915TIP3    H166160   6.643   1.561   5.515  0.1153 -0.6145  0.3661
14915TIP3    H266161   6.559   1.589   5.392  1.1363  2.7883  0.3426
14916TIP3   OH266162   0.515   3.640  14.843 -0.3794  0.3493 -0.2856
14916TIP3    H166163   0.563   3.656  14.924 -1.8239  1.1603  0.4553
14916TIP3    H266164   0.568   3.680  14.775  0.0692  1.1057  0.4875
14917TIP3   OH266165   0.605   3.418  17.233 -0.2199 -0.0995  0.3787
14917TIP3    H166166   0.531   3.471  17.263 -1.2233 -1.3704  0.2536
14917TIP3    H266167   0.564   3.339  17.197  1.0600  0.3351 -2.1839
14918TIP3   OH266168   1.820   0.287   3.679  0.2862 -0.8318  0.3786
14918TIP3    H166169   1.874   0.342   3.736 -0.6520  1.3568 -0.7560
14918TIP3    H266170   1.871   0.277   3.599  0.0082 -0.7399  0.1888
14919TIP3   OH266171   1.147   3.521  12.347  0.1122 -0.2609  0.2582
14919TIP3    H166172   1.132   3.510  12.441  0.7419 -0.4862  0.3330
14919TIP3    H266173   1.216   3.459  12.326  1.4526  1.2471  0.0550
14920TIP3   OH266174   6.288   5.975  14.853 -0.0035  0.1104  0.0815
14920TIP3    H166175   6.240   6.017  14.781  0.8717 -0.1393 -0.6687
14920TIP3    H266176   6.305   6.046  14.915 -1.1357  0.2437  0.2599
14921TIP3   OH266177   1.633   5.528  11.340  0.7854 -0.1407  0.4160
14921TIP3    H166178   1.576   5.468  11.292  0.7416  0.1315  0.1217
14921TIP3    H266179   1.663   5.590  11.274  3.4062 -1.6925  0.0008
14922TIP3   OH266180   4.160   1.355  16.507  0.1225  0.0954 -0.1946
14922TIP3    H166181   4.250   1.336  16.534  0.0292  0.1612  0.1697
14922TIP3    H266182   4.122   1.270  16.485  0.4401  0.1241 -0.8776
14923TIP3   OH266183   2.914   3.931  15.095  0.5117  0.0480  0.4767
14923TIP3    H166184   2.930   3.837  15.103 -0.2748 -0.1813 -0.4333
14923TIP3    H266185   2.882   3.942  15.006  0.1992  1.1265  0.7107
14924TIP3   OH266186   0.177   0.126   4.049 -0.6466 -0.1134  0.0064
14924TIP3    H166187   0.268   0.154   4.048 -0.7743  0.4042 -2.0015
14924TIP3    H266188   0.153   0.123   4.142  1.3229 -0.0388  0.5586
14925TIP3   OH266189   4.856   1.875  14.439  0.0454  0.5654 -0.6479
14925TIP3    H166190   4.839   1.849  14.348 -1.0974  0.1182 -0.3290
14925TIP3    H266191   4.852   1.793  14.488  0.1235  0.8719 -0.1253
14926TIP3   OH266192   4.369   1.106  16.467 -0.1596  0.1626 -0.0980
14926TIP3    H166193   4.282   1.098  16.506  0.1178  2.0676  1.0330
14926TIP3    H266194   4.428   1.073  16.534  0.0506 -1.2896 -0.9294
14927TIP3   OH266195   5.249   5.442   3.586  0.1899  0.3246  0.0265
14927TIP3    H166196   5.342   5.459   3.569 -0.1430  2.6947  0.2457
14927TIP3    H266197   5.204   5.469   3.505 -0.3588 -0.1599  0.1640
14928TIP3   OH266198   2.109   4.234   1.046 -0.1954  0.3919 -0.0337
14928TIP3    H166199   2.157   4.217   0.965 -0.4797 -0.7510  0.0226
14928TIP3    H266200   2.173   4.277   1.103  0.1106  0.8734 -0.7231
14929TIP3   OH266201   1.728   2.832  11.703 -0.5394  0.1370 -0.2547
14929TIP3    H166202   1.659   2.856  11.765 -0.1620  0.2780  0.1190
14929TIP3    H266203   1.808   2.835  11.755 -0.1809  0.5284 -0.8173
14930TIP3   OH266204   6.657   1.402  16.956 -0.4095  0.8446  0.2241
14930TIP3    H166205   6.563   1.418  16.951 -0.2131  2.1586  0.5178
14930TIP3    H266206   6.676   1.399  17.050 -0.5861 -2.2952  0.2649
14931TIP3   OH266207   3.822   5.280  17.111  0.4415  0.3028  0.1605
14931TIP3    H166208   3.813   5.185  17.125  1.5259  0.2456  0.5638
14931TIP3    H266209   3.737   5.307  17.078 -0.0469 -0.7347  0.5089
14932TIP3   OH266210   4.306   4.050   1.339  0.5970  0.0256  0.6848
14932TIP3    H166211   4.284   3.963   1.305  0.3529  0.0445  0.7937
14932TIP3    H266212   4.222   4.096   1.343  0.9557  1.0083 -1.4289
14933TIP3   OH266213   2.114   0.280  13.718  0.1742  0.2250  0.7704
14933TIP3    H166214   2.066   0.335  13.780 -1.2997  0.2632 -0.3531
14933TIP3    H266215   2.048   0.223  13.680  1.4330 -1.3896  0.8714
14934TIP3   OH266216   5.092   1.974  16.442  0.0449  0.7844 -0.5206
14934TIP3    H166217   5.063   2.003  16.356  0.1047 -0.1658 -0.8740
14934TIP3    H266218   5.033   2.019  16.503  0.6549  2.2632 -0.9799
14935TIP3   OH266219   4.497   3.750   0.063 -0.2173  0.1548  0.2807
14935TIP3    H166220   4.515   3.661   0.034 -0.3687 -0.3479  1.6499
14935TIP3    H266221   4.583   3.790   0.073 -0.1439  0.1109 -0.1491
14936TIP3   OH266222   5.616   5.386   4.755 -1.0365 -0.2043 -0.1100
14936TIP3    H166223   5.522   5.389   4.736 -1.0527 -0.0232 -0.0067
14936TIP3    H266224   5.634   5.294   4.772 -1.1421 -0.2765 -0.3951
14937TIP3   OH266225   4.444   4.449   5.447  0.4064  0.2710 -0.0700
14937TIP3    H166226   4.413   4.433   5.536  0.5403 -2.5516 -0.4442
14937TIP3    H266227   4.368   4.481   5.400  0.4318  2.1976  1.1068
14938TIP3   OH266228   4.667   2.336   0.866  0.3338  1.0792  0.3825
14938TIP3    H166229   4.640   2.314   0.777  0.3055  2.8834 -0.0993
14938TIP3    H266230   4.588   2.323   0.919 -0.5408  2.8230 -0.4020
14939TIP3   OH266231   3.457   0.731   3.073 -0.6891 -0.0046 -0.1785
14939TIP3    H166232   3.429   0.814   3.111  1.0285  0.7036 -0.3923
14939TIP3    H266233   3.421   0.665   3.132 -2.6332  0.8242 -0.3700
14940TIP3   OH266234   1.473   3.492   0.694  0.2241 -0.4942  0.2992
14940TIP3    H166235   1.414   3.567   0.684  0.7354 -0.1834 -0.3880
14940TIP3    H266236   1.490   3.488   0.788  0.1683  0.2253  0.3449
14941TIP3   OH266237   0.134   0.613  14.902 -0.3624  0.1815 -0.0082
14941TIP3    H166238   0.190   0.546  14.942 -1.6577 -0.6650  0.4489
14941TIP3    H266239   0.186   0.694  14.908  0.2775 -0.3007  1.6064
14942TIP3   OH266240   3.283   5.296  16.184  0.7014  0.0292  0.0940
14942TIP3    H166241   3.241   5.381  16.168 -0.0854 -0.5578 -1.1102
14942TIP3    H266242   3.373   5.309  16.156  0.6205  0.5101  0.0428
14943TIP3   OH266243   4.920   1.174   0.654  0.9721  0.6098  0.3067
14943TIP3    H166244   4.880   1.116   0.720  0.5324  2.6100  1.8879
14943TIP3    H266245   4.982   1.227   0.704  0.1369  2.6539 -0.7217
14944TIP3   OH266246   5.644   2.631   4.745 -0.1790  0.4069 -0.0676
14944TIP3    H166247   5.712   2.565   4.731  0.4308  0.4916  2.1326
14944TIP3    H266248   5.597   2.635   4.662  1.2502 -1.0869 -1.0103
14945TIP3   OH266249   6.475   2.052  14.591  0.2526 -0.0773 -0.7859
14945TIP3    H166250   6.467   2.093  14.505 -0.0119  0.5632 -0.4588
14945TIP3    H266251   6.385   2.046  14.624  0.4627  1.0346  0.0612
14946TIP3   OH266252   1.535   5.349   4.403 -0.0421  0.3142  0.1151
14946TIP3    H166253   1.497   5.325   4.487  0.0014  1.2246  0.4045
14946TIP3    H266254   1.465   5.393   4.356  0.1147  0.3665 -0.0719
14947TIP3   OH266255   0.546   3.630  15.429  0.5378 -0.8811 -0.1776
14947TIP3    H166256   0.600   3.625  15.350  0.7519 -0.9654 -0.0269
14947TIP3    H266257   0.498   3.712  15.420 -0.2917 -1.4257 -0.9442
14948TIP3   OH266258   5.478   5.198  11.997  0.3019  0.4800 -0.1156
14948TIP3    H166259   5.460   5.107  12.020  2.7192  0.2291  1.1107
14948TIP3    H266260   5.394   5.231  11.964 -0.3441 -2.5281 -1.8837
14949TIP3   OH266261   6.034   6.351   4.943  0.3945  0.0018 -0.2797
14949TIP3    H166262   6.128   6.365   4.946  0.3697  0.1953  2.8842
14949TIP3    H266263   6.022   6.261   4.974 -0.5009  0.8648  2.1154
14950TIP3   OH266264   2.737   5.736   6.294  0.3295  0.6680 -0.2951
14950TIP3    H166265   2.659   5.791   6.291  0.0666  0.3922  0.8913
14950TIP3    H266266   2.717   5.662   6.238 -0.8805 -0.1557  1.1519
14951TIP3   OH266267   1.176   0.103   0.358 -0.0974 -0.1481  0.5046
14951TIP3    H166268   1.186   0.076   0.267  1.2368 -0.4651  0.7284
14951TIP3    H266269   1.265   0.120   0.389 -0.4322 -0.8400  1.9816
14952TIP3   OH266270   6.693   6.716   5.892 -0.0097 -0.3437  0.3379
14952TIP3    H166271   6.747   6.747   5.965  0.3603  1.2093 -0.5531
14952TIP3    H266272   6.605   6.748   5.912  0.6159  2.6196 -1.2337
14953TIP3   OH266273   4.739   6.063  14.357 -0.0435  0.0617  0.0690
14953TIP3    H166274   4.712   6.081  14.447  0.6751  0.0991  0.2879
14953TIP3    H266275   4.745   5.968  14.351  0.2417  0.0726  0.1663
14954TIP3   OH266276   1.779   0.640  16.909  0.8678 -0.1420  0.1283
14954TIP3    H166277   1.868   0.674  16.903  0.6300  0.3542 -0.9507
14954TIP3    H266278   1.724   0.711  16.873 -0.3632  0.9791  3.8201
14955TIP3   OH266279   0.628   0.121   5.779 -0.0105  0.0058 -0.1870
14955TIP3    H166280   0.668   0.105   5.693 -0.4349 -2.8860  0.0577
14955TIP3    H266281   0.702   0.118   5.840  0.0701  0.1810 -0.2765
14956TIP3   OH266282   1.229   5.302  14.131  0.0276 -0.5424  0.2149
14956TIP3    H166283   1.170   5.292  14.056 -0.2845 -1.5633  0.5851
14956TIP3    H266284   1.254   5.394  14.130 -2.1092  0.0791  0.4391
14957TIP3   OH266285   1.677   1.290  14.130 -0.0338 -0.0039  0.1447
14957TIP3    H166286   1.739   1.272  14.201 -1.0353  0.5457  1.1867
14957TIP3    H266287   1.629   1.209  14.119  0.1005 -0.0803  0.1227
14958TIP3   OH266288   2.841   3.167  10.516 -0.0991  0.2197  0.5706
14958TIP3    H166289   2.919   3.220  10.531  0.1253  0.2305 -0.5840
14958TIP3    H266290   2.873   3.076  10.517 -0.6947 -0.1107  4.0379
14959TIP3   OH266291   1.606   1.964   3.722  0.0220  0.0194 -0.7145
14959TIP3    H166292   1.581   1.975   3.814 -0.9478 -0.6893 -0.8711
14959TIP3    H266293   1.690   1.918   3.725  0.0683  0.1306 -0.1849
14960TIP3   OH266294   2.991   5.655   6.226 -0.1550  0.3258  0.0656
14960TIP3    H166295   3.010   5.597   6.300  0.4035 -1.9928 -1.7437
14960TIP3    H266296   2.897   5.671   6.231 -0.3111 -0.7155  0.6784
14961TIP3   OH266297   6.294   4.484  12.545  0.0651 -0.9107 -0.2359
14961TIP3    H166298   6.243   4.459  12.468 -0.6800 -1.1213  0.3182
14961TIP3    H266299   6.352   4.410  12.561 -0.6376 -1.3897  0.1289
14962TIP3   OH266300   5.965   0.399   2.918  0.4013  0.2286 -0.1831
14962TIP3    H166301   5.949   0.481   2.872 -1.0723  0.0775  0.0133
14962TIP3    H266302   6.005   0.342   2.852  0.5531  0.7894 -0.5835
14963TIP3   OH266303   5.225   1.071  17.013 -0.2934  0.0327 -0.8302
14963TIP3    H166304   5.320   1.070  17.004 -0.3133  1.2036 -1.4399
14963TIP3    H266305   5.201   1.163  17.000 -1.6497 -0.4867 -2.3211
14964TIP3   OH266306   3.195   3.108  14.996  0.0556 -0.1214 -0.0705
14964TIP3    H166307   3.278   3.063  15.010  0.9015  0.8069 -1.7376
14964TIP3    H266308   3.136   3.071  15.061  1.7337 -0.8976  1.0843
14965TIP3   OH266309   3.407   2.098  13.382 -0.3172  0.2955 -0.0786
14965TIP3    H166310   3.471   2.027  13.377 -0.5582  0.1466 -1.3454
14965TIP3    H266311   3.326   2.055  13.409 -0.5187  0.0378 -1.0676
14966TIP3   OH266312   5.658   0.190  10.768  0.3463  0.3139 -0.2177
14966TIP3    H166313   5.698   0.268  10.730 -0.6669  0.7358 -0.4478
14966TIP3    H266314   5.571   0.186  10.729 -1.1343  1.2925  2.6674
14967TIP3   OH266315   4.556   0.934  16.686  0.4202 -0.0901 -0.3433
14967TIP3    H166316   4.548   0.994  16.760 -0.4889 -0.7014  0.0838
14967TIP3    H266317   4.646   0.943  16.656  0.6709  0.4890  0.5630
14968TIP3   OH266318   2.634   3.279   0.814  0.0288 -0.3749  0.8497
14968TIP3    H166319   2.703   3.334   0.776 -0.4084  0.0269  0.6211
14968TIP3    H266320   2.677   3.233   0.885  0.0301  1.5804  2.1991
14969TIP3   OH266321   5.346   6.744   2.175  0.4942 -0.7517 -0.1331
14969TIP3    H166322   5.397   6.673   2.135  0.6061 -0.9578  0.3643
14969TIP3    H266323   5.388   6.758   2.261  1.1198  0.6027 -0.6187
14970TIP3   OH266324   4.328   1.365  15.638 -0.3610 -0.2518 -0.8945
14970TIP3    H166325   4.319   1.356  15.733 -0.1349  1.3737 -0.6868
14970TIP3    H266326   4.419   1.341  15.620 -0.3837 -0.4888 -0.7055
14971TIP3   OH266327   1.234   0.983  15.060 -0.1843 -0.1777  0.1758
14971TIP3    H166328   1.201   1.049  15.000  1.7780  0.3794 -0.3630
14971TIP3    H266329   1.290   1.032  15.121  0.8514 -1.2353  0.1094
14972TIP3   OH266330   0.821   0.859  15.194 -0.2375  0.2559 -0.6346
14972TIP3    H166331   0.863   0.783  15.236  1.7358  2.0260  0.7965
14972TIP3    H266332   0.754   0.887  15.256  1.4024  1.7210  0.5743
14973TIP3   OH266333   0.781   0.431   3.449  0.1647  0.3036  0.1305
14973TIP3    H166334   0.741   0.493   3.388  1.1710 -1.5353 -2.5943
14973TIP3    H266335   0.732   0.350   3.436  0.8011 -0.3083  1.3831
14974TIP3   OH266336   6.092   6.486   4.542  0.4893 -0.0801 -0.2245
14974TIP3    H166337   6.056   6.486   4.630  0.2102 -1.8703 -0.2970
14974TIP3    H266338   6.078   6.396   4.510  1.8816  0.1239 -1.5497
14975TIP3   OH266339   5.086   4.457   3.794 -0.5246  0.0839  0.2643
14975TIP3    H166340   4.999   4.496   3.801  0.2355  2.3802 -1.6078
14975TIP3    H266341   5.076   4.369   3.832 -3.5776  0.3195  0.2912
14976TIP3   OH266342   0.286   4.839  12.594  0.7319 -0.2346  0.1888
14976TIP3    H166343   0.358   4.902  12.593 -1.9920  3.1895 -0.1039
14976TIP3    H266344   0.300   4.784  12.517  0.8726  3.1609 -2.4255
14977TIP3   OH266345   6.633   1.549  14.310 -0.3444 -0.0137  0.0500
14977TIP3    H166346   6.561   1.495  14.279  0.4648 -0.5701 -0.9536
14977TIP3    H266347   6.595   1.636  14.321 -1.3492 -0.4776  0.3528
14978TIP3   OH266348   2.256   5.497   3.787 -0.3312 -0.2158 -0.1240
14978TIP3    H166349   2.277   5.589   3.802  0.3923 -0.3924 -0.0347
14978TIP3    H266350   2.208   5.497   3.704  2.9128 -0.1297 -2.1745
14979TIP3   OH266351   0.783   4.801   0.869 -0.4119 -0.2796  0.0160
14979TIP3    H166352   0.864   4.841   0.840 -0.6861 -0.4136 -0.9992
14979TIP3    H266353   0.747   4.760   0.790 -1.3569 -0.4027  0.4880
14980TIP3   OH266354   0.470   1.512  12.313 -0.3837 -0.2078  0.4861
14980TIP3    H166355   0.391   1.548  12.272  0.5526  0.7879 -0.5190
14980TIP3    H266356   0.440   1.479  12.397 -1.6633  1.1762  0.6268
14981TIP3   OH266357   5.304   2.049   1.481  0.1753  0.3827 -0.4223
14981TIP3    H166358   5.233   2.105   1.451  2.4635  2.3202 -2.6543
14981TIP3    H266359   5.339   2.009   1.402  3.3179  1.7648  0.1022
14982TIP3   OH266360   6.014   6.101  16.680 -0.0622  0.0885 -0.1802
14982TIP3    H166361   6.105   6.085  16.655 -0.0638  1.2269 -0.9765
14982TIP3    H266362   5.975   6.140  16.603 -0.7658  1.2420  0.7371
14983TIP3   OH266363   0.449   5.734   1.994  0.7717  0.5730  0.2731
14983TIP3    H166364   0.408   5.788   2.061 -2.6044 -1.4926  0.1341
14983TIP3    H266365   0.496   5.666   2.043  1.6163  1.2851  0.4692
14984TIP3   OH266366   2.695   3.049  16.735 -0.3636  0.4838 -0.0396
14984TIP3    H166367   2.783   3.080  16.760 -0.6287  0.4278  1.0055
14984TIP3    H266368   2.678   2.976  16.794 -0.7040 -0.1696 -0.9371
14985TIP3   OH266369   6.748   5.316   6.353 -0.4122  0.1250 -0.1379
14985TIP3    H166370   6.756   5.404   6.390 -1.6545  0.4070 -0.5086
14985TIP3    H266371   6.801   5.262   6.411  1.2470  1.2728 -0.5163
14986TIP3   OH266372   3.110   0.329  13.277 -0.2529 -0.8470  0.2918
14986TIP3    H166373   3.162   0.253  13.303  2.8444  0.8277 -0.5685
14986TIP3    H266374   3.080   0.367  13.360 -0.4140 -2.0135  0.7940
14987TIP3   OH266375   6.693   1.171   3.347 -0.5822  0.1101  0.3892
14987TIP3    H166376   6.653   1.220   3.418 -2.9247  0.7472 -1.2582
14987TIP3    H266377   6.652   1.084   3.351  0.5287 -0.4190  0.8018
14988TIP3   OH266378   5.501   5.129   5.678  0.1598 -0.4893  0.0151
14988TIP3    H166379   5.470   5.136   5.768 -0.0872 -3.5310  0.2648
14988TIP3    H266380   5.479   5.213   5.638 -0.9544  0.4402  2.4077
14989TIP3   OH266381   3.948   5.946   3.948  0.1609  0.2655 -0.2812
14989TIP3    H166382   3.955   6.036   3.916  0.4636  0.0739 -0.7661
14989TIP3    H266383   4.033   5.929   3.990  0.1378  0.1788 -0.2697
14990TIP3   OH266384   0.463   5.139   1.914  0.1871  0.0974  0.2116
14990TIP3    H166385   0.549   5.109   1.943  1.1142  0.7475 -1.6940
14990TIP3    H266386   0.433   5.071   1.853  0.0807  0.6398 -0.3486
14991TIP3   OH266387   3.865   3.116   0.608 -0.0423  0.1283 -0.0533
14991TIP3    H166388   3.807   3.111   0.683 -0.7202 -3.1596 -0.6124
14991TIP3    H266389   3.949   3.081   0.640  0.1048  0.1221 -0.4378
14992TIP3   OH266390   1.065   2.325  13.656 -0.2409  0.2472 -0.2124
14992TIP3    H166391   1.086   2.266  13.584 -1.2757 -1.1257  0.5567
14992TIP3    H266392   0.969   2.330  13.656 -0.4141 -1.4428  2.2890
14993TIP3   OH266393   5.024   2.952   0.297 -0.1739  0.4955 -0.4609
14993TIP3    H166394   4.973   3.021   0.255 -0.2049  0.7154 -0.0698
14993TIP3    H266395   5.105   2.948   0.247 -0.2120  0.7514 -0.5458
14994TIP3   OH266396   3.422   0.270   1.891  0.0409  0.3079  0.3830
14994TIP3    H166397   3.495   0.281   1.830  0.7010  0.2089  1.1533
14994TIP3    H266398   3.361   0.339   1.867  0.8050  0.9781  0.3330
14995TIP3   OH266399   5.353   0.681   3.207  0.0172 -0.2502 -0.2959
14995TIP3    H166400   5.349   0.625   3.130  2.6675 -0.4582 -0.3649
14995TIP3    H266401   5.364   0.770   3.172 -1.2004 -0.0309 -0.1544
14996TIP3   OH266402   3.136   5.796  11.256  0.0539  0.2080  0.2327
14996TIP3    H166403   3.203   5.740  11.296  1.2942  0.8106 -0.9240
14996TIP3    H266404   3.162   5.885  11.280 -0.3764  0.4473 -0.1792
14997TIP3   OH266405   2.793   3.580   2.936 -0.1960  0.4926  0.0993
14997TIP3    H166406   2.845   3.514   2.890  0.0343  1.0696 -0.4896
14997TIP3    H266407   2.811   3.662   2.889  0.7282  1.2784  1.7276
14998TIP3   OH266408   5.844   6.676   4.402  0.2291 -0.4571  0.2758
14998TIP3    H166409   5.921   6.666   4.347  0.0051  1.4827 -0.4853
14998TIP3    H266410   5.878   6.683   4.491  1.0201  0.9633 -0.1085
14999TIP3   OH266411   3.264   0.909  14.332  0.5596 -0.0931 -0.8306
14999TIP3    H166412   3.199   0.898  14.401 -0.1766  0.5578 -1.4001
14999TIP3    H266413   3.252   0.833  14.275  0.1029  0.1673 -1.0850
15000TIP3   OH266414   0.149   2.392   3.621  0.2675  0.0824 -0.3213
15000TIP3    H166415   0.053   2.394   3.624  0.1917  0.9328 -1.9323
15000TIP3    H266416   0.176   2.466   3.676 -0.2506  2.8688 -3.4201
15001TIP3   OH266417   0.179   0.366  13.888  0.3073  0.7621 -0.2774
15001TIP3    H166418   0.217   0.449  13.915 -0.0432  0.5060  1.0834
15001TIP3    H266419   0.165   0.318  13.970  3.5362 -2.0139 -1.1002
15002TIP3   OH266420   2.056   5.633  16.601  0.0057 -0.5085  0.0533
15002TIP3    H166421   1.969   5.648  16.638  0.8733  1.9029  1.3963
15002TIP3    H266422   2.101   5.718  16.611  1.4533 -0.6500 -3.6323
15003TIP3   OH266423   3.953   3.872   2.032 -0.9105 -0.1582 -0.7867
15003TIP3    H166424   3.966   3.898   1.941 -0.6504 -0.6782 -0.9057
15003TIP3    H266425   3.978   3.779   2.034 -0.0994  0.0546 -0.0183
15004TIP3   OH266426   2.932   0.754   1.138 -0.1836 -0.2815  0.0882
15004TIP3    H166427   2.935   0.812   1.214 -0.1730  1.8712 -1.4901
15004TIP3    H266428   2.870   0.794   1.078  0.3546 -1.5167 -1.3779
15005TIP3   OH266429   4.680   3.188  10.438  0.3228  0.4263  0.0054
15005TIP3    H166430   4.629   3.123  10.486  1.5521  0.4187  1.3922
15005TIP3    H266431   4.764   3.192  10.485  2.0521 -0.3582 -2.7847
15006TIP3   OH266432   2.613   6.305   4.526 -0.1530  0.6721  0.0451
15006TIP3    H166433   2.544   6.254   4.568 -1.8652  1.9310 -1.1403
15006TIP3    H266434   2.628   6.261   4.443  1.6849 -0.5248  0.9246
15007TIP3   OH266435   1.057   0.787  14.940  0.1141 -0.1440 -0.8169
15007TIP3    H166436   1.058   0.820  14.850 -2.2825 -0.1014 -0.8954
15007TIP3    H266437   1.120   0.843  14.987  2.3501 -0.9690 -2.6509
15008TIP3   OH266438   5.390   0.611  11.929  0.5654 -0.0956 -0.6103
15008TIP3    H166439   5.339   0.679  11.886  1.5842  0.5600 -0.8350
15008TIP3    H266440   5.476   0.615  11.887  1.3245 -0.0276  0.8548
15009TIP3   OH266441   4.715   5.859   3.043 -0.3676  0.8129  0.0168
15009TIP3    H166442   4.734   5.882   3.134  2.0757 -0.2952 -0.1227
15009TIP3    H266443   4.722   5.941   2.995  0.2405  1.0919  0.5697
15010TIP3   OH266444   0.919   5.343  14.889 -0.3899  0.4543 -0.6557
15010TIP3    H166445   0.967   5.370  14.968 -0.5187 -1.3722  0.0937
15010TIP3    H266446   0.987   5.316  14.828 -0.2236  2.8535 -1.6309
15011TIP3   OH266447   4.421   0.571   3.131 -0.2480 -0.1044 -0.0897
15011TIP3    H166448   4.435   0.520   3.210 -1.7019 -0.3322  0.0428
15011TIP3    H266449   4.509   0.583   3.094  0.2323 -1.8161  0.4164
15012TIP3   OH266450   4.278   6.695   0.321 -0.4770  0.4163 -0.2494
15012TIP3    H166451   4.358   6.642   0.324 -0.0689  1.0502  1.4501
15012TIP3    H266452   4.222   6.658   0.390 -1.7193 -0.0840 -1.4828
15013TIP3   OH266453   1.175   4.042   4.795 -0.5434 -0.5311  0.2128
15013TIP3    H166454   1.156   3.969   4.736 -3.5621  0.6925 -0.5197
15013TIP3    H266455   1.099   4.047   4.853  0.5388  0.7780  1.6209
15014TIP3   OH266456   5.247   0.401   4.917 -0.5799  0.2253  0.6868
15014TIP3    H166457   5.333   0.444   4.917 -1.4739  2.0920  0.8531
15014TIP3    H266458   5.255   0.332   4.983  0.4575  1.0430  1.4486
15015TIP3   OH266459   1.458   2.381   4.597 -0.1553  0.0072  0.3370
15015TIP3    H166460   1.405   2.444   4.646  1.8009  0.0955  2.5494
15015TIP3    H266461   1.500   2.432   4.528 -0.5465  0.5852  0.5278
15016TIP3   OH266462   6.228   6.663   3.063 -0.0292 -0.1763 -0.5704
15016TIP3    H166463   6.260   6.745   3.025 -1.8521 -0.0656 -2.0033
15016TIP3    H266464   6.181   6.690   3.141  1.3408 -0.1299  0.2773
15017TIP3   OH266465   4.104   1.993   0.455  0.0221 -0.1410 -0.5226
15017TIP3    H166466   4.166   1.953   0.516  2.0410  1.9804 -0.9892
15017TIP3    H266467   4.153   1.999   0.373 -1.4451  0.0811 -1.4131
15018TIP3   OH266468   3.022   1.164   3.028  0.7530 -0.2760 -0.7217
15018TIP3    H166469   3.046   1.242   2.978  1.4944  0.2571  0.4217
15018TIP3    H266470   2.937   1.186   3.067 -0.1618 -0.9511 -2.2244
15019TIP3   OH266471   3.704   0.608  10.940  0.0751  0.2221 -0.5668
15019TIP3    H166472   3.768   0.581  10.874  0.0752  0.9156 -0.8615
15019TIP3    H266473   3.723   0.701  10.954  0.3905 -0.0232  0.7630
15020TIP3   OH266474   6.242   2.711   3.780  0.3929 -1.0964 -0.2192
15020TIP3    H166475   6.306   2.645   3.806  0.7261 -1.3228 -1.5181
15020TIP3    H266476   6.166   2.694   3.835  1.4178 -0.8398  1.3460
15021TIP3   OH266477   1.540   0.254  10.928 -0.2146 -0.0969 -0.2882
15021TIP3    H166478   1.451   0.222  10.945 -0.1376 -0.6494 -0.9033
15021TIP3    H266479   1.545   0.337  10.976 -0.0804 -1.4652  2.2711
15022TIP3   OH266480   4.675   1.558  10.376  0.3069  0.2832  0.1898
15022TIP3    H166481   4.646   1.507  10.300  0.6535  0.3921 -0.0215
15022TIP3    H266482   4.600   1.557  10.436  0.1006  0.0257 -0.0656
15023TIP3   OH266483   3.199   1.011  16.611  0.4397 -0.1032 -0.0138
15023TIP3    H166484   3.109   1.039  16.594 -0.5920 -2.5345  1.0445
15023TIP3    H266485   3.217   0.944  16.545  0.4110 -1.6468  1.4838
15024TIP3   OH266486   3.941   3.394  12.844 -0.5093 -0.1868  0.2074
15024TIP3    H166487   3.901   3.426  12.763  0.5300  1.6923  0.3609
15024TIP3    H266488   3.995   3.320  12.817 -0.3064  0.3114 -0.8163
15025TIP3   OH266489   3.592   5.335  16.939  0.6132  0.0501  0.3670
15025TIP3    H166490   3.509   5.381  16.934 -0.5205 -2.0296 -1.3763
15025TIP3    H266491   3.635   5.354  16.856  0.2504 -1.7100 -0.2629
15026TIP3   OH266492   2.549   4.887   3.844 -0.7498 -0.3093  0.0355
15026TIP3    H166493   2.456   4.876   3.861 -0.6208 -0.6689  0.5175
15026TIP3    H266494   2.554   4.965   3.787 -1.3779 -0.6183 -0.4529
15027TIP3   OH266495   0.284   0.741   5.582 -0.1891 -0.8334  0.7373
15027TIP3    H166496   0.259   0.818   5.633  1.5763  1.5567 -1.7353
15027TIP3    H266497   0.374   0.722   5.610  0.3377 -0.2782 -0.4965
15028TIP3   OH266498   2.706   1.933  11.520 -0.7552  0.3298 -0.1698
15028TIP3    H166499   2.727   1.953  11.611  2.0901 -0.1742 -0.5990
15028TIP3    H266500   2.659   2.010  11.488  0.7411  1.7996  0.9856
15029TIP3   OH266501   5.485   0.616  16.189 -0.6437  0.6445 -0.7906
15029TIP3    H166502   5.533   0.673  16.249  0.8570 -0.5030 -0.8443
15029TIP3    H266503   5.547   0.597  16.119 -0.3357 -2.5850  0.1857
15030TIP3   OH266504   6.243   1.549  16.012 -0.1782  0.1710  0.2837
15030TIP3    H166505   6.208   1.595  15.935  0.6274  0.0109 -0.1874
15030TIP3    H266506   6.200   1.591  16.086 -3.7422 -1.9312 -0.3350
15031TIP3   OH266507   6.484   6.455   1.380 -0.0287  0.1760 -0.3519
15031TIP3    H166508   6.561   6.510   1.396 -0.0301  0.3873 -1.0553
15031TIP3    H266509   6.491   6.385   1.445  0.6125  0.3377 -0.2411
15032TIP3   OH266510   3.139   2.520   3.656 -0.2092 -0.1082 -0.3014
15032TIP3    H166511   3.071   2.497   3.719  0.7617 -1.1441  0.4045
15032TIP3    H266512   3.217   2.535   3.708  0.2707  0.4665 -1.1511
15033TIP3   OH266513   1.722   3.754   2.434 -0.3846  0.1471 -0.8228
15033TIP3    H166514   1.794   3.701   2.401 -0.8520 -0.7922 -0.3903
15033TIP3    H266515   1.748   3.845   2.418  0.5433 -0.2079 -1.3562
15034TIP3   OH266516   5.672   2.817  15.870  0.6491 -0.4520 -0.0791
15034TIP3    H166517   5.607   2.853  15.931  0.8733 -1.0522  0.5291
15034TIP3    H266518   5.621   2.770  15.805  0.3224  1.1896 -1.0793
15035TIP3   OH266519   1.976   5.791  15.000 -0.4133  0.3775 -0.5151
15035TIP3    H166520   2.043   5.814  15.065  1.0960  0.6052 -2.1025
15035TIP3    H266521   1.986   5.697  14.987 -0.7868  0.3136 -0.3571
15036TIP3   OH266522   3.734   3.905  16.772  0.6439 -0.0437 -0.0301
15036TIP3    H166523   3.816   3.943  16.803  0.9830 -1.1376  0.4829
15036TIP3    H266524   3.760   3.854  16.695  0.6531 -1.2386  0.7337
15037TIP3   OH266525   4.330   3.375  10.751 -0.2426  0.7580 -0.3768
15037TIP3    H166526   4.355   3.371  10.659 -2.7815 -0.8026 -1.1097
15037TIP3    H266527   4.373   3.300  10.791 -0.5822  0.3551 -0.7437
15038TIP3   OH266528   2.784   3.855  17.245  0.1580 -0.0187 -0.3036
15038TIP3    H166529   2.863   3.854  17.191  0.8172 -0.2753  0.6451
15038TIP3    H266530   2.757   3.947  17.246  1.0585  0.2470  0.2289
15039TIP3   OH266531   0.609   1.980  12.030  0.4054 -0.2322 -0.0242
15039TIP3    H166532   0.649   1.923  11.964 -0.1817 -0.1600 -0.4556
15039TIP3    H266533   0.538   2.023  11.983  1.9207  2.2404 -0.2356
15040TIP3   OH266534   1.454   2.018   0.328 -0.5674 -0.8067 -0.1127
15040TIP3    H166535   1.478   1.935   0.285  2.5011 -1.9126  3.2823
15040TIP3    H266536   1.523   2.079   0.303  0.3560 -1.0035  1.8101
15041TIP3   OH266537   5.143   3.094  15.396  0.2084  0.3216 -0.0826
15041TIP3    H166538   5.056   3.064  15.421  0.9157 -0.7423  1.2644
15041TIP3    H266539   5.175   3.027  15.336  0.0075  0.8562 -0.7970
15042TIP3   OH266540   6.242   4.115  11.284  0.6809  0.2049 -0.6521
15042TIP3    H166541   6.220   4.067  11.204 -0.1600  1.6019 -1.2859
15042TIP3    H266542   6.327   4.155  11.264  0.5288  0.4536 -0.8049
15043TIP3   OH266543   3.719   6.221   5.549 -0.4611  0.5017  0.4832
15043TIP3    H166544   3.690   6.187   5.634  1.3429  0.4283  1.1030
15043TIP3    H266545   3.745   6.311   5.566  2.2032 -0.2178  0.6030
15044TIP3   OH266546   2.651   0.867   1.742 -0.4415  0.3276 -0.3289
15044TIP3    H166547   2.705   0.891   1.817 -0.8925 -1.9975  0.8244
15044TIP3    H266548   2.714   0.845   1.673  0.1575 -1.6480  0.7730
15045TIP3   OH266549   2.814   6.096  11.502 -0.2849 -0.3441  0.4603
15045TIP3    H166550   2.857   6.083  11.587  0.6736 -1.5852 -0.1860
15045TIP3    H266551   2.874   6.150  11.452  0.3260 -1.6335 -0.2536
15046TIP3   OH266552   3.903   1.231  17.207 -0.2869  0.3398  0.5058
15046TIP3    H166553   3.973   1.169  17.189 -1.1949 -0.3133 -1.0158
15046TIP3    H266554   3.882   1.269  17.122 -2.8162 -0.6508  0.5835
15047TIP3   OH266555   6.739   1.029   5.412 -0.0002 -0.0474  0.1965
15047TIP3    H166556   6.721   1.014   5.319 -1.0731 -1.1902  0.5662
15047TIP3    H266557   6.831   1.003   5.423 -0.9281 -3.8180  0.2079
15048TIP3   OH266558   5.642   6.227   4.000 -0.7675 -0.0684  0.3318
15048TIP3    H166559   5.612   6.255   3.913 -1.1561  1.3801  0.9079
15048TIP3    H266560   5.581   6.157   4.025 -1.9708  0.9363  0.2971
15049TIP3   OH266561   2.732   2.415   3.411  0.0346 -0.2839 -0.0896
15049TIP3    H166562   2.752   2.358   3.486 -0.4827  0.6766  0.7885
15049TIP3    H266563   2.807   2.474   3.405 -0.8660  1.0128  1.0024
15050TIP3   OH266564   1.019   5.261   2.266 -0.0963  0.2993  0.4454
15050TIP3    H166565   0.963   5.194   2.305 -1.5056  0.9809 -0.2979
15050TIP3    H266566   0.985   5.271   2.177  0.9622  1.0373  0.1070
15051TIP3   OH266567   4.053   0.096  14.656 -0.3577 -0.3325  0.2283
15051TIP3    H166568   4.069   0.020  14.711  1.4462 -0.1346  0.0169
15051TIP3    H266569   3.971   0.075  14.610 -0.1951 -1.8902  0.5973
15052TIP3   OH266570   0.716   0.391   5.536 -0.7218  0.4707  0.4673
15052TIP3    H166571   0.779   0.327   5.568 -2.0938 -1.2784 -0.1803
15052TIP3    H266572   0.754   0.476   5.559  0.7461 -0.5704  2.1201
15053TIP3   OH266573   3.829   3.783  13.442 -0.1348  0.1794 -0.3292
15053TIP3    H166574   3.842   3.805  13.350  1.0023 -0.8683 -0.4625
15053TIP3    H266575   3.838   3.687  13.445 -0.3439  0.1764  0.8338
15054TIP3   OH266576   6.360   5.337   2.626 -0.7195 -0.0693 -0.1794
15054TIP3    H166577   6.323   5.324   2.538 -0.2260 -2.4181 -0.1112
15054TIP3    H266578   6.397   5.426   2.623  0.1710 -0.4163 -2.7064
15055TIP3   OH266579   1.306   2.759  10.850  0.4820 -0.4121  0.5775
15055TIP3    H166580   1.356   2.833  10.815  0.4613 -0.6771 -0.0291
15055TIP3    H266581   1.251   2.797  10.918 -0.2378  0.3148 -0.3937
15056TIP3   OH266582   6.482   0.215   1.053 -0.1165 -0.2859  0.9427
15056TIP3    H166583   6.566   0.248   1.020 -0.5343 -0.2889 -0.1882
15056TIP3    H266584   6.424   0.222   0.977 -1.3147  0.3350  1.8954
15057TIP3   OH266585   3.362   4.476   3.285 -0.6065 -0.4163 -0.2153
15057TIP3    H166586   3.448   4.486   3.326 -0.4485 -0.7651 -0.4584
15057TIP3    H266587   3.346   4.560   3.242 -0.0460 -0.6089 -0.8146
15058TIP3   OH266588   5.042   4.885  15.689  0.8931 -0.1580  0.0790
15058TIP3    H166589   5.082   4.823  15.750  1.1719 -1.3936 -1.2821
15058TIP3    H266590   5.023   4.832  15.611  0.6931  1.3827 -0.9616
15059TIP3   OH266591   0.458   1.437   2.253 -0.3535  0.3986 -0.3185
15059TIP3    H166592   0.368   1.469   2.255 -0.6802 -0.5215  0.3160
15059TIP3    H266593   0.504   1.499   2.197 -1.2288  1.2687 -0.1073
15060TIP3   OH266594   0.122   2.847   4.743 -0.5470 -0.3607 -0.6521
15060TIP3    H166595   0.128   2.778   4.810  2.6945  0.2570 -0.1539
15060TIP3    H266596   0.179   2.916   4.774 -2.4718  1.9680 -1.9388
15061TIP3   OH266597   3.555   5.468  11.069 -0.8423 -0.2929  0.4985
15061TIP3    H166598   3.584   5.426  10.988 -0.6108  2.6439 -1.0764
15061TIP3    H266599   3.629   5.460  11.129 -0.6135 -1.5659  0.0654
15062TIP3   OH266600   2.590   1.830  16.034  0.0455  0.3860 -0.2734
15062TIP3    H166601   2.590   1.894  16.106  0.6293 -0.6803  0.7139
15062TIP3    H266602   2.498   1.820  16.011 -0.2300  0.1477  0.8876
15063TIP3   OH266603   1.364   1.169   2.865  0.0930 -0.2528  0.0718
15063TIP3    H166604   1.308   1.245   2.848 -1.4711  0.3108  5.6485
15063TIP3    H266605   1.305   1.094   2.859  0.6708 -0.6032 -1.4957
15064TIP3   OH266606   0.597   2.586  13.094 -0.1871 -0.3043 -0.1341
15064TIP3    H166607   0.647   2.640  13.033 -0.8323  0.9093  0.3884
15064TIP3    H266608   0.650   2.584  13.174 -0.0243 -0.6987 -0.2495
15065TIP3   OH266609   6.612   2.547  13.279 -0.2468 -0.1516 -0.2340
15065TIP3    H166610   6.612   2.551  13.374  0.7111  0.2476 -0.2353
15065TIP3    H266611   6.594   2.456  13.258 -1.8707  0.0217  0.2865
15066TIP3   OH266612   0.263   5.283   3.913 -0.0359  0.0267 -0.0155
15066TIP3    H166613   0.305   5.260   3.995  1.5509 -0.0139 -0.8093
15066TIP3    H266614   0.206   5.208   3.893 -1.3467  0.5431  1.5943
15067TIP3   OH266615   2.707   2.882   3.330 -0.0967  0.0996 -0.0599
15067TIP3    H166616   2.799   2.885   3.305  0.4041 -1.1020  1.5191
15067TIP3    H266617   2.671   2.808   3.281  0.2194 -0.5203  0.6223
15068TIP3   OH266618   1.299   1.628  14.394  0.4754 -0.0705  0.0246
15068TIP3    H166619   1.334   1.576  14.322 -0.4415  1.1144 -1.3077
15068TIP3    H266620   1.340   1.713  14.385 -0.3395  0.3699  0.3459
15069TIP3   OH266621   1.863   5.778  11.188 -0.5622  0.9705  0.5160
15069TIP3    H166622   1.784   5.768  11.134  0.1298  0.3969 -0.4379
15069TIP3    H266623   1.890   5.868  11.174 -0.5136  0.8895  0.0502
15070TIP3   OH266624   5.149   0.492  12.581 -0.0852 -0.3554  0.4446
15070TIP3    H166625   5.159   0.412  12.634 -2.0569 -0.3550  0.9111
15070TIP3    H266626   5.089   0.466  12.511 -0.0706  0.4922  0.1118
15071TIP3   OH266627   5.588   5.994   2.012 -0.5579  0.3905 -0.2051
15071TIP3    H166628   5.525   6.023   1.946 -1.8276  1.5118  1.4037
15071TIP3    H266629   5.644   5.931   1.967 -2.3060 -0.0155 -1.9275
15072TIP3   OH266630   0.340   0.244  16.751 -0.2950  0.3086 -0.2180
15072TIP3    H166631   0.266   0.304  16.751 -0.4341  0.1821 -1.6230
15072TIP3    H266632   0.415   0.296  16.779 -0.9106  0.4185  1.2867
15073TIP3   OH266633   2.544   2.725  12.382 -0.8670  0.2812  0.0662
15073TIP3    H166634   2.545   2.663  12.455 -0.5479 -1.5628 -1.4207
15073TIP3    H266635   2.579   2.806  12.419 -2.1194 -0.1244  2.3112
15074TIP3   OH266636   4.242   2.797  12.372  0.1207 -0.1849 -0.4154
15074TIP3    H166637   4.152   2.808  12.402  0.6318  0.1820  1.0713
15074TIP3    H266638   4.234   2.755  12.286 -1.4485 -0.5656 -0.1121
15075TIP3   OH266639   3.559   5.641  12.092 -0.3261 -0.3776 -0.7618
15075TIP3    H166640   3.571   5.590  12.172 -0.8677 -0.0898 -0.4852
15075TIP3    H266641   3.473   5.614  12.059 -1.0040  0.9241 -0.1616
15076TIP3   OH266642   2.871   2.153   4.566  0.0233 -0.6867 -0.6091
15076TIP3    H166643   2.852   2.071   4.611 -0.0284 -0.1424  0.4009
15076TIP3    H266644   2.869   2.219   4.635  0.9138  0.0465 -1.2533
15077TIP3   OH266645   6.096   3.737  14.594 -0.3276 -0.1757 -0.0523
15077TIP3    H166646   6.107   3.832  14.584  0.2279 -0.3753 -1.7526
15077TIP3    H266647   6.075   3.725  14.686  2.3837  1.3529  0.8731
15078TIP3   OH266648   3.705   1.288  17.361 -0.2589  0.3070 -0.3386
15078TIP3    H166649   3.624   1.274  17.311 -1.5066  0.2236  1.5994
15078TIP3    H266650   3.774   1.283  17.296 -1.6554 -1.5862 -1.8010
15079TIP3   OH266651   2.662   6.739   2.939 -0.4338  0.3393  0.1137
15079TIP3    H166652   2.581   6.737   2.991 -0.2929  1.0371  0.3631
15079TIP3    H266653   2.723   6.685   2.988 -0.9627 -0.8130 -0.4519
15080TIP3   OH266654   4.441   3.447   0.674  0.1836 -0.4070  0.8386
15080TIP3    H166655   4.411   3.447   0.583 -0.2123 -0.7574  0.9612
15080TIP3    H266656   4.536   3.445   0.668  0.2444  1.7728  0.4339
15081TIP3   OH266657   5.443   1.701   2.390  0.3473 -0.3108  0.1844
15081TIP3    H166658   5.515   1.710   2.327 -0.7642 -0.4629 -1.1546
15081TIP3    H266659   5.418   1.609   2.385 -0.1615 -0.1830  0.3897
15082TIP3   OH266660   0.540   0.144   0.114  0.1646  0.5423 -0.6316
15082TIP3    H166661   0.567   0.216   0.057 -3.2980  1.2222 -1.6174
15082TIP3    H266662   0.492   0.187   0.185 -0.1765 -0.6818 -0.1021
15083TIP3   OH266663   5.559   1.041  12.686  0.0436 -0.3928 -0.2315
15083TIP3    H166664   5.538   1.081  12.602  0.8901 -0.5468 -0.5303
15083TIP3    H266665   5.555   1.113  12.749 -1.4758 -0.4509 -0.2448
15084TIP3   OH266666   5.563   5.996   3.407  0.4888  0.2877 -0.5112
15084TIP3    H166667   5.614   5.970   3.483  0.6964 -0.3172 -0.8464
15084TIP3    H266668   5.484   5.942   3.411  0.1959  0.7202 -0.3748
15085TIP3   OH266669   1.085   5.857  17.007 -0.4146  0.5165  0.3948
15085TIP3    H166670   1.008   5.863  16.950  1.0656 -0.1725 -1.8075
15085TIP3    H266671   1.160   5.867  16.948  1.2206  0.8050  2.3984
15086TIP3   OH266672   1.903   2.882   4.871  0.8280 -0.2297  0.1590
15086TIP3    H166673   1.808   2.871   4.876  0.8377 -0.8866 -0.7254
15086TIP3    H266674   1.915   2.956   4.813  0.8476 -2.0672 -2.3433
15087TIP3   OH266675   2.018   1.244  14.003 -0.6341  0.1674  0.5592
15087TIP3    H166676   1.998   1.334  13.977 -1.3745  0.2722  1.4353
15087TIP3    H266677   2.091   1.251  14.064 -1.3793  0.2913  1.4593
15088TIP3   OH266678   6.326   0.106   2.007  0.2190 -0.7263  0.4742
15088TIP3    H166679   6.307   0.197   2.030 -2.1972 -1.1354  0.3412
15088TIP3    H266680   6.384   0.112   1.931  1.1902  0.6712  1.2905
15089TIP3   OH266681   5.623   3.568   2.787 -0.2884 -0.3511 -0.6928
15089TIP3    H166682   5.546   3.611   2.749  0.7605  2.7013  0.3125
15089TIP3    H266683   5.590   3.529   2.868 -0.8251  1.0475 -0.1977
15090TIP3   OH266684   6.736   1.154   3.785 -0.0751 -0.1094  0.1319
15090TIP3    H166685   6.646   1.138   3.811 -1.1438  0.7395 -2.6899
15090TIP3    H266686   6.735   1.240   3.742  2.5296  0.9093  1.8381
15091TIP3   OH266687   1.668   0.883   6.285  0.6586 -0.2643  0.1008
15091TIP3    H166688   1.739   0.895   6.222 -1.0292 -0.0715 -1.8727
15091TIP3    H266689   1.655   0.788   6.289  0.7169 -0.2713  0.1444
15092TIP3   OH266690   0.976   2.889  16.264 -0.4189 -0.3596  0.0259
15092TIP3    H166691   1.019   2.845  16.337  1.8373 -0.8571 -1.4933
15092TIP3    H266692   0.968   2.822  16.197  0.4393  0.7844 -1.2922
15093TIP3   OH266693   5.725   3.704   0.842 -0.5095 -0.1214 -0.0309
15093TIP3    H166694   5.740   3.610   0.854  1.4130  0.0097 -1.0469
15093TIP3    H266695   5.666   3.709   0.767 -0.2219 -0.5098 -0.2883
15094TIP3   OH266696   5.444   2.027  16.830  0.0387 -0.2740 -0.2229
15094TIP3    H166697   5.528   1.997  16.866  0.0895  1.4724  1.2741
15094TIP3    H266698   5.380   2.007  16.898 -0.1809  1.3704  0.1152
15095TIP3   OH266699   4.404   4.609   3.077  0.0707 -0.9938 -0.4872
15095TIP3    H166700   4.352   4.660   3.015 -2.0069 -0.6487  1.3865
15095TIP3    H266701   4.474   4.668   3.103  1.0025 -1.1573 -2.4417
15096TIP3   OH266702   2.639   0.724   2.076  0.4729  0.7246 -0.1743
15096TIP3    H166703   2.614   0.726   2.168  1.2343 -2.7978  0.2588
15096TIP3    H266704   2.735   0.724   2.078  0.5343  2.5943 -1.1452
15097TIP3   OH266705   3.751   4.210  14.565 -0.4321  0.3193  0.4862
15097TIP3    H166706   3.717   4.183  14.650  0.8749 -0.5904  0.7502
15097TIP3    H266707   3.794   4.295  14.582  2.7982 -1.3577  1.5803
15098TIP3   OH266708   2.330   5.617   4.146  0.0576 -0.0673 -0.0290
15098TIP3    H166709   2.247   5.639   4.103 -0.7789 -1.3546  0.8392
15098TIP3    H266710   2.395   5.621   4.077 -1.0966 -1.1452 -1.2300
15099TIP3   OH266711   4.364   4.347   2.436  0.2470  0.3511 -0.6761
15099TIP3    H166712   4.346   4.269   2.489 -0.4252  1.5389  0.9261
15099TIP3    H266713   4.414   4.314   2.361  0.7818 -1.4881  0.4183
15100TIP3   OH266714   4.507   1.124   2.682 -0.8080 -0.2165  0.5571
15100TIP3    H166715   4.498   1.078   2.598 -2.4206 -0.8006  1.0038
15100TIP3    H266716   4.441   1.083   2.738 -0.1609  0.5745  1.9357
15101TIP3   OH266717   4.098   5.933  13.676  0.2517  0.6592  0.1243
15101TIP3    H166718   4.052   5.889  13.605 -2.0687 -0.4129  2.1177
15101TIP3    H266719   4.189   5.903  13.668 -0.4087 -1.2561 -1.0348
15102TIP3   OH266720   1.049   6.727  16.821 -0.5631 -0.2508  0.5434
15102TIP3    H166721   1.061   6.637  16.789  1.4075 -0.0646  0.6504
15102TIP3    H266722   1.051   6.781  16.742 -2.0206 -0.2764  0.4517
15103TIP3   OH266723   5.174   6.214   1.310 -0.0298  0.0061 -0.0112
15103TIP3    H166724   5.132   6.137   1.272 -0.7711  1.0994 -1.4810
15103TIP3    H266725   5.239   6.177   1.371 -0.2261 -1.7823 -0.8026
15104TIP3   OH266726   1.451   4.509  13.646  0.5036 -0.3981 -0.2083
15104TIP3    H166727   1.470   4.519  13.553  0.7579 -2.3858 -0.4224
15104TIP3    H266728   1.447   4.414  13.659 -1.0688 -0.1522  1.5031
15105TIP3   OH266729   5.486   3.510   3.011 -0.2922 -0.2128  0.1120
15105TIP3    H166730   5.511   3.453   3.083 -0.3284 -0.0501  0.2555
15105TIP3    H266731   5.408   3.555   3.042  1.1039  1.7392  0.9988
15106TIP3   OH266732   5.832   6.745   1.607 -0.5822  0.5397  0.1299
15106TIP3    H166733   5.902   6.694   1.647 -0.8814  0.8992  1.1426
15106TIP3    H266734   5.831   6.827   1.656 -1.8572  0.4523  0.2917
15107TIP3   OH266735   0.152   5.278  15.162 -0.2348  0.6233  0.6764
15107TIP3    H166736   0.240   5.243  15.172 -0.7790 -0.6449  1.2998
15107TIP3    H266737   0.115   5.274  15.250 -0.8239  1.3960  0.4707
15108TIP3   OH266738   4.690   2.185  13.754 -0.1768  0.4048  0.1220
15108TIP3    H166739   4.704   2.169  13.660  0.3724 -0.5062  0.3473
15108TIP3    H266740   4.610   2.237  13.758 -0.9285 -0.6481 -0.7826
15109TIP3   OH266741   5.505   5.569  16.583  0.9498 -0.1353  0.1229
15109TIP3    H166742   5.464   5.490  16.620 -0.2449 -0.7024 -2.1945
15109TIP3    H266743   5.461   5.642  16.627 -0.8904 -0.7711 -0.5513
15110TIP3   OH266744   2.979   5.061   4.630 -0.3179  0.8009  0.3170
15110TIP3    H166745   2.886   5.076   4.642 -0.8602 -1.6083 -0.3144
15110TIP3    H266746   3.003   5.113   4.553 -1.5563  0.1179 -0.5614
15111TIP3   OH266747   1.254   5.411  15.399  0.2273 -0.3307 -0.2861
15111TIP3    H166748   1.320   5.475  15.372  0.8331 -0.7994  0.0366
15111TIP3    H266749   1.186   5.463  15.442 -0.9708  0.4948 -2.9828
15112TIP3   OH266750   1.216   3.904  15.969 -0.0267  0.1755  0.2808
15112TIP3    H166751   1.162   3.967  15.920  0.4923  0.1321 -0.3511
15112TIP3    H266752   1.235   3.834  15.906 -0.1000 -0.3220  0.8060
15113TIP3   OH266753   0.909   3.824  16.781  0.3478  0.1491  0.7845
15113TIP3    H166754   0.889   3.880  16.706 -0.4485 -0.7184  0.3364
15113TIP3    H266755   0.997   3.793  16.765  0.1408 -0.1203  0.1503
15114TIP3   OH266756   1.197   2.160   0.327  0.0013  0.4854 -0.7012
15114TIP3    H166757   1.179   2.167   0.233 -1.3564  3.1839 -0.3365
15114TIP3    H266758   1.272   2.100   0.333 -0.1784 -0.1309 -3.4372
15115TIP3   OH266759   5.208   1.737  12.497  0.2989  0.0909  0.0112
15115TIP3    H166760   5.256   1.813  12.529 -0.5090 -0.0018  1.5087
15115TIP3    H266761   5.126   1.774  12.462  0.5968  0.0483 -0.7718
15116TIP3   OH266762   0.333   1.454   3.875 -0.2693  0.3454 -0.7272
15116TIP3    H166763   0.328   1.392   3.803 -0.5228  1.6301 -1.8535
15116TIP3    H266764   0.400   1.517   3.848  0.6688  0.0702  0.8066
15117TIP3   OH266765   3.651   4.666   4.403 -0.5047  0.3172 -0.2066
15117TIP3    H166766   3.745   4.669   4.382 -0.1513 -0.3485  1.1799
15117TIP3    H266767   3.641   4.725   4.477 -1.7504  2.6943 -2.1260
15118TIP3   OH266768   5.344   5.670  14.415  0.4173  0.2596 -0.5465
15118TIP3    H166769   5.386   5.604  14.471 -1.5514 -1.2569 -0.7490
15118TIP3    H266770   5.268   5.699  14.465 -0.3738  0.1965 -1.6689
15119TIP3   OH266771   4.273   3.761   1.937  0.1922 -0.2472 -0.1589
15119TIP3    H166772   4.349   3.746   1.881  0.4908  2.6912 -0.6821
15119TIP3    H266773   4.219   3.823   1.888 -1.1786 -0.1333  1.4151
15120TIP3   OH266774   6.442   2.255   3.972  0.7937 -0.0120  0.1157
15120TIP3    H166775   6.537   2.249   3.975  0.7869 -0.7624 -0.6241
15120TIP3    H266776   6.418   2.217   3.887 -0.2837 -1.7638  1.1257
15121TIP3   OH266777   1.813   1.261   1.431 -0.4762 -0.2248 -0.1633
15121TIP3    H166778   1.784   1.171   1.417 -0.3481 -0.4501  0.9092
15121TIP3    H266779   1.853   1.287   1.348 -1.5305 -0.7569 -0.8537
15122TIP3   OH266780   0.119   5.937  17.276  0.2637  0.8164  0.2617
15122TIP3    H166781   0.024   5.944  17.283  0.1425  3.4590 -2.1912
15122TIP3    H266782   0.149   5.926  17.367 -2.3056  0.4241  1.1391
15123TIP3   OH266783   2.177   5.404  16.222  0.2231 -0.0334 -0.3205
15123TIP3    H166784   2.094   5.438  16.256 -0.1374  0.2204 -1.4063
15123TIP3    H266785   2.202   5.335  16.283 -0.2376  0.6035  0.6102
15124TIP3   OH266786   5.277   2.029   5.651  0.2469  0.2700  0.2672
15124TIP3    H166787   5.197   2.052   5.604 -0.6394 -0.3845  1.3841
15124TIP3    H266788   5.282   2.093   5.723  2.6259  2.5034 -1.6804
15125TIP3   OH266789   1.968   6.687   4.423  0.1939 -0.0038  0.2034
15125TIP3    H166790   2.056   6.654   4.405 -0.0186 -0.3698 -0.2028
15125TIP3    H266791   1.945   6.737   4.345 -0.8889 -1.9208 -0.7660
15126TIP3   OH266792   5.336   5.579  11.520  0.1288  0.3488 -0.0145
15126TIP3    H166793   5.350   5.497  11.473  1.3774  0.5812 -0.0960
15126TIP3    H266794   5.421   5.623  11.516 -0.2423  1.1795  0.9190
15127TIP3   OH266795   1.583   2.327   5.894  0.6678 -0.0873  0.8154
15127TIP3    H166796   1.554   2.281   5.974  2.3945  0.3497  1.7565
15127TIP3    H266797   1.669   2.361   5.917  1.2085  0.0619 -1.2677
15128TIP3   OH266798   5.509   4.741  14.193  0.1763 -0.0766 -0.2517
15128TIP3    H166799   5.581   4.739  14.257  0.0430  0.2348 -0.0885
15128TIP3    H266800   5.551   4.764  14.110  0.3252 -0.3011 -0.2390
15129TIP3   OH266801   3.433   0.151  11.382  0.5496  0.5207 -0.4419
15129TIP3    H166802   3.377   0.189  11.450  0.4596 -2.7053  1.4617
15129TIP3    H266803   3.521   0.150  11.421  0.2017 -3.0087  0.5601
15130TIP3   OH266804   0.434   4.302  14.395 -0.7799 -0.3124 -0.2485
15130TIP3    H166805   0.504   4.329  14.335  0.1729 -1.7120  0.2103
15130TIP3    H266806   0.354   4.337  14.354  0.1958  1.8602 -0.4633
15131TIP3   OH266807   3.988   5.106  12.495 -0.4864 -0.5625 -0.5413
15131TIP3    H166808   3.959   5.020  12.464 -0.3406 -0.2425 -1.5928
15131TIP3    H266809   4.052   5.086  12.564  0.8264 -1.3396 -1.9360
15132TIP3   OH266810   3.733   1.933  13.433  0.2791  0.4961 -0.2238
15132TIP3    H166811   3.752   2.008  13.378  0.3476  0.3685 -0.3742
15132TIP3    H266812   3.681   1.969  13.505  1.5076  0.9314  0.4641
15133TIP3   OH266813   2.549   4.466   5.700 -0.3649 -0.8048  0.1780
15133TIP3    H166814   2.473   4.413   5.677  0.1520 -2.7218  2.4662
15133TIP3    H266815   2.513   4.536   5.755 -0.5661 -1.4033  0.8269
15134TIP3   OH266816   6.100   0.576  16.960  0.8446  0.3409  0.0934
15134TIP3    H166817   6.144   0.533  16.886  1.2074  0.3689  0.2871
15134TIP3    H266818   6.169   0.630  17.000 -0.2460  3.4443 -1.8623
15135TIP3   OH266819   3.033   6.292  10.806  0.3205 -0.0161 -0.0861
15135TIP3    H166820   3.034   6.387  10.802  3.1306  0.0664  0.5381
15135TIP3    H266821   3.002   6.264  10.720 -2.5832  1.3820  0.4004
15136TIP3   OH266822   4.100   0.348   0.149 -0.0868 -0.0263  0.4557
15136TIP3    H166823   4.100   0.316   0.059  1.2250  3.1563 -0.8049
15136TIP3    H266824   4.192   0.348   0.174 -0.2318  1.0424  1.0354
15137TIP3   OH266825   5.065   0.402   4.716 -0.6925 -0.0316  0.8610
15137TIP3    H166826   5.140   0.419   4.660 -0.7105 -2.3228  0.0309
15137TIP3    H266827   5.096   0.422   4.804 -0.2508  2.3479  0.2328
15138TIP3   OH266828   0.007   0.961  13.653  0.1518  0.2530  0.1074
15138TIP3    H166829  -0.031   0.878  13.683  0.9899  0.5404  2.1422
15138TIP3    H266830  -0.048   0.987  13.580 -0.3677 -1.9013 -0.3454
15139TIP3   OH266831   5.174   3.242  14.032  0.1579 -0.3643  0.3104
15139TIP3    H166832   5.083   3.213  14.032  0.0251  0.0404 -0.1999
15139TIP3    H266833   5.221   3.175  13.983 -0.2857  0.6627 -1.6116
15140TIP3   OH266834   1.601   1.365   2.571 -0.1499  0.4158  0.6763
15140TIP3    H166835   1.654   1.352   2.492 -0.2822 -0.5258  0.7374
15140TIP3    H266836   1.636   1.446   2.610 -0.8321  1.5341 -0.9425
15141TIP3   OH266837   4.041   5.662   0.305  0.3797  0.2103 -0.0584
15141TIP3    H166838   3.967   5.639   0.362  0.6250 -0.3748  0.0364
15141TIP3    H266839   4.067   5.750   0.333 -0.6319  0.6547 -0.4751
15142TIP3   OH266840   4.403   2.775  16.880  0.4016  0.2152 -0.5879
15142TIP3    H166841   4.447   2.727  16.810  2.4530 -3.6226  2.8676
15142TIP3    H266842   4.310   2.762  16.863  0.8416 -2.4767 -1.5786
15143TIP3   OH266843   1.212   3.141  13.634  0.2108  0.2953 -0.3773
15143TIP3    H166844   1.156   3.136  13.712  0.4880 -0.3416 -0.2078
15143TIP3    H266845   1.168   3.084  13.570  0.0587  0.7060 -0.6385
15144TIP3   OH266846   0.071   3.523  14.586 -0.9876  0.1608  0.0039
15144TIP3    H166847   0.090   3.569  14.504 -0.0994 -0.6028 -0.2345
15144TIP3    H266848   0.137   3.454  14.590 -0.9011  0.3050  1.4580
15145TIP3   OH266849   6.433   4.241   1.722  0.3042 -0.0524  0.2438
15145TIP3    H166850   6.485   4.283   1.791 -2.2277  2.1230  0.9984
15145TIP3    H266851   6.432   4.305   1.651  0.4889 -1.0375 -0.6670
15146TIP3   OH266852   2.049   2.235  16.259  0.5992 -0.3230  0.0121
15146TIP3    H166853   2.042   2.170  16.189  0.0871  0.6948 -0.9080
15146TIP3    H266854   2.116   2.297  16.229 -1.1974  1.3881 -0.6920
15147TIP3   OH266855   5.528   6.416   2.719 -0.2132 -0.1294  0.4226
15147TIP3    H166856   5.601   6.377   2.672  0.0138  1.1807 -0.3477
15147TIP3    H266857   5.454   6.408   2.659 -0.0810  0.9221  0.0995
15148TIP3   OH266858   4.211   5.144   3.203 -0.3330  0.0216  0.5428
15148TIP3    H166859   4.142   5.204   3.176  0.6727  0.5718 -0.9825
15148TIP3    H266860   4.290   5.178   3.160  0.6776 -1.1842  1.3659
15149TIP3   OH266861   6.273   0.780  15.102 -0.2588 -0.0033 -0.2800
15149TIP3    H166862   6.313   0.754  15.019 -1.3850 -1.0779 -0.5029
15149TIP3    H266863   6.281   0.876  15.103  2.6773 -0.1504 -0.1061
15150TIP3   OH266864   0.232   6.599  12.220 -0.3465  0.1441 -0.0312
15150TIP3    H166865   0.192   6.678  12.257  1.0678  0.9584 -0.1575
15150TIP3    H266866   0.230   6.535  12.291 -0.3689  0.7102  0.4824
15151TIP3   OH266867   6.294   3.513   1.828 -0.0239 -0.1420  0.0389
15151TIP3    H166868   6.217   3.462   1.801  0.3441 -0.9404  0.4878
15151TIP3    H266869   6.313   3.567   1.751 -0.1590 -0.9938 -0.6205
15152TIP3   OH266870   4.335   0.328   0.590 -0.0379  0.2010 -0.1841
15152TIP3    H166871   4.247   0.333   0.553  0.7169  0.4263 -2.1127
15152TIP3    H266872   4.362   0.420   0.599  0.1222  0.1301  0.0565
15153TIP3   OH266873   5.770   5.017  16.027  0.1439  0.1631 -0.2553
15153TIP3    H166874   5.754   5.019  16.121 -0.8662  0.2493 -0.4228
15153TIP3    H266875   5.707   4.954  15.993  0.5501  0.0785 -0.8693
15154TIP3   OH266876   3.844   0.914   0.351  0.2310  0.2348 -0.6325
15154TIP3    H166877   3.790   0.836   0.354 -0.9012  1.0206  2.1954
15154TIP3    H266878   3.784   0.984   0.323 -0.1734  0.9984  1.9345
15155TIP3   OH266879   2.621   3.490  13.479  0.1156  0.0167  0.0938
15155TIP3    H166880   2.534   3.491  13.439 -0.3605  2.1749  1.0373
15155TIP3    H266881   2.610   3.534  13.563  1.7749 -1.3404  1.1191
15156TIP3   OH266882   4.630   2.130  16.661  0.1131  0.2013 -0.4544
15156TIP3    H166883   4.645   2.166  16.748  1.2221 -0.3606 -0.3886
15156TIP3    H266884   4.706   2.159  16.610 -0.6044  0.6590 -1.2774
15157TIP3   OH266885   1.436   4.340  12.742  0.0079  0.1277 -0.2588
15157TIP3    H166886   1.413   4.252  12.772  1.3395  0.1180  0.8333
15157TIP3    H266887   1.371   4.397  12.784  0.1284 -0.1865  0.3707
15158TIP3   OH266888   2.426   4.495   0.666  0.2427  0.4332  0.1408
15158TIP3    H166889   2.414   4.408   0.628  0.0355  0.8895 -0.8660
15158TIP3    H266890   2.516   4.496   0.697  0.0275 -0.3890  0.8303
15159TIP3   OH266891   5.159   3.050  10.549  1.2445  0.0807 -0.3016
15159TIP3    H166892   5.152   3.018  10.459 -2.6225  1.1237 -0.5323
15159TIP3    H266893   5.117   2.982  10.601  1.1322  0.6537  0.3648
15160TIP3   OH266894   5.073   0.662  15.531 -0.1704  0.2697 -0.0456
15160TIP3    H166895   5.119   0.631  15.610 -2.5375 -1.4319  0.7875
15160TIP3    H266896   5.022   0.737  15.561  0.3585  0.7911 -0.4351
15161TIP3   OH266897   5.431   6.619  17.017  0.6383 -0.4315  0.1424
15161TIP3    H166898   5.450   6.539  16.968 -1.1211  0.2936 -1.9011
15161TIP3    H266899   5.338   6.612  17.040  0.4876  0.9284  0.0464
15162TIP3   OH266900   1.056   0.975   3.314 -0.1978 -0.2488 -0.1980
15162TIP3    H166901   1.095   0.929   3.240  1.5531 -2.4719  1.9507
15162TIP3    H266902   0.973   1.009   3.280  0.2144 -1.7270 -2.9712
15163TIP3   OH266903   3.590   0.630   5.051  0.3398 -0.2500  0.2080
15163TIP3    H166904   3.651   0.576   5.001  1.3631  0.6102  0.4812
15163TIP3    H266905   3.533   0.670   4.986  0.0093 -1.1237 -0.0471
15164TIP3   OH266906   2.144   1.950  15.758 -0.5386 -0.2649  0.2290
15164TIP3    H166907   2.108   1.872  15.716 -2.5973 -0.3442  1.9953
15164TIP3    H266908   2.075   2.016  15.751 -0.4647  0.0915  2.3274
15165TIP3   OH266909   4.146   2.711  12.707 -0.3621 -0.3865 -0.2263
15165TIP3    H166910   4.089   2.661  12.650  0.5644 -0.6865 -0.9032
15165TIP3    H266911   4.234   2.697  12.673 -0.0822  1.8944 -0.6099
15166TIP3   OH266912   5.893   0.190  16.049 -0.1651  0.0133  0.4868
15166TIP3    H166913   5.978   0.161  16.081 -0.0975 -0.5099 -0.1438
15166TIP3    H266914   5.910   0.276  16.010  0.4544 -0.8235 -1.2013
15167TIP3   OH266915   0.560   5.325   3.291 -0.4017  0.5120  0.4924
15167TIP3    H166916   0.639   5.277   3.315  0.2936  1.4443  0.1324
15167TIP3    H266917   0.572   5.346   3.198 -1.1072  0.5886  0.4163
15168TIP3   OH266918   4.690   3.685   4.166  0.5368  0.2327  0.1025
15168TIP3    H166919   4.673   3.723   4.252 -0.2050  0.6619 -0.2228
15168TIP3    H266920   4.654   3.596   4.171  1.7635 -0.2647  0.6776
15169TIP3   OH266921   5.119   1.020   0.269 -0.4489 -0.2172  0.0325
15169TIP3    H166922   5.081   0.992   0.186  0.0208 -0.6631 -0.0439
15169TIP3    H266923   5.209   1.044   0.246 -1.1078  2.3892 -0.0963
15170TIP3   OH266924   2.561   5.994  11.447  0.0935  0.1466  0.0728
15170TIP3    H166925   2.530   5.978  11.536  0.1159 -1.1934 -0.1319
15170TIP3    H266926   2.656   6.003  11.456  0.2200 -1.0471  0.0741
15171TIP3   OH266927   2.770   4.465  13.910 -0.4598 -0.1666 -0.0812
15171TIP3    H166928   2.753   4.517  13.988 -1.7207 -0.7771  0.0751
15171TIP3    H266929   2.707   4.496  13.845  0.0062 -0.2444 -0.5856
15172TIP3   OH266930   3.075   3.652   1.865 -0.0444  0.0659 -0.0649
15172TIP3    H166931   3.055   3.599   1.788  0.4775  0.0216 -0.1750
15172TIP3    H266932   3.056   3.742   1.839 -0.9044 -0.0640  0.1115
15173TIP3   OH266933   6.251   6.381  16.372 -0.3689  0.4339 -0.5680
15173TIP3    H166934   6.252   6.449  16.440 -1.1585 -0.7411  0.6704
15173TIP3    H266935   6.327   6.401  16.317  1.2102  0.5766  1.5318
15174TIP3   OH266936   1.512   2.155   1.911 -0.0056 -0.3541  0.1027
15174TIP3    H166937   1.453   2.080   1.913 -1.5467  0.7824 -0.5824
15174TIP3    H266938   1.537   2.168   2.003 -1.7921 -0.1659  0.6021
15175TIP3   OH266939   2.281   0.281   2.573 -0.1118  0.8372  0.2656
15175TIP3    H166940   2.194   0.319   2.560 -1.1366 -1.2331  0.5754
15175TIP3    H266941   2.327   0.297   2.491 -1.8135 -0.4450 -1.0314
15176TIP3   OH266942   2.301   5.453   3.164 -0.4355  0.2752  0.5623
15176TIP3    H166943   2.374   5.493   3.212  0.6389  0.7224 -1.3384
15176TIP3    H266944   2.341   5.417   3.084 -2.2257  0.1024 -0.3159
15177TIP3   OH266945   1.635   5.328   4.133  0.2777  0.3027 -0.0316
15177TIP3    H166946   1.723   5.366   4.136  0.0766  1.0984 -2.0576
15177TIP3    H266947   1.610   5.317   4.224  3.0738 -1.4504  0.6671
15178TIP3   OH266948   0.546   4.145   2.891  0.7594 -0.4894  0.8889
15178TIP3    H166949   0.541   4.079   2.821 -0.7706  0.2688  0.2286
15178TIP3    H266950   0.623   4.120   2.942  0.5825 -2.4202  0.2981
15179TIP3   OH266951   4.633   4.674   1.628 -0.0755 -0.0246  0.3333
15179TIP3    H166952   4.651   4.768   1.630  0.2674 -0.0682 -0.3731
15179TIP3    H266953   4.707   4.634   1.673 -0.7956  0.1010  1.7081
15180TIP3   OH266954   4.750   0.667   1.642 -1.0353 -0.2507  0.4083
15180TIP3    H166955   4.793   0.600   1.587  0.4362  1.2955 -0.4253
15180TIP3    H266956   4.781   0.648   1.730  1.3121  0.6673 -0.1318
15181TIP3   OH266957   0.141   4.759  14.756 -0.4170  0.3497  0.3329
15181TIP3    H166958   0.088   4.728  14.829 -0.0105  0.1459  0.5454
15181TIP3    H266959   0.104   4.845  14.735 -3.0238 -1.1476 -1.7389
15182TIP3   OH266960   4.854   5.610   2.365  0.3550 -0.0390  0.0781
15182TIP3    H166961   4.890   5.599   2.276 -0.6353 -1.4292 -0.1782
15182TIP3    H266962   4.892   5.692   2.396  0.8837  0.3717 -1.5593
15183TIP3   OH266963   6.263   3.025   5.602 -0.4907  0.3283  0.3827
15183TIP3    H166964   6.336   2.963   5.608 -0.6281 -0.0395 -1.3296
15183TIP3    H266965   6.300   3.107   5.633  0.0505 -0.3189  1.5078
15184TIP3   OH266966   4.127   0.197  14.964 -0.4994 -0.3228  0.1914
15184TIP3    H166967   4.222   0.191  14.954 -0.6955 -3.1307 -0.9365
15184TIP3    H266968   4.101   0.112  14.999 -2.3669  1.4614  3.7009
15185TIP3   OH266969   1.289   2.489  12.696  0.3679 -0.2153 -0.5124
15185TIP3    H166970   1.242   2.569  12.721 -2.2198 -1.1134 -2.1520
15185TIP3    H266971   1.349   2.517  12.628  0.0892  0.4884 -0.4828
15186TIP3   OH266972   0.147   5.011  15.746  0.3274  0.0069  0.3488
15186TIP3    H166973   0.220   4.975  15.795  0.6338  0.6257  0.3619
15186TIP3    H266974   0.086   4.938  15.736 -0.3778  0.1500  2.8003
15187TIP3   OH266975   6.065   3.214  11.379  0.1329 -0.0229 -0.1711
15187TIP3    H166976   6.079   3.252  11.292  1.0038  1.6168  0.6398
15187TIP3    H266977   6.073   3.288  11.439 -0.0219 -1.1969  1.3506
15188TIP3   OH266978   4.365   1.344  13.653  0.0731 -0.3321 -0.1104
15188TIP3    H166979   4.298   1.277  13.667  2.1262 -2.3331  0.8028
15188TIP3    H266980   4.364   1.396  13.733 -0.4422 -0.2852 -0.1452
15189TIP3   OH266981   6.660   2.287  15.215 -0.0024 -0.3691 -0.5508
15189TIP3    H166982   6.670   2.279  15.310  1.2870  1.4900 -0.4686
15189TIP3    H266983   6.643   2.198  15.184  0.4516 -1.1410  1.3254
15190TIP3   OH266984   5.396   5.812  12.761 -0.2112 -0.1184  0.4561
15190TIP3    H166985   5.456   5.879  12.795  1.2482 -1.2965  0.2799
15190TIP3    H266986   5.309   5.849  12.777  0.5342  2.0403 -0.0798
15191TIP3   OH266987   6.294   1.922   5.341 -0.1377  0.3978  0.3078
15191TIP3    H166988   6.317   1.857   5.407  0.2610  0.7656  0.5391
15191TIP3    H266989   6.368   1.922   5.281  1.3022  2.7115  1.9163
15192TIP3   OH266990   4.772   1.958  13.179  0.3770  0.1686  0.0634
15192TIP3    H166991   4.742   2.016  13.109  1.6542 -0.2316 -0.8447
15192TIP3    H266992   4.693   1.912  13.207 -0.4649  1.5614  0.0862
15193TIP3   OH266993   0.802   5.921  14.519  0.3148  0.0344  0.1048
15193TIP3    H166994   0.809   5.994  14.581  2.5182  1.0295 -1.1982
15193TIP3    H266995   0.847   5.952  14.440  1.1239 -2.6560 -0.5876
15194TIP3   OH266996   2.964   2.961   4.488 -0.4255  0.3401 -0.5870
15194TIP3    H166997   2.878   2.965   4.531  0.9223 -1.2026  2.6428
15194TIP3    H266998   3.005   3.045   4.510 -0.1250 -0.0331  0.3359
15195TIP3   OH266999   2.176   1.141   4.255 -0.7039  0.1219 -0.6422
15195TIP3    H167000   2.187   1.117   4.163 -1.4303  1.6930 -1.1774
15195TIP3    H267001   2.204   1.232   4.260 -0.7873  0.0988  0.6842
15196TIP3   OH267002   2.382   1.846  15.343 -0.3220  0.0396  0.2823
15196TIP3    H167003   2.418   1.904  15.276 -0.6512  0.4912  0.4898
15196TIP3    H267004   2.339   1.776  15.294  0.1405 -0.0757  0.0327
15197TIP3   OH267005   5.007   0.727   5.689 -0.3599  1.5182 -0.3113
15197TIP3    H167006   5.074   0.693   5.630 -0.0585 -1.1256  1.3840
15197TIP3    H267007   5.056   0.767   5.761 -0.4521 -0.7456  1.1187
15198TIP3   OH267008   1.661   4.310   5.059  0.1483  0.0411 -0.1993
15198TIP3    H167009   1.665   4.404   5.073 -1.5909  0.4589 -1.9409
15198TIP3    H267010   1.674   4.272   5.146 -0.2887  1.9248  0.7466
15199TIP3   OH267011   4.635   3.083  17.127 -0.1804 -0.5561  0.3615
15199TIP3    H167012   4.552   3.085  17.173 -1.1763  3.3494 -1.1929
15199TIP3    H267013   4.616   3.037  17.045 -0.5306 -0.6856  0.5162
15200TIP3   OH267014   5.842   0.886   3.432 -0.1673 -0.2938  0.7186
15200TIP3    H167015   5.753   0.859   3.452 -0.8913  0.7340 -0.9349
15200TIP3    H267016   5.833   0.956   3.368  1.8182  0.2480  0.9419
15201TIP3   OH267017   0.420   4.119  13.573 -0.6230 -1.0640  0.2848
15201TIP3    H167018   0.481   4.080  13.510  0.5501 -2.4509  2.1664
15201TIP3    H267019   0.449   4.086  13.658 -2.9544 -0.3489  1.4486
15202TIP3   OH267020   6.221   6.609   3.785 -0.0041  0.0760 -0.1740
15202TIP3    H167021   6.172   6.691   3.795  1.6528  0.8862  2.0504
15202TIP3    H267022   6.155   6.544   3.762 -1.5671  1.7690 -0.6936
15203TIP3   OH267023   6.346   6.451  12.155 -0.3520 -0.6120  0.6369
15203TIP3    H167024   6.405   6.422  12.085 -1.5566 -0.8778 -0.3175
15203TIP3    H267025   6.317   6.370  12.197  0.0197 -0.4781  1.1640
15204TIP3   OH267026   2.222   0.345   0.494  0.7041 -0.3800 -0.2407
15204TIP3    H167027   2.212   0.378   0.405 -1.8820 -1.0554 -0.2774
15204TIP3    H267028   2.150   0.385   0.543  1.2987 -1.0294  1.2363
15205TIP3   OH267029   1.910   0.237  11.725  0.1459 -0.4986  0.0193
15205TIP3    H167030   1.844   0.192  11.776  0.3483 -1.9606 -0.9327
15205TIP3    H267031   1.861   0.289  11.661 -0.0782 -0.3832  0.2839
15206TIP3   OH267032   2.658   0.120   2.114 -0.1431 -0.6939 -0.2004
15206TIP3    H167033   2.697   0.036   2.140  1.0156 -0.0143  0.3358
15206TIP3    H267034   2.682   0.180   2.184  0.5344  0.4920 -1.3978
15207TIP3   OH267035   5.033   2.900  16.177 -0.1798  0.2617 -0.7645
15207TIP3    H167036   5.118   2.876  16.212 -0.3468  0.2031 -0.3980
15207TIP3    H267037   4.975   2.829  16.203 -0.4130  0.4641 -0.7293
15208TIP3   OH267038   0.103   0.633  16.960 -0.1798  0.1323 -0.0316
15208TIP3    H167039   0.080   0.680  16.879 -1.1592  0.6646  0.5322
15208TIP3    H267040   0.080   0.694  17.030 -1.1691 -1.0448  0.7057
15209TIP3   OH267041   2.369   6.002   0.737  0.1578  0.5457 -0.1638
15209TIP3    H167042   2.327   5.977   0.819  0.2253  0.8495 -0.0351
15209TIP3    H267043   2.395   6.094   0.751  0.3604  0.5299 -0.4441
15210TIP3   OH267044   2.731   4.098  17.170  0.4292  0.6234  0.0149
15210TIP3    H167045   2.672   4.062  17.104 -0.6955 -1.7197  2.1149
15210TIP3    H267046   2.746   4.188  17.143  0.3232 -0.2876 -3.5585
15211TIP3   OH267047   5.647   0.218  15.433 -0.2524 -0.4088  0.0674
15211TIP3    H167048   5.586   0.145  15.425  0.6764 -1.0276 -1.8994
15211TIP3    H267049   5.713   0.188  15.496 -0.3490 -0.9405 -0.0814
15212TIP3   OH267050   4.010   0.620   1.348  0.3694 -0.1457 -0.4660
15212TIP3    H167051   4.093   0.631   1.395  0.2851 -1.8518  0.1555
15212TIP3    H267052   4.024   0.661   1.263  2.0117 -0.7888 -0.5354
15213TIP3   OH267053   1.443   4.263  16.399  0.6115  0.1092 -0.1812
15213TIP3    H167054   1.435   4.247  16.305  0.5079 -1.1305  0.0315
15213TIP3    H267055   1.493   4.345  16.404  1.5011 -0.3252 -1.3077
15214TIP3   OH267056   5.958   1.425   0.499  0.1997 -0.2021  0.1181
15214TIP3    H167057   5.963   1.518   0.519  0.1259 -0.4814  1.5932
15214TIP3    H267058   5.900   1.419   0.423  1.8834  1.0935 -1.3554
15215TIP3   OH267059   1.267   4.834  12.072  0.0022 -0.3813 -0.1410
15215TIP3    H167060   1.329   4.761  12.068 -0.1836 -0.4912 -1.2679
15215TIP3    H267061   1.192   4.798  12.120 -0.2706 -1.0766 -1.0666
15216TIP3   OH267062   6.236   2.637   4.176  0.3495 -0.4037  0.8339
15216TIP3    H167063   6.228   2.698   4.103 -1.5441 -0.6163  0.8252
15216TIP3    H267064   6.205   2.553   4.142  0.8086 -0.8555  1.4832
15217TIP3   OH267065   2.937   3.139  13.132  0.3848 -0.1396  0.1073
15217TIP3    H167066   2.846   3.167  13.117  0.1405 -0.9879 -0.0532
15217TIP3    H267067   2.989   3.218  13.117 -0.2514  0.1411 -0.7144
15218TIP3   OH267068   0.451   3.257  11.179  0.4289 -0.2609 -0.0724
15218TIP3    H167069   0.469   3.247  11.086 -1.9288  2.2306 -0.9215
15218TIP3    H267070   0.371   3.207  11.194  0.1324  0.3108  0.3111
15219TIP3   OH267071   2.236   6.394   5.080  0.0466 -0.2033  0.4603
15219TIP3    H167072   2.269   6.374   4.992 -1.7445  1.6126 -0.7339
15219TIP3    H267073   2.197   6.481   5.071 -0.0465  0.0950  3.1311
15220TIP3   OH267074   1.696   3.927   3.561  0.1758  0.2416  0.0467
15220TIP3    H167075   1.606   3.893   3.559  0.2368 -0.5192  3.3998
15220TIP3    H267076   1.687   4.018   3.535 -1.0066 -0.5455 -2.7420
15221TIP3   OH267077   6.161   5.446  15.365 -0.2477 -0.7025  0.2929
15221TIP3    H167078   6.242   5.448  15.417  0.2029 -1.1957 -0.3651
15221TIP3    H267079   6.093   5.476  15.425  0.6201  0.9300  0.5067
15222TIP3   OH267080   4.953   6.466   1.999 -0.5729  0.5267  0.6429
15222TIP3    H167081   4.955   6.544   2.055  2.5097  1.3066 -0.3565
15222TIP3    H267082   5.028   6.477   1.940 -1.6742 -1.9003 -1.3729
15223TIP3   OH267083   1.960   3.609   2.385 -0.0293  0.3580  0.1458
15223TIP3    H167084   1.968   3.556   2.306 -2.4502 -1.8240  1.1900
15223TIP3    H267085   2.046   3.602   2.428  0.2846 -1.2269 -0.6797
15224TIP3   OH267086   1.499   4.145  16.857 -0.4702  0.2259 -0.2718
15224TIP3    H167087   1.531   4.234  16.868  1.6995 -0.5436  0.1982
15224TIP3    H267088   1.445   4.130  16.934 -0.8783  1.1312 -0.3692
15225TIP3   OH267089   1.782   5.868  12.855 -0.5736  0.3786 -0.0129
15225TIP3    H167090   1.782   5.921  12.776 -2.8194  2.1633  1.0899
15225TIP3    H267091   1.832   5.790  12.831 -0.4443  1.2372 -2.8945
15226TIP3   OH267092   3.433   1.627  11.690 -0.6152  0.0111 -0.2857
15226TIP3    H167093   3.424   1.555  11.752  0.6882  0.4952  0.5161
15226TIP3    H267094   3.368   1.609  11.622 -1.8495 -0.7000  1.0433
15227TIP3   OH267095   3.178   0.953   1.550  0.3754  0.5212 -0.2460
15227TIP3    H167096   3.122   1.030   1.538  1.5908  1.9357  2.2899
15227TIP3    H267097   3.167   0.903   1.470  0.2377  3.7907 -2.4637
15228TIP3   OH267098   0.063   1.935  12.241 -0.5458 -0.0605  0.7140
15228TIP3    H167099   0.150   1.944  12.278 -1.4317  1.2100  2.6746
15228TIP3    H267100   0.068   1.977  12.156  0.1863  2.2799  1.8506
15229TIP3   OH267101   4.739   0.502  15.537 -0.1625  0.3054  0.1445
15229TIP3    H167102   4.750   0.495  15.632  0.3620  0.4472  0.0974
15229TIP3    H267103   4.819   0.465  15.500  0.3232  1.6552 -0.2034
15230TIP3   OH267104   4.533   3.877   1.793 -0.8231 -0.3115 -0.2436
15230TIP3    H167105   4.494   3.902   1.709 -0.0734  0.0704 -0.4807
15230TIP3    H267106   4.626   3.870   1.775 -0.7255 -0.7815  0.4329
15231TIP3   OH267107   4.679   2.528   6.556 -0.6696 -0.1289 -0.4812
15231TIP3    H167108   4.736   2.573   6.494 -1.4194  0.6277 -0.6404
15231TIP3    H267109   4.592   2.565   6.540 -1.2322 -1.2966 -0.2884
15232TIP3   OH267110   3.453   0.260   6.350 -0.1580 -0.3722  1.0697
15232TIP3    H167111   3.423   0.175   6.383 -1.1769  0.5754  2.6932
15232TIP3    H267112   3.394   0.324   6.390  2.0164  1.3207  1.7856
15233TIP3   OH267113   2.356   0.365   5.871  0.0592 -0.1887  0.1788
15233TIP3    H167114   2.281   0.306   5.886 -0.0920 -0.5390 -1.7166
15233TIP3    H267115   2.317   0.444   5.832  0.5583  0.0592  0.1771
15234TIP3   OH267116   4.287   4.492  11.117 -0.3809 -0.1236  0.7894
15234TIP3    H167117   4.344   4.568  11.129 -0.7448  0.2671  0.0567
15234TIP3    H267118   4.334   4.421  11.161  1.6557 -0.2716 -1.4309
15235TIP3   OH267119   4.684   3.659  11.324  0.1660 -0.4045  0.3807
15235TIP3    H167120   4.772   3.682  11.351  0.1282 -1.1321  1.1767
15235TIP3    H267121   4.631   3.736  11.344  0.7742  0.4167 -1.0377
15236TIP3   OH267122   6.453   0.805  16.523  0.4398 -0.5267 -0.0229
15236TIP3    H167123   6.450   0.860  16.445  0.3597 -2.2506 -1.2694
15236TIP3    H267124   6.421   0.720  16.495  0.0696 -1.1130  1.9813
15237TIP3   OH267125   0.218   5.755  13.900  0.4161  0.3429  0.1291
15237TIP3    H167126   0.287   5.800  13.948  0.3587  0.8400 -0.2528
15237TIP3    H267127   0.221   5.792  13.812  0.1579 -0.1720 -0.1006
15238TIP3   OH267128   0.665   3.676   2.653 -0.1673  0.5969  0.2206
15238TIP3    H167129   0.644   3.585   2.630  0.6671  0.8172 -1.5012
15238TIP3    H267130   0.658   3.678   2.749 -1.8436 -0.8485  0.1700
15239TIP3   OH267131   2.648   0.208  11.263 -0.0815 -0.2215  0.3092
15239TIP3    H167132   2.652   0.252  11.348 -1.0664  0.2830  0.0990
15239TIP3    H267133   2.722   0.245  11.214 -0.8960  1.2291  0.1309
15240TIP3   OH267134   1.904   2.146   3.311  0.0557  0.3463  0.2338
15240TIP3    H167135   1.889   2.184   3.398 -0.4248  0.6278  0.0344
15240TIP3    H267136   1.957   2.211   3.266 -1.0092  0.9411 -0.2062
15241TIP3   OH267137   3.999   4.059   2.772  0.1706 -0.4673  0.3922
15241TIP3    H167138   4.014   4.035   2.681  0.4367  0.2996  0.2288
15241TIP3    H267139   4.027   4.150   2.778 -1.4684  0.0405  0.8281
15242TIP3   OH267140   1.350   2.880   4.827 -0.1132 -0.1582  0.1300
15242TIP3    H167141   1.400   2.934   4.888 -0.5566 -0.5339  0.8403
15242TIP3    H267142   1.410   2.861   4.755  0.0842  1.2086 -0.1003
15243TIP3   OH267143   3.261   6.654   5.488 -0.2033  0.1685 -0.3174
15243TIP3    H167144   3.188   6.597   5.461  0.3870  0.0557 -1.7895
15243TIP3    H267145   3.219   6.737   5.512 -0.8176  0.2797 -1.6576
15244TIP3   OH267146   2.985   3.203  16.636 -0.3183 -0.6945 -0.1216
15244TIP3    H167147   2.902   3.243  16.612 -1.0605 -2.2492 -0.3091
15244TIP3    H267148   2.979   3.188  16.730 -0.0352 -0.3330 -0.0460
15245TIP3   OH267149   1.895   1.009  12.711  0.1667 -0.5577 -0.1161
15245TIP3    H167150   1.827   0.958  12.666 -0.1446 -1.0644  0.9127
15245TIP3    H267151   1.878   1.099  12.684 -1.1670 -0.6224  0.4279
15246TIP3   OH267152   0.782   0.797   3.582  0.3175 -0.0612 -0.4812
15246TIP3    H167153   0.696   0.757   3.569  0.5729 -0.2381 -1.8599
15246TIP3    H267154   0.790   0.808   3.676  0.2335 -3.2812  0.0137
15247TIP3   OH267155   0.315   1.825  13.091  0.1789 -0.1998  0.1540
15247TIP3    H167156   0.332   1.919  13.096  0.2395 -0.1627 -0.6320
15247TIP3    H267157   0.241   1.818  13.031  2.7922 -0.8996 -3.3019
15248TIP3   OH267158   0.374   2.424   0.231 -0.2484  0.1591  0.4396
15248TIP3    H167159   0.459   2.445   0.194  1.2111 -1.1041  2.8348
15248TIP3    H267160   0.340   2.509   0.261 -0.2190  0.7733 -1.1628
15249TIP3   OH267161   2.429   4.638   1.023  0.1865  0.0996  0.3313
15249TIP3    H167162   2.498   4.613   0.961 -1.5957  0.8141 -2.1145
15249TIP3    H267163   2.432   4.734   1.024 -0.1856  0.1089  0.9222
15250TIP3   OH267164   5.595   5.815  16.020 -0.1118  0.1043 -0.2703
15250TIP3    H167165   5.595   5.902  16.060  1.2626 -0.1101  0.2286
15250TIP3    H267166   5.663   5.820  15.952  1.3288 -1.1158  1.0169
15251TIP3   OH267167   3.638   3.180  16.646 -0.1012  0.2179 -0.2234
15251TIP3    H167168   3.554   3.184  16.692  0.7974 -0.3762  1.5682
15251TIP3    H267169   3.652   3.269  16.615 -0.3027  0.9157  1.5569
15252TIP3   OH267170   1.021   1.746  14.217  0.5728  0.0324 -0.5102
15252TIP3    H167171   1.065   1.826  14.246  1.2618 -0.8531  1.0341
15252TIP3    H267172   1.048   1.736  14.126  5.2217 -1.3717  0.7406
15253TIP3   OH267173   0.645   2.424  11.279 -0.4403  0.4291 -0.1813
15253TIP3    H167174   0.590   2.388  11.349  0.1138 -0.9836 -0.4387
15253TIP3    H267175   0.589   2.489  11.235 -0.4053  2.2888  2.3038
15254TIP3   OH267176   2.330   4.765  13.101  0.1395 -0.2278  0.3390
15254TIP3    H167177   2.256   4.781  13.160  0.0341 -1.5962  0.6216
15254TIP3    H267178   2.340   4.847  13.053 -2.2764 -0.3442 -0.5200
15255TIP3   OH267179   3.916   0.369   3.208 -0.6847  0.1909  0.8001
15255TIP3    H167180   3.881   0.456   3.224  0.4537  1.3046 -2.0865
15255TIP3    H267181   4.009   0.376   3.230 -0.3502  0.0784 -0.5123
15256TIP3   OH267182   4.102   0.757   2.841 -0.4344 -0.8703 -0.5540
15256TIP3    H167183   4.042   0.832   2.841 -2.8177 -2.6326  0.5565
15256TIP3    H267184   4.101   0.725   2.751  1.5605  1.0308 -1.3402
15257TIP3   OH267185   0.971   5.776   2.549  0.3664 -0.3696 -0.2424
15257TIP3    H167186   1.019   5.855   2.575  0.4335 -0.8634  1.1885
15257TIP3    H267187   1.036   5.721   2.505  0.6126 -0.1526 -0.1502
15258TIP3   OH267188   4.613   1.262   4.906 -0.2435  0.1375  0.5921
15258TIP3    H167189   4.611   1.264   4.811  1.0351 -0.7241  0.5108
15258TIP3    H267190   4.550   1.328   4.934 -1.3538 -0.2898 -0.8327
15259TIP3   OH267191   5.913   2.734  16.329  0.1503 -0.6153 -0.1319
15259TIP3    H167192   5.891   2.783  16.408  1.0188 -1.6380  0.7831
15259TIP3    H267193   6.008   2.746  16.320 -0.0971  0.4466 -1.7041
15260TIP3   OH267194   4.206   6.574   5.701  0.2386  0.0408 -0.2710
15260TIP3    H167195   4.186   6.644   5.762  1.9896 -0.9858  1.6069
15260TIP3    H267196   4.263   6.615   5.635  1.1922  0.4403  0.7678
15261TIP3   OH267197   6.194   6.318   1.624 -0.3153 -0.8980  0.4944
15261TIP3    H167198   6.182   6.369   1.704 -1.0122  0.0183 -0.1657
15261TIP3    H267199   6.289   6.316   1.610 -0.2496 -0.2665  0.8432
15262TIP3   OH267200   3.738   3.531  13.954 -0.1546 -0.4619 -0.2595
15262TIP3    H167201   3.702   3.508  14.040  0.2478  2.7946  0.9177
15262TIP3    H267202   3.666   3.512  13.893 -2.0905  1.0688  1.3760
15263TIP3   OH267203   1.779   3.055  13.412 -0.6852 -0.0434 -0.0748
15263TIP3    H167204   1.782   3.059  13.507  0.2384 -0.5124 -0.0727
15263TIP3    H267205   1.771   2.962  13.391 -3.5831  0.1836 -0.4403
15264TIP3   OH267206   0.648   3.542  16.769  0.2190 -0.2841  0.1334
15264TIP3    H167207   0.720   3.555  16.707 -0.7038  0.2606 -0.8370
15264TIP3    H267208   0.572   3.522  16.715 -0.8561  1.2747  1.0079
15265TIP3   OH267209   3.508   2.380   5.593 -0.3295 -0.2663  0.0158
15265TIP3    H167210   3.450   2.319   5.639 -1.5731  1.2941  0.5915
15265TIP3    H267211   3.526   2.337   5.509 -0.7963 -1.6157  0.5746
15266TIP3   OH267212   2.336   6.326  14.044  0.1802  0.1560  0.1401
15266TIP3    H167213   2.263   6.265  14.048 -0.0387  0.2987 -1.2527
15266TIP3    H267214   2.299   6.409  14.072  0.6708 -0.4593  2.8448
15267TIP3   OH267215   1.812   4.546   6.025  0.1066 -0.0154  0.7188
15267TIP3    H167216   1.748   4.475   6.016 -0.7016  0.7711  0.0904
15267TIP3    H267217   1.782   4.596   6.100  0.5974 -0.2550  1.0770
15268TIP3   OH267218   1.904   4.271  12.674  0.3302  0.1756  0.5798
15268TIP3    H167219   1.847   4.315  12.611  0.6557 -0.9005 -0.5100
15268TIP3    H267220   1.906   4.329  12.750 -4.0432 -0.7334  1.6493
15269TIP3   OH267221   4.103   2.918  10.906  0.3056 -0.0558 -0.2290
15269TIP3    H167222   4.192   2.887  10.887  1.0022  0.9748  1.1904
15269TIP3    H267223   4.105   3.011  10.882 -1.2629 -0.5700 -2.8418
15270TIP3   OH267224   1.802   2.663   2.543 -0.4990 -0.4234  0.0938
15270TIP3    H167225   1.864   2.667   2.616 -1.9451  0.6223  1.3337
15270TIP3    H267226   1.838   2.724   2.478  0.8809 -1.4702 -0.1794
15271TIP3   OH267227   1.404   4.577  12.978 -0.1967  0.1309 -0.2620
15271TIP3    H167228   1.482   4.527  12.958 -0.3777 -0.2484 -0.0316
15271TIP3    H267229   1.342   4.556  12.908  0.4385  1.6478 -1.3316
15272TIP3   OH267230   2.804   0.572   5.254 -0.0192  0.1450 -0.4550
15272TIP3    H167231   2.893   0.609   5.255 -0.1263  0.4750 -1.6487
15272TIP3    H267232   2.752   0.636   5.205 -0.8419 -0.2188 -0.0641
15273TIP3   OH267233   5.196   2.257   0.815 -0.1497  0.2576 -0.2657
15273TIP3    H167234   5.268   2.196   0.804 -1.8692 -1.7394 -1.0314
15273TIP3    H267235   5.230   2.340   0.780  2.4694  0.0183  1.4088
15274TIP3   OH267236   2.202   1.417  13.458 -0.7328  0.0750  0.1323
15274TIP3    H167237   2.144   1.342  13.443 -1.3326  0.0645  2.2399
15274TIP3    H267238   2.239   1.402  13.544  1.8679  0.5015 -0.8295
15275TIP3   OH267239   3.908   1.079  11.128  0.1932  0.1711 -0.2026
15275TIP3    H167240   3.901   1.141  11.200 -0.7009  2.2330 -1.9473
15275TIP3    H267241   3.941   0.999  11.168  0.8297  1.5713  2.2644
15276TIP3   OH267242   3.755   2.095   0.687  0.5918  0.1655  1.1206
15276TIP3    H167243   3.820   2.160   0.713  0.6657  1.0805 -1.1793
15276TIP3    H267244   3.675   2.146   0.673  0.6539 -0.1809 -0.7112
15277TIP3   OH267245   5.568   4.918  16.925 -0.3438 -0.2081 -0.3801
15277TIP3    H167246   5.639   4.884  16.869 -0.2694  0.1825 -0.5279
15277TIP3    H267247   5.498   4.941  16.863 -0.0314  0.7991 -0.3869
15278TIP3   OH267248   4.522   5.196  16.653 -0.1510 -0.4576  0.1311
15278TIP3    H167249   4.429   5.214  16.636 -0.2796 -0.8198  0.4413
15278TIP3    H267250   4.541   5.242  16.735 -0.1849 -0.7792  0.3233
15279TIP3   OH267251   6.680   4.774   2.429  0.4822 -0.1332 -0.0924
15279TIP3    H167252   6.730   4.699   2.462 -0.6984 -0.8215  0.2317
15279TIP3    H267253   6.631   4.806   2.506  1.4563  1.3992 -0.0785
15280TIP3   OH267254   2.476   4.747   5.234 -0.1005 -0.2833 -0.0304
15280TIP3    H167255   2.414   4.814   5.208  1.5190  0.6714 -1.7149
15280TIP3    H267256   2.436   4.665   5.206  0.3494  0.4960 -3.4226
15281TIP3   OH267257   6.542   1.499   1.248 -0.3822 -0.5681  0.3358
15281TIP3    H167258   6.509   1.436   1.184  0.4693 -1.4495  0.7321
15281TIP3    H267259   6.621   1.457   1.284  0.5295  0.9536  0.2144
15282TIP3   OH267260   5.065   4.139   5.711  0.1798 -0.0833 -0.1110
15282TIP3    H167261   5.053   4.194   5.788 -0.2948 -0.6940  0.2500
15282TIP3    H267262   5.052   4.050   5.742 -0.8774 -0.2845 -1.0670
15283TIP3   OH267263   1.210   0.332   2.328  0.1345 -0.6941  0.2101
15283TIP3    H167264   1.202   0.273   2.253  1.1266 -1.0414  0.3726
15283TIP3    H267265   1.133   0.389   2.321  0.0219 -0.9558 -0.8581
15284TIP3   OH267266   5.761   2.975   4.223  0.6044 -0.4321 -0.0654
15284TIP3    H167267   5.738   2.992   4.132  0.8931 -0.4344 -0.1405
15284TIP3    H267268   5.755   3.061   4.265  0.6289 -0.4020 -0.1229
15285TIP3   OH267269   3.187   6.312  17.046  0.0711 -0.0592 -0.1689
15285TIP3    H167270   3.163   6.353  17.129  1.2869 -0.5357  0.4558
15285TIP3    H267271   3.275   6.345  17.028  0.9058 -1.9765  0.1251
15286TIP3   OH267272   3.221   0.486  16.681  0.1910  0.4717  0.1091
15286TIP3    H167273   3.298   0.502  16.736  0.1784 -1.3391  0.7077
15286TIP3    H267274   3.255   0.490  16.592  1.4351 -2.1164  0.3857
15287TIP3   OH267275   4.941   3.281  16.954  0.3873 -0.0385  0.1463
15287TIP3    H167276   4.991   3.203  16.975 -1.7336 -1.2609  0.9363
15287TIP3    H267277   4.883   3.254  16.883  0.5773  1.2363 -0.5316
15288TIP3   OH267278   4.171   1.541   1.130  0.0770 -0.3570  0.1325
15288TIP3    H167279   4.251   1.553   1.079  0.4439 -1.8228  0.3038
15288TIP3    H267280   4.200   1.539   1.221  0.2312 -3.0698  0.1161
15289TIP3   OH267281   4.339   1.437  15.038  0.2679 -0.0248 -0.0078
15289TIP3    H167282   4.418   1.390  15.010  0.0878 -0.5502  0.3348
15289TIP3    H267283   4.295   1.375  15.097 -0.6076  0.0993 -0.5187
15290TIP3   OH267284   5.947   0.755   3.669 -0.4430 -0.3869  0.4094
15290TIP3    H167285   5.933   0.660   3.664  0.0815 -0.4133 -2.4500
15290TIP3    H267286   5.927   0.786   3.580  3.1225  1.5871  0.1125
15291TIP3   OH267287   6.654   5.587   2.702  0.0830  0.0838 -0.5908
15291TIP3    H167288   6.673   5.677   2.731  1.9237  0.1177 -1.6983
15291TIP3    H267289   6.639   5.595   2.608  1.4892 -0.8715 -0.9406
15292TIP3   OH267290   5.052   1.575  17.045  0.4234 -0.5362  0.4750
15292TIP3    H167291   5.105   1.644  17.005  0.5514 -0.7885  0.1975
15292TIP3    H267292   5.113   1.503  17.059  0.0558 -1.0265 -0.3437
15293TIP3   OH267293   1.698   6.524   4.401  0.0702 -0.0643 -0.8145
15293TIP3    H167294   1.623   6.545   4.457 -0.2809 -4.5125  0.7907
15293TIP3    H267295   1.772   6.567   4.443 -0.3543 -2.4037  2.8138
15294TIP3   OH267296   3.227   2.433  15.015  0.5533 -0.4834  0.0076
15294TIP3    H167297   3.308   2.433  14.964 -0.4894 -0.0949 -1.7354
15294TIP3    H267298   3.187   2.517  14.994 -1.0261 -1.3113 -0.3948
15295TIP3   OH267299   0.816   2.080   3.462 -0.2575 -0.0677 -0.4440
15295TIP3    H167300   0.761   2.084   3.540  1.8113 -2.4332  1.3086
15295TIP3    H267301   0.899   2.120   3.490  0.9164 -2.0039 -0.9532
15296TIP3   OH267302   0.077   5.295  11.950  0.0083 -0.8296  0.0562
15296TIP3    H167303   0.154   5.350  11.947 -0.3538 -0.3421 -0.5334
15296TIP3    H267304   0.079   5.246  11.867 -1.7722  1.2286 -1.2927
15297TIP3   OH267305   4.042   0.943  15.737  0.0474  0.7320  0.6362
15297TIP3    H167306   4.013   1.032  15.758  1.0541  1.3989 -0.6182
15297TIP3    H267307   4.022   0.892  15.815 -0.5421  2.0642  1.3909
15298TIP3   OH267308   1.614   6.455   5.269  0.2354  0.5380  0.4666
15298TIP3    H167309   1.689   6.478   5.324  2.0624 -0.0234 -1.6546
15298TIP3    H267310   1.538   6.469   5.326  1.7914  2.6625  2.2274
15299TIP3   OH267311   6.627   2.055  15.058  1.1616  0.7035 -0.0244
15299TIP3    H167312   6.652   2.047  14.965 -1.6801 -0.2816 -0.8242
15299TIP3    H267313   6.559   1.988  15.069  2.0908  0.1463  3.0683
15300TIP3   OH267314   4.994   0.498  16.715  0.0939 -0.3235 -0.9016
15300TIP3    H167315   4.931   0.563  16.746  0.1617 -0.3361 -0.7373
15300TIP3    H267316   5.000   0.435  16.786  1.0699  0.2229 -0.4763
15301TIP3   OH267317   6.432   6.230   5.556 -0.3919  0.4433 -0.2028
15301TIP3    H167318   6.341   6.220   5.584 -0.6520  0.2933 -1.0855
15301TIP3    H267319   6.462   6.141   5.540 -0.6592  0.5871 -1.6559
15302TIP3   OH267320   1.375   5.369   4.826  0.8347  0.3827 -0.1915
15302TIP3    H167321   1.467   5.392   4.819  0.1275  3.9474  0.0988
15302TIP3    H267322   1.331   5.429   4.765 -1.5566  1.5216  2.4141
15303TIP3   OH267323   4.660   6.711  13.534  0.2068 -0.3382  0.0557
15303TIP3    H167324   4.627   6.796  13.505 -1.7151 -0.4899  1.5814
15303TIP3    H267325   4.691   6.727  13.623  3.4578 -0.4632 -0.9382
15304TIP3   OH267326   4.968   3.300   2.469 -0.4464  0.1600 -0.5625
15304TIP3    H167327   5.043   3.258   2.511 -0.8878 -0.8751 -0.7866
15304TIP3    H267328   5.000   3.387   2.445  1.5105 -1.0720 -2.8768
15305TIP3   OH267329   4.698   6.519  10.547 -0.1819 -0.4124  0.2083
15305TIP3    H167330   4.770   6.573  10.515  0.8268 -1.4725  0.6383
15305TIP3    H267331   4.674   6.559  10.631 -2.2255  1.8166 -1.3182
15306TIP3   OH267332   1.066   0.375  16.070 -0.1205  0.3289 -0.5451
15306TIP3    H167333   0.989   0.355  16.016 -0.8505 -1.5001  1.0499
15306TIP3    H267334   1.124   0.301  16.058  0.0900  0.3122  0.4902
15307TIP3   OH267335   4.378   3.230  15.287  0.1757  0.2668 -0.2360
15307TIP3    H167336   4.422   3.159  15.334  1.2820  0.0526 -1.5184
15307TIP3    H267337   4.443   3.260  15.223 -0.9597  1.1347 -1.0281
15308TIP3   OH267338   6.271   3.305  15.770 -0.4768  0.6824  0.6252
15308TIP3    H167339   6.238   3.216  15.759 -0.2606  0.6535  0.1882
15308TIP3    H267340   6.364   3.294  15.789 -0.1534  0.8513 -0.7362
15309TIP3   OH267341   4.904   4.200   0.642  0.2241  0.3972 -0.3255
15309TIP3    H167342   4.967   4.207   0.714 -0.8905  0.1935  0.7020
15309TIP3    H267343   4.908   4.284   0.598 -0.2871  1.1710  1.0345
15310TIP3   OH267344   5.504   6.560   1.143  0.3859 -0.5201 -0.2246
15310TIP3    H167345   5.598   6.550   1.130  0.6491  1.6695 -0.3796
15310TIP3    H267346   5.478   6.628   1.081 -1.9817 -3.2833 -2.5718
15311TIP3   OH267347   6.461   5.026   1.388 -0.0582 -0.2369 -0.5342
15311TIP3    H167348   6.490   5.109   1.425  0.2109  0.1068 -1.5019
15311TIP3    H267349   6.417   4.982   1.461 -0.3689  0.8236 -0.0636
15312TIP3   OH267350   3.966   3.390   5.701  0.1246 -0.1791  0.2907
15312TIP3    H167351   3.874   3.412   5.714  0.1378  0.5571 -0.6893
15312TIP3    H267352   4.013   3.442   5.766 -0.0047  1.2678 -0.7104
15313TIP3   OH267353   2.684   0.708  13.583  0.2930  0.2221  0.1267
15313TIP3    H167354   2.621   0.648  13.542  0.5672  0.5366 -0.7804
15313TIP3    H267355   2.739   0.652  13.637  0.5246 -0.3493 -0.6800
15314TIP3   OH267356   0.996   0.504  14.283  0.0686 -0.3205 -0.5006
15314TIP3    H167357   0.916   0.460  14.312 -0.3448 -0.7787 -2.2467
15314TIP3    H267358   1.005   0.579  14.343 -0.8733 -1.0471  0.6017
15315TIP3   OH267359   0.599   1.047  14.978 -0.4387  0.6544  0.3942
15315TIP3    H167360   0.678   1.008  14.940 -1.6125 -0.3890 -1.1152
15315TIP3    H267361   0.541   0.972  14.996 -0.5106  1.2492  3.0020
15316TIP3   OH267362   1.955   1.091  14.384 -0.1593 -0.0236  0.7044
15316TIP3    H167363   2.012   1.091  14.461  0.1915  0.7080  0.4563
15316TIP3    H267364   2.011   1.125  14.314 -0.8920  0.6786  0.4501
15317TIP3   OH267365   3.122   4.894  11.075 -0.6663 -0.6147  0.2005
15317TIP3    H167366   3.182   4.861  11.008  0.7418  0.3100  0.9635
15317TIP3    H267367   3.101   4.983  11.048 -1.0192 -0.6333  0.3998
15318TIP3   OH267368   5.852   4.004  11.877 -0.0694  0.0885  0.3339
15318TIP3    H167369   5.948   4.001  11.879 -0.0423 -0.6398 -1.0104
15318TIP3    H267370   5.830   4.091  11.911  1.0971  0.5025  0.0687
15319TIP3   OH267371   2.091   2.879  15.873 -0.3349 -0.2664 -0.5819
15319TIP3    H167372   2.049   2.958  15.906  0.7145 -0.2506  0.8221
15319TIP3    H267373   2.059   2.808  15.929 -0.3313 -0.6499 -1.0479
15320TIP3   OH267374   2.167   3.054   3.986  0.0818  0.3108  0.1006
15320TIP3    H167375   2.227   3.053   4.061  0.5008  2.3223 -0.1548
15320TIP3    H267376   2.140   3.145   3.978  0.0701  0.1717 -2.2040
15321TIP3   OH267377   2.799   2.394   0.328  0.2720  0.4431  0.2356
15321TIP3    H167378   2.869   2.329   0.324 -1.0644 -1.0219 -0.5464
15321TIP3    H267379   2.843   2.478   0.314  1.8334 -0.4456 -0.4248
15322TIP3   OH267380   2.215   3.890  15.249  0.2861 -0.6536  0.2675
15322TIP3    H167381   2.281   3.892  15.180  0.6248  1.2975  0.6003
15322TIP3    H267382   2.255   3.936  15.322 -2.0484  2.3009 -0.1490
15323TIP3   OH267383   4.389   5.361  13.256  0.5494 -0.0097 -0.3678
15323TIP3    H167384   4.467   5.379  13.308  0.8170 -0.6288 -0.5504
15323TIP3    H267385   4.317   5.401  13.305  0.8264 -0.4115  0.3815
15324TIP3   OH267386   2.098   2.867  12.609  0.3309 -0.1307 -0.0966
15324TIP3    H167387   2.015   2.862  12.563  0.2148 -0.8938  0.1894
15324TIP3    H267388   2.162   2.833  12.546  0.5311  0.9844 -0.5288
15325TIP3   OH267389   2.432   2.178   1.516  0.5752 -0.6350 -0.4896
15325TIP3    H167390   2.400   2.266   1.536  3.0525  0.5834 -1.4925
15325TIP3    H267391   2.353   2.129   1.491 -0.7772  1.5152 -0.6825
15326TIP3   OH267392   1.949   5.202  12.593  0.2120  0.0908  0.0007
15326TIP3    H167393   1.875   5.238  12.642 -0.9981 -1.0691 -0.8965
15326TIP3    H267394   1.938   5.236  12.504  0.9812  0.2081 -0.0598
15327TIP3   OH267395   0.605   4.606   5.153 -0.7658  0.2517  0.5101
15327TIP3    H167396   0.676   4.548   5.126 -0.1120  1.3828 -0.2981
15327TIP3    H267397   0.558   4.556   5.220 -0.5092 -1.3669 -0.4569
15328TIP3   OH267398   5.446   2.867  11.546  0.2776 -0.3708  0.4166
15328TIP3    H167399   5.511   2.937  11.539  1.8124 -1.8286 -0.9864
15328TIP3    H267400   5.428   2.860  11.640  0.5920  1.4244  0.6330
15329TIP3   OH267401   4.043   6.228   4.758 -0.0699  0.0348 -0.0812
15329TIP3    H167402   4.022   6.178   4.837  0.4851  0.3672  0.2840
15329TIP3    H267403   4.015   6.318   4.778  0.5615  0.2304 -0.0475
15330TIP3   OH267404   4.660   4.846  13.812  0.8152  0.1974  0.2570
15330TIP3    H167405   4.732   4.871  13.869  1.7226 -1.5402 -0.0426
15330TIP3    H267406   4.598   4.801  13.869 -0.2382  1.9947  0.5788
15331TIP3   OH267407   6.456   4.632  13.124  0.3692  0.3080 -0.2078
15331TIP3    H167408   6.549   4.653  13.118  1.1907 -2.5575  0.7802
15331TIP3    H267409   6.417   4.672  13.046  2.2965  1.9362 -0.4267
15332TIP3   OH267410   6.327   2.159  10.324  0.2339  0.3158  0.3563
15332TIP3    H167411   6.322   2.121  10.236 -1.3662  1.8640 -0.2630
15332TIP3    H267412   6.303   2.250  10.313 -0.9894  0.3317  2.5496
15333TIP3   OH267413   2.000   4.798  14.452 -0.3314  0.1231  0.2899
15333TIP3    H167414   2.035   4.734  14.389 -0.2378  1.7561 -1.3873
15333TIP3    H267415   2.058   4.873  14.444 -1.7497  1.2820  0.5609
15334TIP3   OH267416   4.055   6.701  15.041 -0.0089  0.2004 -0.4098
15334TIP3    H167417   4.004   6.708  15.122 -1.4972 -2.8301 -0.9129
15334TIP3    H267418   4.145   6.688  15.070 -0.0581  1.9201  0.6332
15335TIP3   OH267419   5.781   0.494   3.766  0.7573  0.4182 -0.2743
15335TIP3    H167420   5.874   0.496   3.785  0.8422 -0.0728 -0.6462
15335TIP3    H267421   5.740   0.535   3.843  1.1467 -0.9482  0.6826
15336TIP3   OH267422   0.556   4.564   0.904 -0.0390  0.0092 -0.2976
15336TIP3    H167423   0.607   4.524   0.833 -0.2706 -0.5743 -0.1419
15336TIP3    H267424   0.465   4.549   0.879 -0.1892  1.9863 -1.1157
15337TIP3   OH267425   4.312   0.847  16.960  0.1754  0.3930 -0.4302
15337TIP3    H167426   4.298   0.758  16.991 -1.1355  0.4939 -0.6556
15337TIP3    H267427   4.397   0.845  16.917 -0.6281 -1.2406 -2.0722
15338TIP3   OH267428   2.672   4.767  15.841  0.0374 -0.2060 -0.3698
15338TIP3    H167429   2.666   4.673  15.860 -0.3674 -0.0697  0.2022
15338TIP3    H267430   2.633   4.777  15.754  0.2358 -0.5881 -0.5057
15339TIP3   OH267431   3.833   0.901  14.512 -0.6133 -0.0463  0.2967
15339TIP3    H167432   3.845   0.994  14.531 -0.5936  0.3642 -1.5143
15339TIP3    H267433   3.863   0.892  14.421  0.3832 -2.0304  0.7877
15340TIP3   OH267434   6.724   1.314   4.101 -0.1556 -0.4275 -0.1956
15340TIP3    H167435   6.670   1.391   4.119  0.6455 -0.0769  0.8456
15340TIP3    H267436   6.680   1.270   4.029 -1.1026  0.5454 -0.2413
15341TIP3   OH267437   2.483   3.277  15.007  0.2538  0.4049  0.0937
15341TIP3    H167438   2.520   3.345  14.952 -0.3420 -0.3991 -1.3446
15341TIP3    H267439   2.389   3.282  14.992  0.0248  0.4334  1.3767
15342TIP3   OH267440   0.012   1.987  17.195  0.5901  0.2532 -0.1354
15342TIP3    H167441   0.095   1.995  17.241  0.0836  1.9907  0.5381
15342TIP3    H267442   0.009   2.064  17.137 -0.8260  0.5911  0.3464
15343TIP3   OH267443   6.683   6.213  14.961  0.8384  0.4361  0.3482
15343TIP3    H167444   6.725   6.172  14.886  0.0127  0.0138  0.0958
15343TIP3    H267445   6.721   6.168  15.037 -1.9244 -2.8743  0.0364
15344TIP3   OH267446   6.379   5.882  12.321  0.0558  0.0775  0.3195
15344TIP3    H167447   6.397   5.808  12.379 -3.2385  0.1593  1.6596
15344TIP3    H267448   6.440   5.951  12.350  0.9332 -1.0444  1.2290
15345TIP3   OH267449   4.948   2.868   3.306  0.5715  0.1572 -0.0972
15345TIP3    H167450   5.013   2.835   3.245  1.2444  0.9751  0.1629
15345TIP3    H267451   4.899   2.934   3.257  0.4082  0.0582 -0.0713
15346TIP3   OH267452   0.226   1.759  15.518 -0.0445  0.4167  0.0429
15346TIP3    H167453   0.320   1.742  15.505 -0.4077 -2.4177  0.3229
15346TIP3    H267454   0.182   1.692  15.465 -1.8795  0.9674  0.7881
15347TIP3   OH267455   0.739   3.947  13.976  0.1297  0.0684 -0.0102
15347TIP3    H167456   0.748   3.865  14.024  0.2890  0.9257  1.4696
15347TIP3    H267457   0.775   3.928  13.889  1.1652 -1.1229  0.6535
15348TIP3   OH267458   2.468   0.207   1.275 -0.0158 -0.0924  0.6598
15348TIP3    H167459   2.394   0.187   1.332 -0.6583 -1.1058 -0.4661
15348TIP3    H267460   2.429   0.251   1.199  0.3412 -1.5218 -0.4112
15349TIP3   OH267461   6.192   1.691  17.205 -0.1586 -0.1452  0.0218
15349TIP3    H167462   6.196   1.764  17.267  2.7159  1.0110 -1.3488
15349TIP3    H267463   6.234   1.618  17.250 -0.0671  0.0258  0.2119
15350TIP3   OH267464   6.351   5.389   3.835 -0.3289  0.4187  0.5161
15350TIP3    H167465   6.417   5.342   3.887  0.7906  1.0422 -0.3139
15350TIP3    H267466   6.377   5.481   3.840 -1.8940  0.8523  1.2422
15351TIP3   OH267467   5.857   4.971  12.782  0.2699 -0.6120  0.3631
15351TIP3    H167468   5.869   4.928  12.697  0.1187 -2.7745  1.3771
15351TIP3    H267469   5.908   4.918  12.843 -1.4530 -0.4773  2.0057
15352TIP3   OH267470   5.067   3.165   1.186 -0.3574  0.5800 -0.3575
15352TIP3    H167471   5.097   3.158   1.096 -1.0831 -0.6386 -0.5302
15352TIP3    H267472   5.091   3.081   1.226  2.3169  2.0097  1.3704
15353TIP3   OH267473   3.545   0.998  13.934 -0.0401 -0.2838 -0.3318
15353TIP3    H167474   3.526   0.909  13.964 -1.4915  0.0582 -0.1554
15353TIP3    H267475   3.516   1.054  14.006  2.1425  0.3009  0.1512
15354TIP3   OH267476   6.653   1.865   5.272  0.2034  0.5799 -0.6731
15354TIP3    H167477   6.615   1.782   5.244  0.0222  0.2426  0.5142
15354TIP3    H267478   6.637   1.868   5.367  0.4212  1.8574 -0.6659
15355TIP3   OH267479   6.416   2.455  14.117 -0.5275 -0.1198  0.2144
15355TIP3    H167480   6.401   2.498  14.201  0.4139  0.1095  0.2781
15355TIP3    H267481   6.488   2.394  14.134  1.5376  1.8229 -0.9998
15356TIP3   OH267482   3.166   5.868   6.209 -0.4822  0.2123 -0.0029
15356TIP3    H167483   3.111   5.793   6.229 -1.5002  1.0382  0.3826
15356TIP3    H267484   3.109   5.944   6.220  0.3920  1.0268 -0.8256
15357TIP3   OH267485   2.849   1.307  12.774 -0.3720 -0.1376 -0.7741
15357TIP3    H167486   2.828   1.392  12.735  2.3369  0.8895 -0.2200
15357TIP3    H267487   2.875   1.252  12.699 -1.0232 -0.1323 -1.0106
15358TIP3   OH267488   6.315   2.019   1.348  0.2072 -0.4442  0.3888
15358TIP3    H167489   6.389   2.005   1.406  0.6875 -0.6173 -0.2479
15358TIP3    H267490   6.261   2.084   1.392  2.7567  2.8342 -0.9516
15359TIP3   OH267491   1.711   2.333   3.715  0.5692  0.2804  0.4045
15359TIP3    H167492   1.697   2.426   3.701 -0.9805  0.1652  0.9400
15359TIP3    H267493   1.658   2.312   3.793  3.4099 -0.4356  2.2958
15360TIP3   OH267494   6.513   2.627  11.414 -0.7365  0.0483  0.2465
15360TIP3    H167495   6.557   2.709  11.437 -0.8761  0.3296 -0.4562
15360TIP3    H267496   6.443   2.654  11.355  0.5859 -0.7735 -1.8213
15361TIP3   OH267497   4.453   6.009   1.829 -0.4504 -0.0350  0.7467
15361TIP3    H167498   4.520   5.991   1.762 -1.0009 -1.5686  0.5767
15361TIP3    H267499   4.490   6.080   1.881  1.2739 -0.7644  0.5866
15362TIP3   OH267500   6.177   1.413  13.261  0.4230  0.2568 -0.0250
15362TIP3    H167501   6.191   1.500  13.223 -4.4609  1.1708 -0.3083
15362TIP3    H267502   6.180   1.354  13.185 -1.6158  1.0162 -0.7531
15363TIP3   OH267503   5.073   0.352  15.908 -0.0297 -0.0263 -0.3106
15363TIP3    H167504   4.992   0.403  15.913  0.3756  0.6431 -0.4416
15363TIP3    H267505   5.082   0.329  15.815 -0.7742 -1.2813 -0.0920
15364TIP3   OH267506   4.859   3.378   2.023 -0.0089  0.4208  0.1213
15364TIP3    H167507   4.819   3.452   1.976  0.3370  1.3852  1.2938
15364TIP3    H267508   4.854   3.305   1.961  2.6587  2.1920 -2.4431
15365TIP3   OH267509   3.740   5.265  11.459  0.4251  0.5769  0.4620
15365TIP3    H167510   3.820   5.238  11.505  0.3377 -0.3412  0.0896
15365TIP3    H267511   3.770   5.286  11.370  0.0868 -1.0213 -0.0664
15366TIP3   OH267512   5.138   2.431  14.288  0.5318  0.3258  0.0480
15366TIP3    H167513   5.210   2.369  14.282  1.6081  1.5661 -0.4467
15366TIP3    H267514   5.118   2.437  14.381  1.8587  0.8157  0.3192
15367TIP3   OH267515   3.362   6.662   0.408  0.2814  0.7054  0.2535
15367TIP3    H167516   3.361   6.572   0.440 -2.0290 -0.4419 -2.5975
15367TIP3    H267517   3.444   6.669   0.359 -0.4793 -0.6757 -1.3296
15368TIP3   OH267518   4.804   6.203   2.298 -0.7316  0.1803  0.0699
15368TIP3    H167519   4.746   6.147   2.350 -1.1314  1.7633  1.4385
15368TIP3    H267520   4.890   6.192   2.339 -0.9597  1.0875  0.8414
15369TIP3   OH267521   6.537   1.715  17.347  0.4850  0.5694  0.1882
15369TIP3    H167522   6.549   1.730  17.254  2.9491 -0.1983  0.3230
15369TIP3    H267523   6.492   1.631  17.353 -0.1174  0.8505 -0.2895
15370TIP3   OH267524   2.625   1.235  11.319 -0.4929 -0.2964 -0.0832
15370TIP3    H167525   2.564   1.220  11.247  0.8162 -0.5900 -1.1757
15370TIP3    H267526   2.711   1.217  11.281  0.3127  0.5062  1.2912
15371TIP3   OH267527   6.583   0.865  16.876  0.2915 -0.3546  0.4271
15371TIP3    H167528   6.619   0.952  16.894  2.1912 -0.4888 -2.2147
15371TIP3    H267529   6.593   0.853  16.782 -0.0635 -3.3820  0.6554
15372TIP3   OH267530   1.717   6.384  13.173 -0.3150 -0.6362  0.2657
15372TIP3    H167531   1.759   6.298  13.164 -2.3752 -1.7769  0.8283
15372TIP3    H267532   1.623   6.365  13.168 -0.8120  1.7064 -0.3183
15373TIP3   OH267533   3.251   6.310  15.722 -0.7887 -0.0857  0.2549
15373TIP3    H167534   3.244   6.359  15.640  0.0091 -0.3916 -0.0049
15373TIP3    H267535   3.168   6.326  15.767 -0.5960  1.4198  0.1311
15374TIP3   OH267536   0.441   4.991  15.848 -0.0155 -0.0669  0.0781
15374TIP3    H167537   0.441   5.086  15.855 -0.9610 -0.1241  1.2450
15374TIP3    H267538   0.521   4.970  15.800  0.0337  1.3280 -0.4964
15375TIP3   OH267539   4.349   5.308  13.907 -0.1634  0.2798  0.4523
15375TIP3    H167540   4.292   5.347  13.841  0.9731  0.1236 -0.6751
15375TIP3    H267541   4.383   5.229  13.866  2.8100  1.6467 -0.0062
15376TIP3   OH267542   1.657   0.373   5.456 -0.4024  0.5540 -0.5246
15376TIP3    H167543   1.630   0.404   5.542 -0.7844 -0.9406 -0.0802
15376TIP3    H267544   1.576   0.351   5.411 -0.1124 -0.7075 -0.4552
15377TIP3   OH267545   6.398   3.143  12.050 -0.5007 -0.0066  0.0002
15377TIP3    H167546   6.467   3.099  12.099 -0.3306  0.9779  0.6781
15377TIP3    H267547   6.349   3.192  12.117 -0.5154  1.0368 -0.7495
15378TIP3   OH267548   5.986   1.757  12.225 -0.4472 -0.1937  0.0273
15378TIP3    H167549   6.069   1.770  12.271  0.4608 -0.1279 -1.5613
15378TIP3    H267550   6.011   1.730  12.137 -2.1344 -0.7396 -0.3255
15379TIP3   OH267551   1.232   4.018   1.619  0.0381 -0.0189  0.3776
15379TIP3    H167552   1.209   3.936   1.574  0.7629  0.5931 -1.2180
15379TIP3    H267553   1.275   3.990   1.699 -0.1050 -1.2063  0.0642
15380TIP3   OH267554   0.968   1.660  11.522  0.0613  0.2659  0.7735
15380TIP3    H167555   1.013   1.607  11.588 -0.6361 -1.3366  0.0274
15380TIP3    H267556   1.038   1.690  11.464  0.3829 -0.6092  0.6995
15381TIP3   OH267557   2.630   2.365  16.317  0.1929 -0.4161 -0.0023
15381TIP3    H167558   2.626   2.272  16.296 -1.5421 -0.5108  0.6214
15381TIP3    H267559   2.585   2.408  16.244  1.3838  0.0067 -0.5189
15382TIP3   OH267560   2.452   4.987  16.402  0.0428 -0.3052  0.3867
15382TIP3    H167561   2.519   5.018  16.463 -0.5875  0.6352  0.6388
15382TIP3    H267562   2.417   5.067  16.363 -0.2018 -0.8450 -0.5312
15383TIP3   OH267563   6.379   2.957   3.272  0.0366 -0.2132 -0.1184
15383TIP3    H167564   6.300   2.904   3.263 -0.8547  1.2281 -1.0422
15383TIP3    H267565   6.451   2.894   3.261 -0.9678 -1.3995 -0.1047
15384TIP3   OH267566   2.568   0.526   0.435 -0.0470 -0.2399 -0.2954
15384TIP3    H167567   2.561   0.506   0.341 -0.5086 -0.4584 -0.2185
15384TIP3    H267568   2.477   0.531   0.465  0.0943  0.0685  0.0938
15385TIP3   OH267569   1.973   5.187  16.524 -0.2382 -0.2102  0.5452
15385TIP3    H167570   1.892   5.238  16.520  0.2576  0.6939  1.6281
15385TIP3    H267571   1.996   5.173  16.432 -2.0393 -1.2100  0.1843
15386TIP3   OH267572   1.716   5.559   0.989  0.6125 -0.2679 -0.1959
15386TIP3    H167573   1.660   5.551   1.066  3.0871  2.5882  2.1662
15386TIP3    H267574   1.796   5.512   1.013  0.9800 -0.3894 -1.5750
15387TIP3   OH267575   2.161   3.093   5.543  0.0535  0.0560  0.0233
15387TIP3    H167576   2.214   3.075   5.465  2.3281  1.7423  1.0932
15387TIP3    H267577   2.189   3.027   5.607 -0.1346  0.1095  0.1622
15388TIP3   OH267578   5.952   2.809  15.841  0.2234 -0.3918  0.3366
15388TIP3    H167579   5.860   2.803  15.870 -0.0652  0.1642 -0.4242
15388TIP3    H267580   5.951   2.776  15.752 -0.0402  3.1873 -1.1709
15389TIP3   OH267581   4.952   2.283  15.007  0.7601 -0.1139 -0.2733
15389TIP3    H167582   4.947   2.262  14.913 -2.2533  2.7383 -0.9209
15389TIP3    H267583   4.991   2.371  15.010 -0.9101  0.6374  0.9287
15390TIP3   OH267584   2.432   1.153  14.685  0.6725 -0.4390 -0.6272
15390TIP3    H167585   2.526   1.135  14.675  0.9532 -0.5336  1.5697
15390TIP3    H267586   2.420   1.239  14.647  1.5550 -0.6253 -1.3630
15391TIP3   OH267587   4.243   2.747  13.001  0.1890 -0.0969 -0.0568
15391TIP3    H167588   4.318   2.801  13.025 -0.3655  0.4561  0.4797
15391TIP3    H267589   4.247   2.739  12.906  0.4956  0.5800 -0.1051
15392TIP3   OH267590   0.613   1.159   6.492  0.1766 -0.1138 -0.0021
15392TIP3    H167591   0.520   1.181   6.479  0.7106  2.0056 -0.5834
15392TIP3    H267592   0.619   1.067   6.469 -1.4684  0.1619 -1.8068
15393TIP3   OH267593   3.178   1.197  13.990 -0.4720  0.2855 -0.2986
15393TIP3    H167594   3.181   1.258  13.917 -1.1234  0.8288  0.1177
15393TIP3    H267595   3.115   1.235  14.051 -0.0496 -0.2338  0.4827
15394TIP3   OH267596   1.105   3.295   4.720  0.0395 -0.3038  0.1562
15394TIP3    H167597   1.105   3.311   4.814  0.1704  0.7066  0.0071
15394TIP3    H267598   1.093   3.201   4.710 -1.1331 -0.2825  1.1559
15395TIP3   OH267599   3.603   2.177  11.670 -0.0149  0.3314  0.3019
15395TIP3    H167600   3.646   2.229  11.603  0.7804 -1.2500 -0.4826
15395TIP3    H267601   3.511   2.201  11.664  0.1731  0.8169 -0.8049
15396TIP3   OH267602   0.524   5.737   2.854 -0.6938 -0.1889  0.0765
15396TIP3    H167603   0.587   5.715   2.785 -0.7116 -0.6936  0.2119
15396TIP3    H267604   0.575   5.732   2.935 -0.3310  1.7726  0.0091
15397TIP3   OH267605   0.831   0.652   4.383  0.3755 -0.0883  1.2919
15397TIP3    H167606   0.811   0.630   4.292 -0.0051  2.3680  0.7337
15397TIP3    H267607   0.782   0.587   4.434 -3.3077  1.2797 -0.1728
15398TIP3   OH267608   4.659   1.432   1.693 -0.1797  0.2418 -0.5372
15398TIP3    H167609   4.684   1.406   1.781  0.6613  1.5374 -0.3757
15398TIP3    H267610   4.616   1.517   1.704 -0.3073  0.2917 -1.3479
15399TIP3   OH267611   3.690   3.389   2.992  0.1704  0.0611 -0.1105
15399TIP3    H167612   3.656   3.314   3.041 -0.6159  0.8271  0.5571
15399TIP3    H267613   3.727   3.447   3.058  1.1755  0.0741 -0.6642
15400TIP3   OH267614   2.956   5.309   1.061 -0.0025  0.3336  0.3809
15400TIP3    H167615   2.919   5.264   0.985  0.7626  0.4897 -0.0959
15400TIP3    H267616   2.880   5.337   1.112 -0.5159 -0.0233 -0.1832
15401TIP3   OH267617   1.989   5.779  14.195  0.2038 -0.3345  0.6203
15401TIP3    H167618   1.954   5.859  14.235 -0.5002  0.4213 -1.3880
15401TIP3    H267619   2.082   5.779  14.220  0.1689  0.9966  0.8473
15402TIP3   OH267620   1.785   1.059  16.836 -0.3188  0.4412 -0.3728
15402TIP3    H167621   1.791   1.145  16.795  1.3655  0.5475  0.0289
15402TIP3    H267622   1.820   0.999  16.770  1.3770  0.4756  0.4618
15403TIP3   OH267623   3.982   3.623   2.095 -0.7323 -0.2368 -0.8840
15403TIP3    H167624   3.930   3.548   2.126  0.4398 -1.3979 -1.5959
15403TIP3    H267625   4.073   3.596   2.110 -0.2520  2.3599  1.8058
15404TIP3   OH267626   2.717   2.104  14.836 -0.5068  0.1647 -0.0867
15404TIP3    H167627   2.693   2.048  14.910 -1.4642 -1.0447 -1.2702
15404TIP3    H267628   2.707   2.193  14.870 -2.4527 -0.3308  0.8086
15405TIP3   OH267629   3.843   2.682   4.652 -0.2325  0.1950  0.4355
15405TIP3    H167630   3.888   2.735   4.586 -2.0537 -0.0228 -1.0519
15405TIP3    H267631   3.866   2.724   4.735  1.9156  0.6314 -0.3037
15406TIP3   OH267632   1.136   6.358  11.988 -0.4281  0.4282  0.6087
15406TIP3    H167633   1.174   6.446  11.986 -0.3316  0.3959  1.0678
15406TIP3    H267634   1.173   6.315  11.911  0.8547  0.2412  1.3031
15407TIP3   OH267635   4.662   1.767  15.495 -0.1747  0.0061 -0.6105
15407TIP3    H167636   4.736   1.827  15.502  0.6249 -0.9506 -0.6814
15407TIP3    H267637   4.702   1.681  15.484 -1.2892 -0.3070 -2.7491
15408TIP3   OH267638   1.393   3.187   5.196 -0.2537  0.1393  0.0640
15408TIP3    H167639   1.406   3.233   5.113  1.2950  0.5104  0.4791
15408TIP3    H267640   1.315   3.227   5.234 -0.2631  0.8166 -0.6473
15409TIP3   OH267641   5.761   1.518   2.959 -0.5292 -0.1092  0.2486
15409TIP3    H167642   5.830   1.541   2.897  0.9307 -1.1870  1.4083
15409TIP3    H267643   5.741   1.601   3.003 -1.9293  0.7845 -1.8760
15410TIP3   OH267644   2.306   4.060  16.915 -0.3992  0.4469  0.3198
15410TIP3    H167645   2.344   3.974  16.934  1.4510  1.4437  1.4134
15410TIP3    H267646   2.219   4.056  16.954  0.0252 -0.6180  1.2328
15411TIP3   OH267647   1.131   3.522  12.648  0.2780 -0.0953  0.4556
15411TIP3    H167648   1.117   3.427  12.650  1.0202 -0.2008  0.7096
15411TIP3    H267649   1.106   3.551  12.736 -0.6904  0.0584  0.1411
15412TIP3   OH267650   5.869   6.408  14.579 -0.4094  0.9218 -0.2104
15412TIP3    H167651   5.812   6.365  14.515 -0.5906 -0.8375  1.0599
15412TIP3    H267652   5.838   6.376  14.664  1.3409  1.3097  0.6222
15413TIP3   OH267653   0.963   1.027   1.121  0.2698  0.9799 -0.3766
15413TIP3    H167654   1.049   0.996   1.151  0.7490  1.7850 -0.8996
15413TIP3    H267655   0.914   0.947   1.101  0.4469  0.4575  1.1095
15414TIP3   OH267656   1.191   0.455   5.493  0.1959 -0.8855 -0.3919
15414TIP3    H167657   1.202   0.463   5.588  1.5953 -2.3791 -0.3740
15414TIP3    H267658   1.208   0.543   5.459  0.3424 -0.4765  0.6867
15415TIP3   OH267659   6.300   5.981  13.009  0.2087 -0.2547  0.7819
15415TIP3    H167660   6.343   6.042  13.070  2.1687 -1.5155  0.7525
15415TIP3    H267661   6.231   5.940  13.061  0.9430 -0.2848  1.7725
15416TIP3   OH267662   5.850   4.722  13.775  0.2924 -0.7367  0.6152
15416TIP3    H167663   5.924   4.773  13.741  1.7863 -0.6653  3.6404
15416TIP3    H267664   5.884   4.632  13.779 -0.4146 -1.0153  0.3692
15417TIP3   OH267665   3.218   0.898   1.070 -0.2452 -0.8775  0.3968
15417TIP3    H167666   3.259   0.955   1.135 -1.2189  0.9322 -0.4967
15417TIP3    H267667   3.125   0.919   1.076 -0.3313 -0.4635 -1.7456
15418TIP3   OH267668   2.636   5.347   0.306  0.7981 -0.4970  0.0590
15418TIP3    H167669   2.687   5.276   0.346  0.1358 -0.6089  0.7226
15418TIP3    H267670   2.677   5.360   0.221  2.2340 -0.2682  0.7523
15419TIP3   OH267671   3.041   6.434  15.839  0.4232  0.6296  0.0171
15419TIP3    H167672   3.033   6.523  15.874 -1.1206  0.9944 -1.1813
15419TIP3    H267673   2.987   6.381  15.898 -1.8166  1.1741 -1.4066
15420TIP3   OH267674   5.384   3.357   4.191  0.7004  0.2573  0.1821
15420TIP3    H167675   5.360   3.265   4.198 -1.9388  0.7456 -1.2966
15420TIP3    H267676   5.350   3.397   4.271  0.7560  0.1624  0.2538
15421TIP3   OH267677   0.581   3.723   3.347  0.2819  0.0280  0.5510
15421TIP3    H167678   0.486   3.725   3.356 -0.1502  1.3119 -2.7152
15421TIP3    H267679   0.597   3.652   3.284  1.3233  0.7083  0.0204
15422TIP3   OH267680   3.594   2.628  12.051 -0.2708  0.9310 -0.3292
15422TIP3    H167681   3.583   2.549  11.997  2.7974  1.7623 -2.4457
15422TIP3    H267682   3.510   2.673  12.044 -1.3668 -1.0525 -0.8678
15423TIP3   OH267683   2.133   5.804  16.213 -0.1706 -0.0988  0.3588
15423TIP3    H167684   2.118   5.807  16.119  1.9852  0.7252  0.0000
15423TIP3    H267685   2.133   5.895  16.241 -0.5242 -0.3223  1.1412
15424TIP3   OH267686   5.523   3.673  15.875 -0.2041 -0.0332 -0.2510
15424TIP3    H167687   5.529   3.600  15.813 -0.5889 -0.6545  0.4333
15424TIP3    H267688   5.481   3.636  15.952  0.4030  0.6922  0.4461
15425TIP3   OH267689   4.492   5.992  17.031  0.3796  0.1071  0.3830
15425TIP3    H167690   4.550   5.916  17.037 -1.0955 -1.0817 -0.0609
15425TIP3    H267691   4.415   5.968  17.081 -0.2226  1.2336  0.0337
15426TIP3   OH267692   4.671   4.813   1.033 -0.4877 -0.3905 -0.1465
15426TIP3    H167693   4.655   4.882   1.097  2.7029 -0.3430  0.7741
15426TIP3    H267694   4.734   4.851   0.972  0.0380 -1.9168 -0.6024
15427TIP3   OH267695   1.613   2.745  17.112 -0.4020  0.5233 -0.5384
15427TIP3    H167696   1.547   2.814  17.107  0.6372  1.7267  1.2407
15427TIP3    H267697   1.668   2.758  17.035 -2.9287 -1.3903 -2.8815
15428TIP3   OH267698   0.652   2.840  11.586  0.0436  0.5278 -0.1004
15428TIP3    H167699   0.685   2.903  11.522  0.1433  1.0580  0.4575
15428TIP3    H267700   0.557   2.845  11.578  0.0610 -0.4274 -1.1636
15429TIP3   OH267701   3.767   6.273   1.293  0.0127  0.0815  0.5187
15429TIP3    H167702   3.698   6.266   1.227  0.3963  2.4269 -0.2358
15429TIP3    H267703   3.849   6.262   1.244  0.2459 -2.0438  1.2992
15430TIP3   OH267704   4.191   2.359   2.200  0.1093 -0.6256  0.6128
15430TIP3    H167705   4.158   2.446   2.179  2.5930  0.2410  0.0468
15430TIP3    H267706   4.158   2.303   2.129  1.9437  0.7406 -1.4353
15431TIP3   OH267707   4.827   4.551   3.473  0.0976  0.3185  0.4332
15431TIP3    H167708   4.912   4.506   3.479  0.0118  0.2007  0.7974
15431TIP3    H267709   4.784   4.532   3.556 -1.0077 -1.0524 -0.4157
15432TIP3   OH267710   2.210   2.777   2.300 -0.1058  0.6784 -0.0494
15432TIP3    H167711   2.268   2.722   2.354 -0.1123  0.7564  0.0377
15432TIP3    H267712   2.270   2.823   2.241 -0.0195  1.2128  0.4451
15433TIP3   OH267713   1.091   1.503  11.708  0.3629  0.6045  0.6005
15433TIP3    H167714   1.092   1.530  11.800 -1.6831 -1.0861  1.2118
15433TIP3    H267715   1.161   1.437  11.702 -1.1958 -1.2449  1.7011
15434TIP3   OH267716   1.438   4.549   2.121  0.7306 -0.0308  0.0709
15434TIP3    H167717   1.396   4.520   2.040  0.2476  1.5123 -0.2777
15434TIP3    H267718   1.514   4.491   2.131  0.3936 -0.7120 -1.0949
15435TIP3   OH267719   4.981   2.192   0.384 -0.1993 -0.1801  0.1489
15435TIP3    H167720   4.890   2.214   0.368 -0.0545  1.0468  0.8508
15435TIP3    H267721   5.015   2.164   0.300 -0.7495  1.1706 -0.5537
15436TIP3   OH267722   2.726   4.962  14.357 -0.7721 -0.0015 -0.1498
15436TIP3    H167723   2.713   5.020  14.432 -1.9687  0.1843 -0.4751
15436TIP3    H267724   2.755   4.880  14.395  0.0220  0.5167  0.3956
15437TIP3   OH267725   6.242   4.401  16.778 -0.5613 -1.2692 -0.0280
15437TIP3    H167726   6.333   4.398  16.808 -0.3412 -2.3368 -0.7329
15437TIP3    H267727   6.224   4.494  16.763  1.1456 -1.2064 -2.0218
15438TIP3   OH267728   5.649   3.721  12.988 -0.1084  0.1629  0.4607
15438TIP3    H167729   5.582   3.709  13.056 -1.8809  1.4175 -0.9774
15438TIP3    H267730   5.726   3.675  13.023 -1.1272  0.1853  3.0071
15439TIP3   OH267731   6.032   5.070  11.410  0.4054 -0.1396  0.6491
15439TIP3    H167732   6.075   5.122  11.479  1.8363 -1.6101  0.9505
15439TIP3    H267733   5.991   5.134  11.353 -0.1538  1.1715  2.4393
15440TIP3   OH267734   0.454   3.384  15.975 -0.0103 -0.2567  0.1050
15440TIP3    H167735   0.445   3.366  16.069  0.1842 -0.9095  0.0070
15440TIP3    H267736   0.365   3.401  15.945  0.0470  1.0837  0.6163
15441TIP3   OH267737   3.485   3.860  15.748 -0.7650  0.0225  1.1910
15441TIP3    H167738   3.526   3.913  15.816  0.2768  1.6588 -0.5953
15441TIP3    H267739   3.404   3.905  15.728 -1.9563 -1.4306  2.4816
15442TIP3   OH267740   2.342   2.517   2.139 -0.5524  0.2681  0.1738
15442TIP3    H167741   2.417   2.525   2.079  1.6305 -0.5909  2.5840
15442TIP3    H267742   2.370   2.565   2.217 -2.6704  0.1062  1.0854
15443TIP3   OH267743   3.353   3.502  11.591  0.3948  0.0123 -0.1615
15443TIP3    H167744   3.301   3.551  11.654  1.3609 -1.5868  1.9934
15443TIP3    H267745   3.310   3.417  11.584  1.5526 -0.6184  0.1060
15444TIP3   OH267746   6.493   2.096  16.845 -0.5488 -0.8450 -0.3991
15444TIP3    H167747   6.548   2.018  16.848  1.4295  0.4384 -1.6665
15444TIP3    H267748   6.466   2.104  16.754 -2.1228 -0.9050  0.0184
15445TIP3   OH267749   3.069   2.343  15.812  0.6305  0.3338  0.4017
15445TIP3    H167750   3.159   2.314  15.792  0.5928  0.9336 -0.7575
15445TIP3    H267751   3.058   2.423  15.760 -1.0614 -0.5057 -0.6297
15446TIP3   OH267752   2.494   2.091   2.416  0.1564 -0.4274 -0.3063
15446TIP3    H167753   2.579   2.096   2.373  0.5636 -1.3090  0.3610
15446TIP3    H267754   2.436   2.144   2.361  0.8366 -0.8533 -1.4736
15447TIP3   OH267755   5.837   2.406  11.117  0.1426  0.3853  0.5918
15447TIP3    H167756   5.756   2.457  11.119  1.2616  2.3200 -0.8722
15447TIP3    H267757   5.812   2.324  11.074 -1.2205  0.5253  1.0524
15448TIP3   OH267758   2.312   2.021  16.080  0.1142  0.0925  0.1451
15448TIP3    H167759   2.386   2.036  16.140 -0.5194  0.4443  0.8492
15448TIP3    H267760   2.329   2.079  16.006  0.1826  0.6998  0.6321
15449TIP3   OH267761   4.159   3.827  15.626 -0.2931 -0.6810 -0.2638
15449TIP3    H167762   4.130   3.828  15.717 -1.0277 -0.2130 -0.4924
15449TIP3    H267763   4.245   3.785  15.628 -1.2860 -2.8243  0.3769
15450TIP3   OH267764   3.718   4.189   2.345  0.2763  0.0094 -0.4734
15450TIP3    H167765   3.671   4.253   2.292 -0.7892 -1.0353 -0.8285
15450TIP3    H267766   3.722   4.111   2.290 -1.5920 -1.3875  1.2574
15451TIP3   OH267767   4.772   1.238   3.580  0.6171  0.4811 -0.0485
15451TIP3    H167768   4.722   1.196   3.510  2.4125  0.0676 -1.1539
15451TIP3    H267769   4.739   1.327   3.584 -0.1847  0.2281 -0.7481
15452TIP3   OH267770   5.533   0.345  14.019  0.3609 -0.2558 -0.2745
15452TIP3    H167771   5.598   0.277  14.035  1.3336  0.2509 -1.8161
15452TIP3    H267772   5.571   0.424  14.057 -0.6915 -0.4922  1.3648
15453TIP3   OH267773   2.505   6.584   2.034  0.3694  0.2157  0.2899
15453TIP3    H167774   2.583   6.542   2.071  1.7511  0.5429 -2.0469
15453TIP3    H267775   2.538   6.633   1.959 -2.1047  0.3884 -0.7736
15454TIP3   OH267776   0.314   1.985  14.017  0.4044 -0.5125  0.5974
15454TIP3    H167777   0.223   1.968  13.993  0.5725  0.2326 -0.6179
15454TIP3    H267778   0.324   2.080  14.009  0.4525 -0.1250  3.8516
15455TIP3   OH267779   4.332   6.023   2.361 -0.1370 -0.1425  0.5720
15455TIP3    H167780   4.316   5.972   2.282 -0.4581  1.2437 -0.3074
15455TIP3    H267781   4.267   5.993   2.424 -0.2048 -0.9167  0.1396
15456TIP3   OH267782   3.909   0.379   5.618  0.0343 -0.1583  0.1655
15456TIP3    H167783   3.909   0.368   5.713 -1.7391 -2.6289 -0.0390
15456TIP3    H267784   3.918   0.291   5.583  0.8338  0.7109 -1.9943
15457TIP3   OH267785   5.246   6.114  11.851 -0.8189 -0.5827 -0.0627
15457TIP3    H167786   5.336   6.103  11.882 -0.8523  0.9135  0.6268
15457TIP3    H267787   5.254   6.170  11.774 -0.9210 -2.7846 -1.7866
15458TIP3   OH267788   4.372   5.571   1.756 -0.1399  0.8754 -0.0444
15458TIP3    H167789   4.450   5.569   1.701  0.9363  4.2248  1.1209
15458TIP3    H267790   4.335   5.658   1.742 -1.2495  0.9202  2.6030
15459TIP3   OH267791   0.871   3.893  14.828 -0.0016  0.6104  0.1805
15459TIP3    H167792   0.920   3.966  14.866 -0.0382 -0.0204  1.5212
15459TIP3    H267793   0.785   3.898  14.869 -0.6936  1.0309 -1.2907
15460TIP3   OH267794   0.235   6.186  11.562  0.3134 -0.5028  0.7745
15460TIP3    H167795   0.251   6.114  11.502 -1.1437 -1.5696  1.6021
15460TIP3    H267796   0.160   6.232  11.525  2.0497  1.5047 -0.4883
15461TIP3   OH267797   3.622   5.795  12.516 -0.8796  0.4467 -0.5473
15461TIP3    H167798   3.590   5.871  12.566  1.4630  1.6186 -0.6871
15461TIP3    H267799   3.663   5.833  12.439  1.8491 -0.7564  0.1781
15462TIP3   OH267800   1.446   3.693  16.757  0.3668 -0.0874 -0.3290
15462TIP3    H167801   1.478   3.606  16.735  0.1190 -0.3590  0.3606
15462TIP3    H267802   1.504   3.723  16.827 -0.1593 -0.1034  0.1174
15463TIP3   OH267803   2.817   2.344  11.056 -0.3605 -0.4537 -0.2696
15463TIP3    H167804   2.730   2.314  11.084 -1.9004  3.6360  0.0648
15463TIP3    H267805   2.876   2.315  11.126 -2.2853  0.4201  1.8522
15464TIP3   OH267806   4.022   0.700  10.868  0.6625  0.1899 -0.2658
15464TIP3    H167807   3.999   0.687  10.776  1.4456 -2.2223 -0.1713
15464TIP3    H267808   4.002   0.617  10.911 -1.7844  1.9048  2.2908
15465TIP3   OH267809   1.721   3.902   5.132  0.0868  0.1290 -0.1140
15465TIP3    H167810   1.654   3.837   5.155 -0.3740  0.1947 -1.1875
15465TIP3    H267811   1.725   3.960   5.208 -0.2466 -0.5550  0.4348
15466TIP3   OH267812   0.715   6.102  13.376  0.3101 -0.1229 -0.5857
15466TIP3    H167813   0.771   6.172  13.411  1.5599 -1.0074 -0.7452
15466TIP3    H267814   0.743   6.023  13.423 -0.0552 -0.7842 -1.4495
15467TIP3   OH267815   5.739   2.275   1.769  0.2542  0.0677  0.0546
15467TIP3    H167816   5.764   2.183   1.766  0.3352  0.0917  0.0116
15467TIP3    H267817   5.646   2.274   1.793  0.4144 -0.0002  0.6812
15468TIP3   OH267818   0.366   2.283   0.910  0.2073  0.1905  0.3470
15468TIP3    H167819   0.458   2.288   0.887  0.0779  1.8016  0.0254
15468TIP3    H267820   0.328   2.221   0.848  1.2697 -1.4420  1.2686
15469TIP3   OH267821   6.725   0.310   2.427  0.0821  0.1062 -0.0763
15469TIP3    H167822   6.810   0.353   2.427  0.2842 -0.2063 -1.8435
15469TIP3    H267823   6.742   0.223   2.464  0.4368  0.2033 -0.0113
15470TIP3   OH267824   1.937   5.919  13.395 -0.6609 -0.3700 -0.5932
15470TIP3    H167825   1.974   5.877  13.473 -2.2728 -0.5610  0.1111
15470TIP3    H267826   2.003   5.983  13.369  0.0607 -0.5318  0.7356
15471TIP3   OH267827   2.926   3.633   3.907  0.4446  0.4024  0.5163
15471TIP3    H167828   2.859   3.691   3.870 -0.0735 -1.3993 -1.5924
15471TIP3    H267829   2.880   3.550   3.921  2.2245 -0.9736 -1.2323
15472TIP3   OH267830   2.294   1.738  16.020 -0.3403 -0.2555 -0.4309
15472TIP3    H167831   2.257   1.826  16.027  0.3646  0.1372 -1.4703
15472TIP3    H267832   2.272   1.710  15.931  0.0362 -0.8608 -0.3386
15473TIP3   OH267833   0.105   5.962   4.233 -0.0326 -0.0697 -0.0612
15473TIP3    H167834   0.057   6.028   4.183  0.6140 -0.0186 -0.6277
15473TIP3    H267835   0.049   5.884   4.230  0.5638 -0.4784 -1.9973
15474TIP3   OH267836   2.831   2.727  15.357  0.4896  0.2063 -0.1945
15474TIP3    H167837   2.819   2.822  15.358 -0.3370  0.1362  2.2953
15474TIP3    H267838   2.743   2.692  15.365  0.4370 -0.9475 -3.9494
15475TIP3   OH267839   1.547   0.150  13.351 -0.3841  0.2096 -0.1905
15475TIP3    H167840   1.635   0.137  13.314 -0.2810 -0.8048  0.3958
15475TIP3    H267841   1.488   0.112  13.285 -0.1350 -2.7193  1.1231
15476TIP3   OH267842   5.817   5.819  15.852 -0.1784 -0.0129 -0.5856
15476TIP3    H167843   5.890   5.759  15.866 -0.8350 -0.9364 -1.0075
15476TIP3    H267844   5.855   5.893  15.805  1.1323  1.0266  1.8860
15477TIP3   OH267845   0.759   1.717  13.872  0.3980  0.3843 -0.2393
15477TIP3    H167846   0.678   1.676  13.843  1.0818 -1.5485  0.4277
15477TIP3    H267847   0.731   1.785  13.933 -0.7181 -0.5793  0.3640
15478TIP3   OH267848   4.249   3.189  14.178  0.8675 -0.6609 -0.3703
15478TIP3    H167849   4.195   3.172  14.101  0.3702  1.6552 -0.6250
15478TIP3    H267850   4.186   3.202  14.249  1.2588 -1.3691  0.1097
15479TIP3   OH267851   1.361   6.428   5.339  0.0590 -0.7884 -0.1685
15479TIP3    H167852   1.350   6.352   5.283 -2.1894 -1.4007  0.9801
15479TIP3    H267853   1.284   6.482   5.322  0.7792  0.4104  0.2612
15480TIP3   OH267854   5.198   0.849  12.260  0.0414 -0.0790 -0.0557
15480TIP3    H167855   5.194   0.820  12.351 -0.4319  0.4817  0.1108
15480TIP3    H267856   5.287   0.828  12.232 -0.3275 -1.8414 -0.0186
15481TIP3   OH267857   3.463   0.244   0.168  0.1577 -0.7117 -0.0883
15481TIP3    H167858   3.525   0.279   0.104 -0.2577  0.4081  0.0896
15481TIP3    H267859   3.483   0.151   0.173  0.4343 -0.7558 -1.5796
15482TIP3   OH267860   2.915   0.543   3.934 -0.3763 -0.0917  0.5910
15482TIP3    H167861   2.991   0.517   3.882 -1.8909  0.1047 -1.9342
15482TIP3    H267862   2.952   0.584   4.012  2.0963 -0.2205 -0.4058
15483TIP3   OH267863   4.120   1.737   2.595  0.3192  0.0723  0.1724
15483TIP3    H167864   4.151   1.701   2.678  1.4342 -0.3722 -0.4294
15483TIP3    H267865   4.096   1.661   2.543  1.3134  0.2433 -0.5640
15484TIP3   OH267866   6.036   4.426   5.462 -0.1140  0.4429 -0.3421
15484TIP3    H167867   6.117   4.376   5.464 -1.3409 -1.6653  0.9490
15484TIP3    H267868   6.040   4.480   5.541  0.1081  0.4603 -0.3648
15485TIP3   OH267869   6.603   3.549  11.474  0.2284 -0.0254  0.1345
15485TIP3    H167870   6.567   3.460  11.474 -0.2676  0.1714  0.0514
15485TIP3    H267871   6.583   3.583  11.561  0.9549 -0.2033  0.3770
15486TIP3   OH267872   4.799   5.600   4.888 -0.4520 -0.0783 -0.4159
15486TIP3    H167873   4.816   5.680   4.838 -0.3929  1.1612  1.4406
15486TIP3    H267874   4.704   5.593   4.890 -0.5833  1.3333  1.3205
15487TIP3   OH267875   2.181   1.864   5.305 -0.2574 -0.5279  0.1790
15487TIP3    H167876   2.219   1.952   5.307  0.0498 -0.5622  4.0320
15487TIP3    H267877   2.102   1.871   5.359 -1.5166 -2.1780 -1.3299
15488TIP3   OH267878   1.663   4.348  12.532  0.1308  0.9129 -1.0570
15488TIP3    H167879   1.584   4.345  12.587 -0.1520 -0.6753 -1.4855
15488TIP3    H267880   1.647   4.282  12.464  1.0843  1.8251 -2.2130
15489TIP3   OH267881   3.660   3.811  11.800  0.6352  0.1216 -0.2091
15489TIP3    H167882   3.648   3.903  11.776 -0.0396 -0.3616 -1.9209
15489TIP3    H267883   3.612   3.801  11.882 -1.9656  0.6655 -1.5248
15490TIP3   OH267884   0.297   5.528   6.099  0.2546  0.0898 -0.3597
15490TIP3    H167885   0.263   5.611   6.131 -2.5520 -1.2598  0.5181
15490TIP3    H267886   0.276   5.528   6.005 -0.2650  0.1435 -0.2460
15491TIP3   OH267887   1.567   3.711  17.156  0.8643  0.8990 -0.3378
15491TIP3    H167888   1.472   3.725  17.154  0.5773 -0.4293  1.6960
15491TIP3    H267889   1.603   3.791  17.118 -1.0189  2.0066  0.0714
15492TIP3   OH267890   1.413   3.903   4.714  0.2306  0.0133  0.3617
15492TIP3    H167891   1.412   3.819   4.760 -1.4794  0.4626  1.2314
15492TIP3    H267892   1.355   3.959   4.765 -0.5604  1.0001 -1.5177
15493TIP3   OH267893   6.459   6.132   5.931  0.0732 -0.9003 -0.2592
15493TIP3    H167894   6.434   6.066   5.996 -0.0551  0.2575  0.9008
15493TIP3    H267895   6.378   6.150   5.883 -1.1017  1.6447  2.4077
15494TIP3   OH267896   6.381   0.375  16.789 -0.2036  0.1367 -0.9916
15494TIP3    H167897   6.393   0.321  16.867 -0.5337  0.5340 -0.6580
15494TIP3    H267898   6.294   0.351  16.757 -0.0682 -0.0264 -1.2383
15495TIP3   OH267899   6.625   1.071  10.650 -0.6499 -0.0338  0.5224
15495TIP3    H167900   6.609   0.984  10.615 -0.9169  0.1072  0.2863
15495TIP3    H267901   6.677   1.057  10.729 -0.0020 -0.3516  0.0389
15496TIP3   OH267902   5.536   2.998   1.389  0.1622 -0.4519 -0.0689
15496TIP3    H167903   5.627   2.969   1.382  1.5504  3.2640  0.1658
15496TIP3    H267904   5.524   3.019   1.482 -0.3639  0.5711 -0.3417
15497TIP3   OH267905   0.052   5.471  13.153  0.0708 -0.1298 -0.3306
15497TIP3    H167906   0.047   5.471  13.058 -0.9489  3.0561 -0.4125
15497TIP3    H267907   0.114   5.542  13.174  0.6622 -1.0810  1.3878
15498TIP3   OH267908   0.738   6.691   2.700  0.1716  0.6381  0.5170
15498TIP3    H167909   0.716   6.753   2.769  1.5697  0.0277  1.5625
15498TIP3    H267910   0.784   6.743   2.634  0.3917  0.9104  0.8835
15499TIP3   OH267911   1.079   5.684  11.339  0.4339 -0.5514  0.1742
15499TIP3    H167912   1.028   5.612  11.303 -1.5284  0.6380  0.3997
15499TIP3    H267913   1.023   5.721  11.407  1.8080  0.5618  0.7464
15500TIP3   OH267914   5.388   5.357   5.544 -0.1197 -0.9049  0.3066
15500TIP3    H167915   5.348   5.400   5.468  0.4932 -1.7963 -0.5537
15500TIP3    H267916   5.403   5.427   5.607 -1.3383 -0.2655 -0.0834
15501TIP3   OH267917   4.414   2.813  10.992  0.6930 -0.2349 -0.1041
15501TIP3    H167918   4.376   2.813  10.905  2.0364 -2.0067 -0.7573
15501TIP3    H267919   4.464   2.895  10.997 -2.3585  1.7395  0.4933
15502TIP3   OH267920   3.478   3.652   5.539  0.1131  0.0576 -0.2361
15502TIP3    H167921   3.469   3.746   5.524  1.9569  0.1680 -0.8783
15502TIP3    H267922   3.513   3.645   5.627 -2.2816 -0.1947  0.7779
15503TIP3   OH267923   2.882   0.900  11.410  0.0829  0.2067 -0.2745
15503TIP3    H167924   2.967   0.910  11.367  0.8242 -0.8565  0.8981
15503TIP3    H267925   2.888   0.818  11.458 -2.0336 -0.4932 -1.0776
15504TIP3   OH267926   6.431   2.798  15.497 -0.1911  0.3329 -0.2978
15504TIP3    H167927   6.347   2.826  15.460  0.4002  1.6971 -0.6586
15504TIP3    H267928   6.484   2.774  15.421 -0.6558 -1.8310 -0.0090
15505TIP3   OH267929   5.889   1.011  11.382 -0.3451  0.3239 -0.1002
15505TIP3    H167930   5.978   1.044  11.397 -0.3457  0.4914 -0.4623
15505TIP3    H267931   5.876   1.019  11.288  0.5864 -2.9789 -0.6411
15506TIP3   OH267932   6.235   2.673   6.366 -0.3045 -0.4628 -0.0818
15506TIP3    H167933   6.327   2.677   6.393 -0.2661  1.6856 -0.3630
15506TIP3    H267934   6.186   2.691   6.446 -0.5242 -1.9632  0.1443
15507TIP3   OH267935   3.438   1.868   4.225 -0.0748 -0.6699  0.0661
15507TIP3    H167936   3.452   1.843   4.134 -0.0992 -2.0079  0.4149
15507TIP3    H267937   3.448   1.964   4.225 -1.6117 -0.4413 -1.6141
15508TIP3   OH267938   6.695   6.487  11.541 -0.2820 -0.6196 -0.2761
15508TIP3    H167939   6.624   6.477  11.604 -1.2627 -0.2997 -1.2808
15508TIP3    H267940   6.710   6.581  11.536 -0.8645 -0.5560 -1.1753
15509TIP3   OH267941   3.619   2.915   5.055 -0.1261 -0.2032  0.0692
15509TIP3    H167942   3.546   2.968   5.089  1.1186  1.5337  0.1803
15509TIP3    H267943   3.605   2.913   4.961 -0.4822 -0.1470  0.1194
15510TIP3   OH267944   2.353   2.500  11.174  0.1300  0.0780  0.4230
15510TIP3    H167945   2.338   2.406  11.172  0.9427 -0.0463 -0.2443
15510TIP3    H267946   2.332   2.529  11.085  1.4069  0.2687  0.1616
15511TIP3   OH267947   4.251   4.887   5.611 -0.5996 -0.0140 -0.4582
15511TIP3    H167948   4.318   4.844   5.665 -0.2764  0.7747 -0.2163
15511TIP3    H267949   4.189   4.817   5.591  0.7110 -0.9686 -1.3782
15512TIP3   OH267950   1.080   5.165   4.704  0.0292 -0.2448  0.8665
15512TIP3    H167951   1.041   5.080   4.682  1.9659 -0.5879 -1.7426
15512TIP3    H267952   1.151   5.143   4.765  0.8425 -0.6021 -0.1860
15513TIP3   OH267953   3.570   4.230   2.589 -0.0894  0.5726 -0.0680
15513TIP3    H167954   3.587   4.171   2.662  0.0460 -2.1850 -2.1592
15513TIP3    H267955   3.629   4.201   2.520 -0.0915  3.1518 -1.3010
15514TIP3   OH267956   6.436   0.640  11.728 -0.2201  0.6604  0.3232
15514TIP3    H167957   6.370   0.669  11.665 -1.2864  1.5368  1.7620
15514TIP3    H267958   6.520   0.668  11.690 -0.8130  0.9382 -0.8126
15515TIP3   OH267959   3.556   2.819  13.802 -0.0125  0.1025  0.0488
15515TIP3    H167960   3.514   2.752  13.748  0.3424  0.9796 -1.3614
15515TIP3    H267961   3.559   2.781  13.890  0.2470 -1.7482 -0.7286
15516TIP3   OH267962   4.992   5.880  17.317  0.2949  0.2232  0.4563
15516TIP3    H167963   5.053   5.810  17.293  0.1711  0.8429 -1.9042
15516TIP3    H267964   4.912   5.834  17.343  0.8706 -0.5359  0.9274
15517TIP3   OH267965   6.649   0.863   0.907 -0.1412 -0.0052  0.2639
15517TIP3    H167966   6.588   0.803   0.862 -0.8708  0.9396 -0.0323
15517TIP3    H267967   6.702   0.805   0.963  0.0961 -1.0987 -1.0186
15518TIP3   OH267968   4.965   0.995  14.402 -0.7454  0.1115  0.3731
15518TIP3    H167969   5.061   0.988  14.409 -0.8905 -1.2891  1.5775
15518TIP3    H267970   4.946   0.968  14.312 -0.0787 -0.9109  0.5163
15519TIP3   OH267971   5.000   5.963   3.436 -0.1238 -0.4234 -0.2130
15519TIP3    H167972   5.021   5.936   3.347  0.5901  1.9064 -0.8470
15519TIP3    H267973   4.952   6.046   3.425  0.6461  0.3138  1.5482
15520TIP3   OH267974   6.648   4.637   3.070 -0.4462 -0.1965 -0.2632
15520TIP3    H167975   6.711   4.679   3.129  1.4340 -1.0099 -1.5761
15520TIP3    H267976   6.612   4.565   3.121 -0.7117  0.5849  0.6787
15521TIP3   OH267977   0.321   0.077   5.803 -0.1629  0.0784  0.6517
15521TIP3    H167978   0.324   0.053   5.896 -0.6700  0.3089  0.7264
15521TIP3    H267979   0.331  -0.007   5.758  0.4778  0.0068  0.9069
15522TIP3   OH267980   1.784   1.848   5.115  0.1472  0.0792 -0.1878
15522TIP3    H167981   1.830   1.806   5.042  1.0995 -0.4260  0.6822
15522TIP3    H267982   1.828   1.932   5.126  0.1572  0.0553 -0.0440
15523TIP3   OH267983   4.535   1.640  13.249  0.2531  0.2978 -0.2203
15523TIP3    H167984   4.461   1.601  13.296 -0.1856  0.5608 -0.6809
15523TIP3    H267985   4.551   1.580  13.176  0.7504  0.0362  0.1033
15524TIP3   OH267986   4.273   5.889  12.479  0.0521 -0.3398  0.3550
15524TIP3    H167987   4.327   5.889  12.559  1.6281 -0.3760 -0.6622
15524TIP3    H267988   4.317   5.828  12.420 -0.7425  0.1393 -0.7682
15525TIP3   OH267989   3.141   5.068  11.569 -0.1390 -0.3838 -0.2585
15525TIP3    H167990   3.149   5.141  11.630 -0.8513 -0.1019 -0.4904
15525TIP3    H267991   3.100   4.998  11.620  1.9227 -1.1846  0.4032
15526TIP3   OH267992   0.027   1.983  15.943 -0.2149  0.0392 -0.1182
15526TIP3    H167993   0.113   1.979  15.984 -0.1686 -0.0150 -0.2211
15526TIP3    H267994   0.045   1.997  15.850 -0.2583 -1.6040 -0.4158
15527TIP3   OH267995   0.097   0.432   4.090 -0.2696 -0.3189  0.6346
15527TIP3    H167996   0.178   0.417   4.139 -1.1534 -1.6215  1.7827
15527TIP3    H267997   0.067   0.345   4.066 -0.4332  0.2484 -1.3508
15528TIP3   OH267998   1.693   0.711  12.332  0.3473  0.2770 -0.2849
15528TIP3    H167999   1.746   0.777  12.289  2.3242 -0.5210  0.7939
15528TIP3    H268000   1.710   0.630  12.284  0.8169 -0.1567  0.5709
15529TIP3   OH268001   3.019   2.277   4.046  0.0976  0.2147  0.6426
15529TIP3    H168002   3.040   2.285   4.139 -1.9570  2.2964  1.0206
15529TIP3    H268003   2.923   2.274   4.043  0.1254 -0.4652 -1.3879
15530TIP3   OH268004   5.578   4.362   3.682 -0.2611  0.0827 -0.4458
15530TIP3    H168005   5.526   4.338   3.605  0.7812 -2.3983 -0.4874
15530TIP3    H268006   5.513   4.378   3.750 -1.1751 -1.5248 -0.8680
15531TIP3   OH268007   5.720   2.315  13.164 -0.0458  0.9345  0.1932
15531TIP3    H168008   5.761   2.233  13.194  0.2399  0.7106 -0.7967
15531TIP3    H268009   5.713   2.305  13.069 -3.2445  0.5724  0.3544
15532TIP3   OH268010   1.422   0.334  11.968 -0.2183  0.6057 -0.1583
15532TIP3    H168011   1.331   0.351  11.991 -0.9759 -0.7870 -1.9012
15532TIP3    H268012   1.442   0.399  11.900 -0.4407 -0.0719 -0.8882
15533TIP3   OH268013   4.751   5.721  17.405  0.0187  0.1491 -0.2372
15533TIP3    H168014   4.801   5.724  17.486 -1.0147  1.9413  0.3986
15533TIP3    H268015   4.738   5.628  17.387  2.6613 -0.3491  0.0958
15534TIP3   OH268016   4.493   5.631   0.800 -0.0563  0.3314  0.4590
15534TIP3    H168017   4.493   5.592   0.713 -0.1306 -0.2574  0.7201
15534TIP3    H268018   4.546   5.572   0.853 -0.7525  0.1961  1.0225
15535TIP3   OH268019   1.874   1.991   5.370 -0.0884 -0.2712  0.1707
15535TIP3    H168020   1.895   2.045   5.294 -1.8941 -0.4020 -0.4907
15535TIP3    H268021   1.955   1.987   5.420  0.6381  1.3855 -0.7760
15536TIP3   OH268022   5.662   5.107   4.222 -0.4533 -0.3819  0.5439
15536TIP3    H168023   5.581   5.144   4.257 -1.3638 -0.0921 -1.7104
15536TIP3    H268024   5.633   5.042   4.158  1.1370 -1.8610  1.2416
15537TIP3   OH268025   2.502   4.964   2.075  0.2326  0.4752 -0.1443
15537TIP3    H168026   2.466   4.877   2.091  0.9139  0.1534 -0.2993
15537TIP3    H268027   2.472   4.987   1.988 -0.8074  0.8429  0.3023
15538TIP3   OH268028   6.197   0.331  12.150  0.1118  0.0587 -0.1074
15538TIP3    H168029   6.220   0.385  12.075 -0.9592  2.3866  1.1349
15538TIP3    H268030   6.105   0.307  12.135  0.0481  0.1043  0.2088
15539TIP3   OH268031   1.168   0.820  10.344 -0.7018  0.1257  0.4709
15539TIP3    H168032   1.195   0.910  10.361 -1.3321  0.5766 -0.7529
15539TIP3    H268033   1.100   0.802  10.410 -0.5416  0.5325  0.7443
15540TIP3   OH268034   6.332   0.403  16.076  0.2692  0.3376 -0.3621
15540TIP3    H168035   6.422   0.410  16.107  0.2234  1.1927 -0.3895
15540TIP3    H268036   6.288   0.478  16.115 -0.3359  0.1490 -0.6754
15541TIP3   OH268037   2.664   2.642  11.160  0.2080 -0.1212  0.3931
15541TIP3    H168038   2.590   2.675  11.211 -0.2787 -1.2112  0.4179
15541TIP3    H268039   2.741   2.676  11.205 -0.2548  1.3814  0.1285
15542TIP3   OH268040   3.888   5.894  15.669 -0.4055 -0.7421  0.5196
15542TIP3    H168041   3.816   5.831  15.673 -0.0369 -1.0915  2.0044
15542TIP3    H268042   3.845   5.979  15.663 -0.9211 -1.0130  0.2878
15543TIP3   OH268043   5.842   1.272  15.389 -0.6075 -0.3280  0.0300
15543TIP3    H168044   5.822   1.358  15.427  0.6435 -0.9489  2.2996
15543TIP3    H268045   5.798   1.210  15.448  0.5460 -1.3183 -0.1369
15544TIP3   OH268046   0.644   3.790   1.588 -0.1176  0.3249 -0.1449
15544TIP3    H168047   0.569   3.839   1.553 -0.8643 -0.5171  0.2032
15544TIP3    H268048   0.670   3.732   1.516 -1.9378 -1.7273  0.7084
15545TIP3   OH268049   3.320   5.779   0.072 -0.6203  0.0657 -0.1666
15545TIP3    H168050   3.258   5.781  -0.001  0.7697  0.8780 -1.3825
15545TIP3    H268051   3.369   5.697   0.060 -2.1050 -1.1691  1.4493
15546TIP3   OH268052   1.513   3.464   1.437  0.3631  0.4003 -0.6653
15546TIP3    H168053   1.556   3.503   1.513 -0.3950  1.4176 -0.7336
15546TIP3    H268054   1.424   3.447   1.466  0.0621  0.8125 -1.3268
15547TIP3   OH268055   2.748   6.442  14.071  0.3727 -0.0184  0.0660
15547TIP3    H168056   2.830   6.448  14.022 -0.2468  2.4143 -0.8101
15547TIP3    H268057   2.762   6.368  14.131  2.0311 -1.6357 -2.1132
15548TIP3   OH268058   1.640   1.648  12.363 -0.5204  0.3338  0.1400
15548TIP3    H168059   1.566   1.673  12.307 -0.1362 -1.4339 -1.2515
15548TIP3    H268060   1.634   1.553  12.368  2.0897  0.0540 -0.6638
15549TIP3   OH268061   4.547   4.515   6.193  0.4386 -0.2840  0.3577
15549TIP3    H168062   4.641   4.509   6.207  1.0570 -2.8500 -3.3684
15549TIP3    H268063   4.538   4.546   6.103 -2.3200 -0.0948  0.6012
15550TIP3   OH268064   1.439   5.184  16.964  0.0652  0.0748  0.0637
15550TIP3    H168065   1.531   5.190  16.939 -0.6901  0.2760 -3.0138
15550TIP3    H268066   1.434   5.102  17.014  1.7004 -0.6168 -0.8068
15551TIP3   OH268067   4.745   4.494  11.616 -0.0788 -0.0687 -0.0123
15551TIP3    H168068   4.728   4.403  11.638 -0.3013 -0.0882 -0.2610
15551TIP3    H268069   4.794   4.528  11.691 -1.5693  0.1011  0.9231
15552TIP3   OH268070   6.385   3.293   4.339 -0.4811  0.0260  0.0418
15552TIP3    H168071   6.375   3.202   4.367  0.9367  0.7397  3.3347
15552TIP3    H268072   6.300   3.333   4.357 -0.9425 -0.4845 -0.9182
15553TIP3   OH268073   3.391   1.504   2.278  0.5144 -0.3744  0.3567
15553TIP3    H168074   3.480   1.495   2.312  0.5425  1.8174  0.9913
15553TIP3    H268075   3.400   1.493   2.183  1.5724  0.3876  0.3509
15554TIP3   OH268076   6.723   2.721  13.823  0.6513  0.4331  0.0075
15554TIP3    H168077   6.658   2.659  13.855  0.0548  1.0209 -0.0341
15554TIP3    H268078   6.678   2.806  13.825  1.0612  0.6919 -1.0477
15555TIP3   OH268079   3.373   0.805  13.294  0.1360  0.3471 -0.0035
15555TIP3    H168080   3.351   0.864  13.366 -0.0095  0.3282 -0.0321
15555TIP3    H268081   3.362   0.717  13.329  0.5932  0.3337  0.1139
15556TIP3   OH268082   3.443   5.524   0.129  0.0606 -0.0308  0.5364
15556TIP3    H168083   3.396   5.487   0.203 -1.0844  2.8936  1.4074
15556TIP3    H268084   3.502   5.588   0.167  0.6481  0.3740 -0.9695
15557TIP3   OH268085   5.533   2.792   2.789 -0.3372 -0.2280  0.5680
15557TIP3    H168086   5.526   2.853   2.715 -1.1070  1.1714  1.7592
15557TIP3    H268087   5.569   2.712   2.750  0.8491  1.0089 -1.0132
15558TIP3   OH268088   5.666   0.621   3.963 -0.0861 -0.0104  0.0329
15558TIP3    H168089   5.597   0.665   4.012 -0.5812  1.1432 -1.6001
15558TIP3    H268090   5.707   0.690   3.912  1.6438 -0.8517  0.2118
15559TIP3   OH268091   1.980   5.269   5.178 -0.2969 -0.2827 -0.0284
15559TIP3    H168092   2.029   5.246   5.257 -1.4721 -1.3864  0.4143
15559TIP3    H268093   1.905   5.210   5.179 -0.0581 -0.7003 -2.2604
15560TIP3   OH268094   2.093   1.356  15.803  0.5449  0.4237 -0.9333
15560TIP3    H168095   2.020   1.342  15.864 -0.4806  3.1717 -1.3999
15560TIP3    H268096   2.085   1.285  15.739 -1.9183  0.8065 -1.1272
15561TIP3   OH268097   2.299   6.175   1.132 -0.4470  0.3204  0.3924
15561TIP3    H168098   2.336   6.167   1.219  0.4354  1.8513  0.1973
15561TIP3    H268099   2.303   6.087   1.095 -1.3839 -0.4761  2.0729
15562TIP3   OH268100   4.611   0.667  14.716 -0.1730 -0.3677 -0.2186
15562TIP3    H168101   4.609   0.693  14.624  0.1630  0.1071 -0.0966
15562TIP3    H268102   4.671   0.592  14.719 -0.4769 -0.6189 -0.4447
15563TIP3   OH268103   5.125   5.653  12.835 -0.4684 -0.4901  0.0781
15563TIP3    H168104   5.069   5.714  12.787  0.4819  0.6065  0.3080
15563TIP3    H268105   5.065   5.589  12.872 -1.3522 -0.5993 -1.4574
15564TIP3   OH268106   5.494   4.602  13.218  0.6326 -0.7195 -0.2991
15564TIP3    H168107   5.420   4.598  13.158 -0.1938 -0.1902  0.6631
15564TIP3    H268108   5.571   4.587  13.162 -0.1627 -0.9635 -1.3567
15565TIP3   OH268109   1.471   6.318  16.728  0.2324 -0.3443  0.2837
15565TIP3    H168110   1.433   6.321  16.641 -0.5455  0.0698  0.6199
15565TIP3    H268111   1.423   6.386  16.777  0.9473 -0.2759  0.9097
15566TIP3   OH268112   5.986   1.786  16.980  0.3856  0.0087 -0.4378
15566TIP3    H168113   5.961   1.865  17.028  0.3115  0.1819 -0.7527
15566TIP3    H268114   6.050   1.743  17.036  0.3610  0.2472 -0.2225
15567TIP3   OH268115   2.467   5.272   5.455  0.2545 -0.1109  0.3262
15567TIP3    H168116   2.480   5.178   5.467 -0.4053 -0.0507  1.6430
15567TIP3    H268117   2.383   5.290   5.496 -0.3658  0.8117 -1.2541
15568TIP3   OH268118   0.916   2.602   3.472 -1.2358  0.2224 -0.0180
15568TIP3    H168119   0.863   2.584   3.393 -0.2157 -0.6038 -0.5350
15568TIP3    H268120   1.004   2.574   3.448 -0.6863  0.9990  1.0571
15569TIP3   OH268121   3.818   1.689  11.575  0.3421 -0.1010 -0.3249
15569TIP3    H168122   3.902   1.645  11.562  1.0163  1.5524 -2.0664
15569TIP3    H268123   3.830   1.737  11.657  1.4846  0.8317 -0.9958
15570TIP3   OH268124   5.565   3.002  11.158 -0.2025 -0.3110 -0.2095
15570TIP3    H168125   5.541   2.939  11.225  0.4051  1.1696  1.4620
15570TIP3    H268126   5.507   2.981  11.084 -1.0206 -1.8632  0.8169
15571TIP3   OH268127   4.816   1.763   5.625  0.3970  0.2048  0.7712
15571TIP3    H168128   4.899   1.722   5.648 -0.1785 -0.9413  0.8565
15571TIP3    H268129   4.762   1.754   5.703 -0.4728 -0.8456  0.0854
15572TIP3   OH268130   5.802   3.249  14.629 -0.2229  0.5733  0.4908
15572TIP3    H168131   5.810   3.170  14.575 -0.3588  1.3321 -0.6884
15572TIP3    H268132   5.888   3.290  14.624 -0.4710  1.0632  0.1757
15573TIP3   OH268133   6.129   0.719  11.057 -0.1773  0.0499  0.2582
15573TIP3    H168134   6.203   0.686  11.005 -0.4244 -0.4354  0.2087
15573TIP3    H268135   6.066   0.749  10.992  1.0809  3.0905  0.2704
15574TIP3   OH268136   6.397   0.534  16.429 -0.2335 -0.0301  0.8505
15574TIP3    H168137   6.450   0.491  16.362 -1.6524  0.6043 -0.7547
15574TIP3    H268138   6.310   0.496  16.419 -1.3934  2.5902 -0.2004
15575TIP3   OH268139   0.902   5.282  14.564  0.6260  0.8803  0.1806
15575TIP3    H168140   0.932   5.259  14.476  1.7656 -0.8621  0.9636
15575TIP3    H268141   0.818   5.326  14.550  1.4034  1.8475 -1.8355
15576TIP3   OH268142   3.470   6.006  11.422  0.7530 -0.5537 -0.0292
15576TIP3    H168143   3.380   6.040  11.419  0.6399 -0.7779  0.7505
15576TIP3    H268144   3.502   6.017  11.332 -0.0164 -0.3801 -0.2917
15577TIP3   OH268145   2.160   6.024   3.151 -1.0106  0.6042 -0.0493
15577TIP3    H168146   2.178   6.111   3.116  3.9568 -0.3112 -0.5724
15577TIP3    H268147   2.138   5.971   3.074 -0.5511  0.7314 -0.2742
15578TIP3   OH268148   1.284   6.403  12.840 -0.5011 -0.0467 -0.0809
15578TIP3    H168149   1.355   6.442  12.789 -0.3887 -0.1835 -0.0268
15578TIP3    H268150   1.218   6.379  12.774 -0.2900 -0.3634 -0.1752
15579TIP3   OH268151   3.437   3.088   4.696  0.4123  0.0042 -0.7973
15579TIP3    H168152   3.354   3.041   4.704  0.9566 -0.8971 -0.1712
15579TIP3    H268153   3.503   3.018   4.696  1.4231  0.8051  2.5187
15580TIP3   OH268154   1.849   3.645  13.104  0.2698 -0.2590 -0.9448
15580TIP3    H168155   1.863   3.739  13.095 -0.7868 -0.0986 -1.0624
15580TIP3    H268156   1.863   3.627  13.198 -1.2885  0.3496 -0.5672
15581TIP3   OH268157   5.756   5.543  16.531 -0.1128  0.3016  0.3054
15581TIP3    H168158   5.757   5.530  16.436  1.7132  2.6236 -0.0778
15581TIP3    H268159   5.663   5.556  16.552 -0.8717 -2.6258 -0.6775
15582TIP3   OH268160   5.916   3.697  17.401 -0.1900  0.4867  0.1485
15582TIP3    H168161   5.964   3.704  17.319  0.4194 -0.7853  0.3692
15582TIP3    H268162   5.840   3.642  17.380  0.0206  0.0743  0.4504
15583TIP3   OH268163   6.496   1.318  10.755 -0.4363  0.1771 -0.0195
15583TIP3    H168164   6.506   1.247  10.691 -3.5582 -0.0118 -0.4407
15583TIP3    H268165   6.408   1.306  10.790 -1.2769  4.0674 -0.3790
15584TIP3   OH268166   3.201   0.990  12.005 -0.2489 -0.1891  0.4407
15584TIP3    H168167   3.155   0.970  11.923 -0.9519  0.0807  0.7662
15584TIP3    H268168   3.154   0.941  12.072 -0.9712  1.1947  0.9925
15585TIP3   OH268169   4.528   1.492  14.147 -0.4045  1.0181  0.0616
15585TIP3    H168170   4.444   1.450  14.164  0.3913 -1.8575 -2.1890
15585TIP3    H268171   4.593   1.431  14.183  0.8134  2.8779  1.2212
15586TIP3   OH268172   0.776   4.848   1.622 -0.2222 -0.0217 -0.3614
15586TIP3    H168173   0.838   4.776   1.633 -0.1433  0.0624 -0.2557
15586TIP3    H268174   0.828   4.919   1.585  0.0856  0.5572  1.1461
15587TIP3   OH268175   1.498   1.114  12.457 -0.1729  0.0131 -0.0866
15587TIP3    H168176   1.405   1.121  12.483  0.1266 -1.3376  1.5546
15587TIP3    H268177   1.544   1.100  12.540  1.1761 -2.1272 -1.1103
15588TIP3   OH268178   4.266   4.245   4.887 -0.9122  0.1257 -0.2031
15588TIP3    H168179   4.241   4.337   4.896 -2.1630 -0.1470 -0.6712
15588TIP3    H268180   4.213   4.199   4.951 -1.3508 -0.4346 -0.9534
15589TIP3   OH268181   0.271   6.645   3.200  0.3207  0.2769 -0.1164
15589TIP3    H168182   0.259   6.735   3.230 -0.7966 -0.3623  1.4550
15589TIP3    H268183   0.262   6.651   3.104 -0.2771  1.7484 -0.0035
15590TIP3   OH268184   5.157   5.425  16.924  0.0809  0.0828 -0.0393
15590TIP3    H168185   5.153   5.332  16.944 -1.9699  0.4586  1.6786
15590TIP3    H268186   5.107   5.434  16.843 -1.1309 -0.1451  0.6628
15591TIP3   OH268187   0.818   6.705   2.119 -0.1005  0.2117 -0.5599
15591TIP3    H168188   0.797   6.612   2.108 -1.7280  0.3317  0.9620
15591TIP3    H268189   0.734   6.746   2.139  1.0031  1.4301  2.0913
15592TIP3   OH268190   5.882   2.031   4.917 -0.2810  0.7279 -0.1680
15592TIP3    H168191   5.911   2.102   4.861 -0.7097  0.7391 -0.3830
15592TIP3    H268192   5.935   2.039   4.996  1.2326 -0.0654 -1.0650
15593TIP3   OH268193   2.154   1.360   0.900  0.1289  0.5327  0.2314
15593TIP3    H168194   2.085   1.421   0.875 -0.7393 -0.7889 -0.7269
15593TIP3    H268195   2.191   1.396   0.980 -1.6139  1.3283  0.7091
15594TIP3   OH268196   5.258   4.039   5.156 -0.2736  0.6420  0.4503
15594TIP3    H168197   5.229   3.962   5.204  0.9936 -0.1606 -0.0319
15594TIP3    H268198   5.309   4.089   5.219  0.8837 -0.1098  0.1261
15595TIP3   OH268199   6.716   2.398   0.162 -0.1719  0.2300  0.2049
15595TIP3    H168200   6.691   2.396   0.254  1.6905  2.1449  0.8636
15595TIP3    H268201   6.710   2.307   0.133 -3.0858 -0.0999  1.4877
15596TIP3   OH268202   3.932   3.863  12.623  0.3543 -0.2325  0.0012
15596TIP3    H168203   4.023   3.874  12.649  0.2467  0.9245 -0.0813
15596TIP3    H268204   3.936   3.842  12.529  0.5921 -1.7244  0.3097
15597TIP3   OH268205   6.200   3.051  15.713  0.3588  0.2185 -0.0165
15597TIP3    H168206   6.172   3.000  15.788 -1.7924  1.2703 -0.0287
15597TIP3    H268207   6.182   2.996  15.637  2.4565 -0.8113  0.1721
15598TIP3   OH268208   0.886   0.057   3.399  0.6786 -0.0449  0.0282
15598TIP3    H168209   0.864  -0.014   3.339 -1.3323  0.0665  0.5558
15598TIP3    H268210   0.905   0.132   3.342 -2.6028  0.4739 -0.5816
15599TIP3   OH268211   1.640   4.795   5.464 -0.1067  0.2851 -0.0492
15599TIP3    H168212   1.599   4.798   5.550 -1.3576 -1.7264 -0.5064
15599TIP3    H268213   1.567   4.805   5.403  0.4344 -0.6324 -0.8728
15600TIP3   OH268214   5.662   5.118   0.287 -0.2818  0.1494 -0.6182
15600TIP3    H168215   5.644   5.171   0.365 -2.6721 -0.9114 -0.3753
15600TIP3    H268216   5.655   5.027   0.317  1.4630 -0.3415 -1.5302
15601TIP3   OH268217   4.879   5.640  10.998 -0.2852  0.3161 -0.4714
15601TIP3    H168218   4.846   5.660  10.911 -3.1040  1.2139  0.6997
15601TIP3    H268219   4.832   5.560  11.024 -1.8459  1.7179  1.3164
15602TIP3   OH268220   0.066   3.056   1.862 -0.0071 -0.1922 -0.3889
15602TIP3    H168221   0.057   3.050   1.767  0.9404 -0.9614 -0.4481
15602TIP3    H268222   0.136   3.120   1.876  0.1033 -0.3474 -0.2230
15603TIP3   OH268223   1.069   3.057  12.877 -0.1866  0.0230 -0.5198
15603TIP3    H168224   1.081   2.977  12.826  1.2302 -0.0090 -0.1746
15603TIP3    H268225   0.985   3.044  12.921 -1.0098 -0.3233 -2.1349
15604TIP3   OH268226   3.927   5.211   5.313 -0.2571 -1.1004 -0.2440
15604TIP3    H168227   3.873   5.282   5.277 -0.5794 -1.2304 -0.0197
15604TIP3    H268228   3.902   5.207   5.406  0.7766 -0.5739  0.0638
15605TIP3   OH268229   4.400   5.091  15.190  0.1346 -0.4615 -0.4629
15605TIP3    H168230   4.382   5.006  15.149 -0.7653  0.1352 -1.3697
15605TIP3    H268231   4.325   5.107  15.247 -1.3667  1.1073 -2.6961
15606TIP3   OH268232   3.893   2.852   4.859 -0.0728  0.4277  0.0686
15606TIP3    H168233   3.931   2.814   4.938 -1.1050 -1.6933 -0.3841
15606TIP3    H268234   3.926   2.942   4.857  0.6067  0.2966  2.4686
15607TIP3   OH268235   4.019   1.318   2.199  0.2095 -0.0183 -0.4508
15607TIP3    H168236   3.924   1.328   2.195  0.3869  1.8974 -1.2391
15607TIP3    H268237   4.044   1.353   2.285  0.2309 -0.0667 -0.4375
15608TIP3   OH268238   4.803   5.649   3.341 -0.3339  0.1789  0.5791
15608TIP3    H168239   4.767   5.737   3.338  0.3560  0.4466 -0.1203
15608TIP3    H268240   4.841   5.641   3.428 -0.8002  0.3997  0.8094
15609TIP3   OH268241   6.365   1.426  15.068  0.5866 -0.1911 -0.2022
15609TIP3    H168242   6.360   1.486  14.993 -1.6531 -1.6881 -1.3650
15609TIP3    H268243   6.357   1.339  15.029 -0.0855 -1.0521  1.7493
15610TIP3   OH268244   6.302   4.909  15.988 -0.0549 -0.1513  0.2793
15610TIP3    H168245   6.218   4.878  16.021  0.6427 -1.7123  0.7161
15610TIP3    H268246   6.332   4.838  15.930  0.1709  1.1536 -1.2774
15611TIP3   OH268247   1.132   2.981   5.217  0.4409  0.3719  0.1125
15611TIP3    H168248   1.176   3.065   5.205 -0.5928  1.5522  3.5843
15611TIP3    H268249   1.056   2.985   5.158  0.9025  1.4348 -0.4498
15612TIP3   OH268250   0.554   0.708   5.736  0.0225  0.5956  0.6207
15612TIP3    H168251   0.565   0.798   5.704  0.0939  0.2104 -0.4918
15612TIP3    H268252   0.509   0.718   5.820  0.5220  1.6978  0.7808
15613TIP3   OH268253   3.989   1.927  14.670 -0.1269 -0.0440 -0.4341
15613TIP3    H168254   3.947   1.864  14.729 -0.6333  0.6490 -0.0329
15613TIP3    H268255   3.969   1.896  14.582  0.4698 -0.9844 -0.2457
15614TIP3   OH268256   1.559   6.170  15.867  0.4788  0.1518  0.0172
15614TIP3    H168257   1.592   6.127  15.945  2.0260  0.4342 -0.4338
15614TIP3    H268258   1.609   6.252  15.862  0.2004  0.2780 -1.0911
15615TIP3   OH268259   3.065   0.660   2.902 -0.1135  0.1689 -0.9436
15615TIP3    H168260   3.151   0.654   2.861 -0.8196  0.8170 -2.6422
15615TIP3    H268261   3.071   0.735   2.962  1.4570 -1.8555  1.6246
15616TIP3   OH268262   0.993   2.910  17.197 -0.7490  0.1596 -0.0318
15616TIP3    H168263   1.055   2.946  17.134 -1.5883  0.2311 -0.8379
15616TIP3    H268264   1.048   2.873  17.266  0.1757  1.5204  0.0187
15617TIP3   OH268265   3.786   0.609   3.272 -0.5152  0.3741 -0.0317
15617TIP3    H168266   3.838   0.685   3.298  0.4900 -0.0871 -0.6373
15617TIP3    H268267   3.698   0.628   3.304  0.0002  1.2132  0.9480
15618TIP3   OH268268   1.911   0.844   3.801  0.3239  0.3248 -0.0358
15618TIP3    H168269   1.994   0.873   3.764  0.4497 -0.6902 -0.5864
15618TIP3    H268270   1.849   0.914   3.780  0.9616  0.9322  0.0862
15619TIP3   OH268271   4.455   2.909   2.725 -0.6954  0.0687 -0.5872
15619TIP3    H168272   4.401   2.976   2.683 -0.7214  1.6108  1.7550
15619TIP3    H268273   4.397   2.870   2.791  0.3575  0.1669  0.4200
15620TIP3   OH268274   1.534   2.955   5.026 -0.2345  0.6932  0.0606
15620TIP3    H168275   1.588   2.877   5.023 -3.5637 -1.8393 -0.2688
15620TIP3    H268276   1.527   2.977   5.119 -0.5470 -0.4481  0.3202
15621TIP3   OH268277   4.301   1.618   0.284 -0.6007  0.3737  0.1031
15621TIP3    H168278   4.265   1.618   0.195 -2.1317  1.3943  0.6678
15621TIP3    H268279   4.331   1.708   0.297  0.4953 -0.0156  0.2932
15622TIP3   OH268280   1.324   5.470  16.037 -0.5194  0.3241 -0.3118
15622TIP3    H168281   1.267   5.444  16.110 -1.3829 -0.7844 -1.3473
15622TIP3    H268282   1.370   5.390  16.012 -2.3965 -0.0869 -2.8389
15623TIP3   OH268283   3.224   5.504   1.069  0.1057 -0.4474 -0.8921
15623TIP3    H168284   3.147   5.540   1.115  1.3098  0.8334  0.2255
15623TIP3    H268285   3.249   5.428   1.121  0.2693 -0.1886 -0.5889
15624TIP3   OH268286   2.913   1.246  11.655 -0.2769  0.1906  0.4363
15624TIP3    H168287   2.841   1.221  11.597  0.3513 -3.1052  0.9014
15624TIP3    H268288   2.986   1.264  11.596 -1.2009  2.9544 -0.0036
15625TIP3   OH268289   0.077   1.873  13.819 -0.0206 -0.2399  0.0151
15625TIP3    H168290   0.036   1.945  13.772  0.2742  0.4256  0.7346
15625TIP3    H268291   0.099   1.809  13.752 -1.9322 -0.4826 -0.4135
15626TIP3   OH268292   5.867   5.312  12.864 -0.2070 -0.1834  0.3353
15626TIP3    H168293   5.868   5.220  12.839  0.6671 -0.1025  0.0354
15626TIP3    H268294   5.784   5.345  12.831 -0.8463 -1.0240  1.0583
15627TIP3   OH268295   5.850   6.730   0.817  0.4700 -0.3508 -0.1608
15627TIP3    H168296   5.809   6.792   0.756  0.1870 -0.4716 -0.0937
15627TIP3    H268297   5.923   6.780   0.855  0.0989  0.0230  0.0704
15628TIP3   OH268298   5.438   3.007   5.394 -0.0276  0.0286 -0.6851
15628TIP3    H168299   5.437   2.935   5.332 -0.7286  0.0637 -0.7154
15628TIP3    H268300   5.347   3.037   5.399  0.0502  0.1521  0.2075
15629TIP3   OH268301   2.915   4.696   3.397  0.1389 -0.6498  0.0580
15629TIP3    H168302   2.869   4.771   3.436  1.9255  0.8089 -0.5142
15629TIP3    H268303   2.866   4.620   3.428 -3.5480  0.7669 -1.6414
15630TIP3   OH268304   3.227   1.143  10.042  0.4369 -0.2457  0.0246
15630TIP3    H168305   3.302   1.144  10.102 -1.6132  1.4298  2.7933
15630TIP3    H268306   3.229   1.230  10.002  0.0494 -0.2545 -0.0107
15631TIP3   OH268307   6.448   0.064  17.187  0.0881  0.3957  0.5955
15631TIP3    H168308   6.523   0.004  17.177  0.9903  1.8543 -3.1641
15631TIP3    H268309   6.475   0.124  17.257  1.5507 -0.3176  0.6871
15632TIP3   OH268310   5.593   0.859  14.181  0.4682  0.3520 -0.0921
15632TIP3    H168311   5.501   0.879  14.193  0.5906 -0.4193  2.7534
15632TIP3    H268312   5.594   0.789  14.115 -0.7823  1.5014 -1.3917
15633TIP3   OH268313   2.824   2.780   6.351 -0.9570 -0.2089  0.0094
15633TIP3    H168314   2.914   2.812   6.356 -0.8843 -0.4987  0.5819
15633TIP3    H268315   2.781   2.838   6.287  0.2018 -1.4466 -1.9925
15634TIP3   OH268316   1.821   0.340   2.044 -0.0318  0.0062 -0.2078
15634TIP3    H168317   1.761   0.404   2.006 -0.6523 -0.8369 -0.7143
15634TIP3    H268318   1.769   0.296   2.112  0.6637  0.6291  0.7425
15635TIP3   OH268319   4.156   3.830   4.300 -0.4137 -0.2171  0.5566
15635TIP3    H168320   4.069   3.790   4.295 -0.6515  0.2875  0.6345
15635TIP3    H268321   4.158   3.874   4.385  0.2160 -0.9003  0.9158
15636TIP3   OH268322   0.418   3.605   5.529  0.1705  0.2061  0.2234
15636TIP3    H168323   0.393   3.695   5.507 -0.3556  0.1552  0.5901
15636TIP3    H268324   0.439   3.565   5.445 -1.7547  0.0389 -0.2360
15637TIP3   OH268325   6.113   4.583   0.500 -0.1055 -0.4126  0.3051
15637TIP3    H168326   6.167   4.659   0.523  0.8460 -0.6746 -0.9831
15637TIP3    H268327   6.075   4.605   0.415 -1.5013 -0.5293  0.8747
15638TIP3   OH268328   4.448   6.329  12.539 -0.0645 -0.4461  0.0933
15638TIP3    H168329   4.439   6.265  12.610  0.1977  0.9496  1.4442
15638TIP3    H268330   4.453   6.276  12.459  0.1912 -2.0939  1.1528
15639TIP3   OH268331   4.845   1.134   4.122  0.3611  0.2332  0.1473
15639TIP3    H168332   4.875   1.070   4.186  1.3439  0.1339 -0.3923
15639TIP3    H268333   4.922   1.188   4.104 -0.1306  0.7956 -0.3200
15640TIP3   OH268334   2.253   2.229  14.562 -1.1083  0.4516 -0.2284
15640TIP3    H168335   2.290   2.298  14.617 -1.7598 -0.4464  1.3923
15640TIP3    H268336   2.166   2.261  14.539 -2.2254 -0.5754  2.1748
15641TIP3   OH268337   0.330   0.572  16.655  0.4188 -0.1018  0.4084
15641TIP3    H168338   0.346   0.659  16.692 -0.4350 -0.1127  0.8196
15641TIP3    H268339   0.383   0.514  16.710  2.6461  0.3458 -1.1342
15642TIP3   OH268340   1.210   3.527  10.581  0.1026  0.3034 -0.3593
15642TIP3    H168341   1.202   3.453  10.641 -0.2342  0.5000 -0.1553
15642TIP3    H268342   1.177   3.495  10.497 -1.7636  0.7305  0.1621
15643TIP3   OH268343   6.432   0.266   5.781  1.0486 -0.1244 -0.3568
15643TIP3    H168344   6.424   0.224   5.867  2.1864 -1.1097 -0.7038
15643TIP3    H268345   6.379   0.212   5.723 -0.2620  0.9223 -0.1808
15644TIP3   OH268346   5.532   4.531  15.791  0.3196  0.4437 -0.1005
15644TIP3    H168347   5.517   4.448  15.837 -2.7170  0.3371 -1.1285
15644TIP3    H268348   5.560   4.505  15.703  0.8867  0.5722  0.0351
15645TIP3   OH268349   5.521   4.815  14.901  0.0988  0.1538 -0.4178
15645TIP3    H168350   5.611   4.818  14.869  1.1783 -0.6938  2.2827
15645TIP3    H268351   5.489   4.728  14.876  1.1914 -0.7957  1.2627
15646TIP3   OH268352   6.647   4.945  14.881 -0.6012  0.1288  0.0051
15646TIP3    H168353   6.695   4.955  14.963  0.0655 -0.0546 -0.3559
15646TIP3    H268354   6.576   4.883  14.902 -0.3217 -0.0622  0.3953
15647TIP3   OH268355   0.052   0.595   2.811  0.3451  0.5001  0.1397
15647TIP3    H168356  -0.024   0.571   2.759  1.3257  0.0146 -1.1178
15647TIP3    H268357   0.108   0.644   2.751  1.5334 -0.1053  0.7164
15648TIP3   OH268358   4.229   6.486   2.064 -0.1299  0.1844  0.2424
15648TIP3    H168359   4.158   6.450   2.117  1.1690 -1.1986  1.1055
15648TIP3    H268360   4.299   6.422   2.071  1.8615  2.3099  0.8032
15649TIP3   OH268361   1.568   0.833   4.862  0.7285  0.1144  0.1624
15649TIP3    H168362   1.519   0.751   4.867  1.0418  0.0006  3.0134
15649TIP3    H268363   1.503   0.901   4.879  0.9180  0.2443  0.3729
15650TIP3   OH268364   1.635   0.196   3.847  0.2935 -0.4918 -0.1312
15650TIP3    H168365   1.702   0.231   3.788  0.9280 -2.7169 -0.8203
15650TIP3    H268366   1.683   0.175   3.928  0.0990 -0.5475 -0.0296
15651TIP3   OH268367   0.978   5.886  16.026 -0.2588 -0.2108 -0.3109
15651TIP3    H168368   0.985   5.862  16.118 -1.2879 -2.1698 -0.6974
15651TIP3    H268369   1.067   5.877  15.992  0.1764  0.7525  0.5010
15652TIP3   OH268370   5.398   3.470   3.653  0.1193 -0.5763  0.1376
15652TIP3    H168371   5.397   3.560   3.685 -0.8665 -0.5007 -0.0672
15652TIP3    H268372   5.314   3.460   3.607  0.6738 -1.2638 -0.7753
15653TIP3   OH268373   5.415   0.137  17.131  0.2267 -0.0615  0.0976
15653TIP3    H168374   5.449   0.059  17.088  2.1407  1.5067 -1.4602
15653TIP3    H268375   5.378   0.189  17.059  1.2971  1.5528  0.6385
15654TIP3   OH268376   2.309   5.711  12.489 -0.4073  0.0424 -0.4397
15654TIP3    H168377   2.402   5.695  12.502 -0.6842  0.4492  2.7336
15654TIP3    H268378   2.280   5.640  12.432  1.7923 -0.1290 -1.4323
15655TIP3   OH268379   2.667   0.229  13.433  0.2896 -0.1554 -0.0902
15655TIP3    H168380   2.728   0.194  13.368 -0.3145  2.0366 -1.9650
15655TIP3    H268381   2.598   0.163  13.438  1.2523 -1.2068 -0.2787
15656TIP3   OH268382   1.446   3.648  10.666  0.2821  0.6138  0.1722
15656TIP3    H168383   1.366   3.603  10.640  2.1792 -1.4047 -2.7327
15656TIP3    H268384   1.452   3.723  10.606  0.6954  0.6068  0.2022
15657TIP3   OH268385   1.174   4.607   3.942  0.3960  0.1317 -0.7397
15657TIP3    H168386   1.253   4.578   3.897  1.5218  0.9461  0.6363
15657TIP3    H268387   1.151   4.690   3.900  1.3765  0.8313  0.0610
15658TIP3   OH268388   0.431   5.576  15.455  0.5511  0.2634  0.1727
15658TIP3    H168389   0.388   5.591  15.371  1.6950 -0.4074 -0.5602
15658TIP3    H268390   0.474   5.659  15.476  0.4229  0.3715  0.0031
15659TIP3   OH268391   4.361   2.713   2.145 -0.6202  0.0282 -0.5035
15659TIP3    H168392   4.433   2.656   2.120 -2.3512 -1.5737 -2.2225
15659TIP3    H268393   4.394   2.762   2.221  2.6659  0.3306 -1.9549
15660TIP3   OH268394   0.018   1.750   0.868  0.0521  0.2124  0.0509
15660TIP3    H168395   0.036   1.685   0.801 -0.0931  2.1047 -1.9374
15660TIP3    H268396  -0.077   1.749   0.878 -0.1143  1.1367 -1.1507
15661TIP3   OH268397   2.966   4.279   3.438  0.3874 -0.7125 -0.8776
15661TIP3    H168398   2.921   4.228   3.370 -2.3238  0.3475 -0.0038
15661TIP3    H268399   2.947   4.232   3.519  0.5003 -0.0140 -0.4428
15662TIP3   OH268400   0.556   6.311  12.894  0.6727 -0.0833 -0.2463
15662TIP3    H168401   0.584   6.277  12.979  0.8690  1.5982  0.3953
15662TIP3    H268402   0.596   6.252  12.831  1.3034 -0.8190  0.8071
15663TIP3   OH268403   4.402   5.342  12.168  0.0599 -0.3629 -0.5605
15663TIP3    H168404   4.440   5.408  12.111 -1.1910 -1.4183 -2.7617
15663TIP3    H268405   4.449   5.261  12.146 -1.0285 -0.9647 -0.7682
15664TIP3   OH268406   3.870   4.395   3.055  0.1146 -0.4953 -0.3568
15664TIP3    H168407   3.784   4.367   3.022 -0.2907 -0.0002  0.2407
15664TIP3    H268408   3.866   4.377   3.149  0.8628 -0.9460 -0.4134
15665TIP3   OH268409   2.062   1.151  11.682  0.2973  0.2577  0.4090
15665TIP3    H168410   2.149   1.121  11.654  0.5266  1.1088  0.1751
15665TIP3    H268411   2.049   1.112  11.768  1.4418  1.1082  0.9886
15666TIP3   OH268412   4.643   4.262   2.475  0.3603 -0.0425 -0.0955
15666TIP3    H168413   4.703   4.187   2.473  1.4442  0.7802  0.4683
15666TIP3    H268414   4.620   4.273   2.567  0.9116  0.8387 -0.0467
15667TIP3   OH268415   2.197   1.060   5.986  0.2376 -0.2643  0.1352
15667TIP3    H168416   2.201   0.994   6.054  1.8991 -1.1650 -0.7819
15667TIP3    H268417   2.273   1.116   6.001  0.2129 -0.0288 -0.5397
15668TIP3   OH268418   4.385   4.506   0.746  0.3795  0.6506 -0.1628
15668TIP3    H168419   4.440   4.461   0.810  0.2421  1.5980  0.6340
15668TIP3    H268420   4.360   4.437   0.683  0.9290 -0.1778  0.5087
15669TIP3   OH268421   0.239   3.937   1.505  0.1371 -0.3152  0.5967
15669TIP3    H168422   0.177   3.917   1.435  1.3083  0.4734 -0.7301
15669TIP3    H268423   0.325   3.928   1.464  0.8300  3.2502  0.9516
15670TIP3   OH268424   2.561   0.187  13.126 -0.2283 -0.1038  0.3460
15670TIP3    H168425   2.526   0.111  13.175  1.8837 -1.4952 -0.2000
15670TIP3    H268426   2.610   0.149  13.054 -1.6283  1.8906 -1.8041
15671TIP3   OH268427   0.708   4.029  16.875  0.8153  0.0742 -0.2995
15671TIP3    H168428   0.647   3.992  16.938 -1.0171  1.0745 -1.3898
15671TIP3    H268429   0.756   3.954  16.840 -0.1599 -0.8130  0.2345
15672TIP3   OH268430   1.807   1.002   5.346  0.1497 -0.2520 -0.1706
15672TIP3    H168431   1.900   0.985   5.361  0.0080 -0.2573  0.8180
15672TIP3    H268432   1.799   1.097   5.352  0.2054 -0.1892 -1.0150
15673TIP3   OH268433   4.458   4.185  11.048  0.2532  0.3308 -0.0554
15673TIP3    H168434   4.426   4.228  11.127  0.4462 -0.2172  0.3282
15673TIP3    H268435   4.416   4.098  11.050 -0.2473  0.5389 -0.8885
15674TIP3   OH268436   0.277   2.970   0.666 -0.2822  0.0481  0.4173
15674TIP3    H168437   0.209   3.037   0.673 -0.0874  0.3760 -0.6877
15674TIP3    H268438   0.341   3.006   0.605 -0.8447 -1.6954 -1.3000
15675TIP3   OH268439   0.938   3.720   2.282 -0.3426 -0.1862  0.2405
15675TIP3    H168440   0.874   3.782   2.248 -1.4483 -1.3187  0.1842
15675TIP3    H268441   0.978   3.681   2.204 -0.4315 -0.3343  0.2696
15676TIP3   OH268442   1.617   4.388   4.434  0.2197 -0.2816  0.7583
15676TIP3    H168443   1.697   4.424   4.473  1.8312 -1.9341 -0.8598
15676TIP3    H268444   1.608   4.301   4.474  0.8870 -1.2557 -1.0951
15677TIP3   OH268445   0.154   2.767   2.021  0.4433  0.0243 -0.3073
15677TIP3    H168446   0.083   2.751   1.958  0.9750 -0.1930 -0.8655
15677TIP3    H268447   0.148   2.861   2.040  1.9994  0.7617 -2.8774
15678TIP3   OH268448   1.920   2.187   3.602 -0.1716 -0.0645  0.0437
15678TIP3    H168449   1.832   2.210   3.632 -1.0403 -1.0219 -1.5850
15678TIP3    H268450   1.975   2.260   3.629 -1.5000  0.6513  0.9292
15679TIP3   OH268451   4.668   4.646   5.283  0.1271 -0.0222 -0.5712
15679TIP3    H168452   4.709   4.619   5.201  0.2493  0.0761 -0.5427
15679TIP3    H268453   4.629   4.731   5.263  2.8197  1.5488  0.2847
15680TIP3   OH268454   3.406   2.588  14.701 -0.5564  0.4379  0.8232
15680TIP3    H168455   3.319   2.570  14.665  0.5469 -0.3009 -1.7317
15680TIP3    H268456   3.419   2.520  14.767 -0.7757 -1.4688 -0.9747
15681TIP3   OH268457   0.023   1.127  12.565 -0.7873 -0.2229 -0.1921
15681TIP3    H168458  -0.018   1.212  12.580  2.0396  1.5481 -1.6776
15681TIP3    H268459   0.086   1.118  12.636 -0.6168 -0.7683 -0.4075
15682TIP3   OH268460   6.746   0.906   0.257  0.0420 -0.0638  0.4603
15682TIP3    H168461   6.766   0.999   0.268  0.0488 -0.1266  1.0088
15682TIP3    H268462   6.655   0.897   0.285 -0.4754  0.0416 -1.0861
15683TIP3   OH268463   1.068   0.502   3.328  0.0101  0.5040  0.0668
15683TIP3    H168464   1.159   0.479   3.347 -0.0579 -0.8958 -1.0636
15683TIP3    H268465   1.021   0.489   3.410  0.6146 -0.0705  0.3246
15684TIP3   OH268466   6.578   1.883   3.710  0.1003  0.2868  0.2007
15684TIP3    H168467   6.667   1.911   3.731 -0.0680  1.0734 -0.0894
15684TIP3    H268468   6.554   1.936   3.634 -0.3495 -0.4460 -0.1770
15685TIP3   OH268469   6.051   3.095  16.280  0.1819  0.0197  0.7991
15685TIP3    H168470   6.015   3.127  16.362 -0.4991 -1.0278  0.9390
15685TIP3    H268471   5.976   3.059  16.233  0.7019 -0.2057  0.1121
15686TIP3   OH268472   4.404   0.198  15.177 -0.2303 -0.2205  0.3862
15686TIP3    H168473   4.476   0.225  15.234 -0.1254 -1.8772  1.1142
15686TIP3    H268474   4.325   0.232  15.221 -0.0132  0.1449  0.4986
15687TIP3   OH268475   5.703   0.839  12.574 -0.1675 -0.8863 -0.1167
15687TIP3    H168476   5.662   0.920  12.606 -2.0908 -1.8021 -0.1288
15687TIP3    H268477   5.775   0.869  12.519 -1.5023  0.8771 -1.0239
15688TIP3   OH268478   1.111   2.829  14.939  0.0461 -0.0610 -1.1253
15688TIP3    H168479   1.134   2.864  15.025  0.3593  0.7580 -1.5336
15688TIP3    H268480   1.054   2.754  14.958 -1.2607  1.0936 -0.2362
15689TIP3   OH268481   0.569   4.510   2.158 -0.6537 -0.1104 -0.6647
15689TIP3    H168482   0.521   4.592   2.149  0.1768  0.2504 -2.0925
15689TIP3    H268483   0.546   4.479   2.246 -1.7300  1.1523 -0.4616
15690TIP3   OH268484   2.394   5.150  13.647 -0.7886 -0.4831  0.2171
15690TIP3    H168485   2.342   5.103  13.582 -0.7239 -1.0853  0.5957
15690TIP3    H268486   2.427   5.082  13.705 -0.4253  0.0009  0.5844
15691TIP3   OH268487   3.475   1.780  15.734 -0.7934  0.8400  0.1479
15691TIP3    H168488   3.495   1.757  15.825 -2.0761  0.6980  0.4054
15691TIP3    H268489   3.542   1.844  15.710 -0.5629  1.0296  1.2613
15692TIP3   OH268490   1.078   6.275   4.392  0.2706  0.3796  0.2738
15692TIP3    H168491   1.109   6.348   4.446 -0.9189  1.9793 -1.0659
15692TIP3    H268492   0.982   6.284   4.392  0.0639 -1.5382  0.5037
15693TIP3   OH268493   6.686   3.793  16.579  0.7025  0.5114 -0.1936
15693TIP3    H168494   6.629   3.861  16.544 -0.0810 -1.0830 -2.2082
15693TIP3    H268495   6.775   3.827  16.565  0.3762  2.3725  1.6468
15694TIP3   OH268496   5.238   3.968  15.611 -0.0930 -0.1417 -0.0615
15694TIP3    H168497   5.239   4.063  15.625 -2.0078  0.0857 -1.0938
15694TIP3    H268498   5.255   3.931  15.697  1.4550  1.1188  0.2161
15695TIP3   OH268499   3.501   4.436  12.289  0.0730 -0.4272 -0.0161
15695TIP3    H168500   3.540   4.379  12.355 -0.4234 -0.8932 -0.1171
15695TIP3    H268501   3.439   4.379  12.241 -1.7371  0.5868  1.0027
15696TIP3   OH268502   3.359   2.645  16.804 -0.2313  0.2576 -1.0228
15696TIP3    H168503   3.364   2.688  16.890  1.2715  0.0397 -0.9762
15696TIP3    H268504   3.299   2.572  16.817  0.0802  0.1513 -0.1146
15697TIP3   OH268505   3.216   1.558  11.178  0.5167  0.2581  0.3439
15697TIP3    H168506   3.211   1.533  11.086  4.0169 -1.4581  0.4435
15697TIP3    H268507   3.204   1.476  11.226 -0.8187  1.0603  1.4467
15698TIP3   OH268508   3.268   1.842  10.773 -0.3940 -0.1222 -0.3355
15698TIP3    H168509   3.321   1.790  10.713 -0.1490  1.0481 -1.1677
15698TIP3    H268510   3.331   1.875  10.838 -0.4819 -0.5104 -0.0477
15699TIP3   OH268511   2.874   3.989  12.922 -0.2196 -0.1443  0.1064
15699TIP3    H168512   2.859   4.080  12.895 -0.3158 -0.4882 -1.0380
15699TIP3    H268513   2.962   3.990  12.960 -0.1747  0.4004  0.0012
15700TIP3   OH268514   4.386   1.720  15.038 -0.0643 -0.1716 -0.0110
15700TIP3    H168515   4.382   1.747  14.946  0.1270  0.4367  0.1517
15700TIP3    H268516   4.366   1.627  15.037 -0.8047 -0.0206 -0.5990
15701TIP3   OH268517   5.669   5.234  16.898  0.1524 -0.2776  0.6998
15701TIP3    H168518   5.688   5.182  16.975  1.8142  0.7558  1.0431
15701TIP3    H268519   5.712   5.188  16.826  1.6413  0.5772  1.0060
15702TIP3   OH268520   0.704   2.971  13.817  0.0806 -0.1645 -0.3561
15702TIP3    H168521   0.705   3.015  13.732 -0.3370  0.3519 -0.0986
15702TIP3    H268522   0.614   2.978  13.847  0.1853 -0.5046  0.0504
15703TIP3   OH268523   2.767   3.825  12.277 -0.9626  0.3245 -0.2184
15703TIP3    H168524   2.714   3.791  12.350 -0.2488  0.9580  0.6260
15703TIP3    H268525   2.846   3.859  12.319 -1.8928  3.6460 -0.8746
15704TIP3   OH268526   1.460   4.818   6.499  0.1695 -0.5410 -0.0578
15704TIP3    H168527   1.457   4.757   6.425 -1.6090  0.5717 -0.9685
15704TIP3    H268528   1.380   4.800   6.549  0.9779 -0.7669  1.2148
15705TIP3   OH268529   1.890   3.372  17.127 -0.3201 -0.7152 -0.2089
15705TIP3    H168530   1.927   3.326  17.203  2.7904  0.5074 -0.8192
15705TIP3    H268531   1.871   3.460  17.160 -0.4622 -0.6496 -0.4659
15706TIP3   OH268532   5.202   4.706  16.864  0.0176 -0.4177  0.4831
15706TIP3    H168533   5.260   4.753  16.924 -1.2385  1.5607  0.2585
15706TIP3    H268534   5.123   4.690  16.916 -1.0871  1.3244 -0.5629
15707TIP3   OH268535   4.820   3.052  13.798  0.2224  0.3752 -0.4775
15707TIP3    H168536   4.840   3.144  13.813  0.4717  0.3770 -0.7807
15707TIP3    H268537   4.864   3.032  13.715 -0.5651  0.2161 -0.8688
15708TIP3   OH268538   0.384   4.302   5.091  0.1722 -0.5026  1.0275
15708TIP3    H168539   0.427   4.370   5.143  0.1082 -0.6330  1.2543
15708TIP3    H268540   0.456   4.246   5.061  0.6625  1.5618 -2.0600
15709TIP3   OH268541   4.016   0.839   5.453 -0.1299  0.5320  0.2639
15709TIP3    H168542   4.066   0.880   5.524 -1.4836  0.6050  1.2075
15709TIP3    H268543   4.069   0.854   5.375  2.2130 -0.9631  1.4511
15710TIP3   OH268544   4.630   0.670  12.245  0.0906 -0.2770  0.5843
15710TIP3    H168545   4.563   0.665  12.313 -2.0990 -0.3075 -1.4402
15710TIP3    H268546   4.641   0.580  12.215 -0.5867 -0.0178 -0.5186
15711TIP3   OH268547   6.494   5.968   0.279  0.3779 -0.1849  0.1042
15711TIP3    H168548   6.467   5.886   0.320  1.1842 -0.0386  0.9779
15711TIP3    H268549   6.482   5.953   0.185 -3.6207  0.2154  0.3800
15712TIP3   OH268550   1.194   6.081  16.222  0.7921 -0.2107  0.1601
15712TIP3    H168551   1.275   6.076  16.274  1.4393 -0.4862 -0.8448
15712TIP3    H268552   1.124   6.069  16.286  1.5278  0.2948  1.0960
15713TIP3   OH268553   5.970   3.054  10.313  0.0115 -0.0969  0.2166
15713TIP3    H168554   6.065   3.059  10.305  0.1077 -0.8632  0.7194
15713TIP3    H268555   5.952   2.960  10.323 -0.7996  0.0369  0.0864
15714TIP3   OH268556   3.434   1.083  10.843 -0.0713  0.0781  0.0763
15714TIP3    H168557   3.489   1.096  10.920 -0.2075 -0.4357  0.2659
15714TIP3    H268558   3.495   1.059  10.773  0.2316  2.0009 -0.3809
15715TIP3   OH268559   3.600   6.071  11.181 -0.5854 -0.3172 -0.3879
15715TIP3    H168560   3.688   6.077  11.144 -1.0288  1.0754 -1.3191
15715TIP3    H268561   3.548   6.132  11.128 -1.7987 -0.0655  1.0308
15716TIP3   OH268562   1.839   2.736  14.728 -0.2603  0.6948 -0.2502
15716TIP3    H168563   1.876   2.808  14.778 -0.3963 -0.9547  2.4658
15716TIP3    H268564   1.744   2.745  14.739 -0.3078  0.4513 -0.4405
15717TIP3   OH268565   5.926   6.521   4.748 -0.0699  0.3604 -0.4585
15717TIP3    H168566   5.971   6.456   4.802  0.4369  0.5581 -0.6429
15717TIP3    H268567   5.836   6.487   4.741  0.0872 -0.1204 -0.2367
15718TIP3   OH268568   1.104   1.439  13.488  0.2120 -0.4979 -0.2315
15718TIP3    H168569   1.195   1.459  13.513  0.1798 -2.3406  1.6431
15718TIP3    H268570   1.057   1.521  13.505  1.0832 -0.2664  1.3784
15719TIP3   OH268571   4.786   3.159  13.303 -0.5913  0.0897 -0.4236
15719TIP3    H168572   4.826   3.245  13.317  0.0349 -0.3286  0.4267
15719TIP3    H268573   4.770   3.155  13.209  1.5218  0.2273 -0.8372
15720TIP3   OH268574   1.659   0.045   1.212  0.8303  0.0107 -0.4310
15720TIP3    H168575   1.740   0.085   1.244 -0.3672  1.6762  0.6578
15720TIP3    H268576   1.610   0.023   1.291  0.0454 -0.6525 -1.0837
15721TIP3   OH268577   4.799   2.049   0.083  0.3575 -0.4346  0.1711
15721TIP3    H168578   4.751   2.115   0.032  1.2100 -0.8958 -1.3039
15721TIP3    H268579   4.735   1.978   0.095  0.7155 -1.3114 -2.3070
15722TIP3   OH268580   0.381   2.232   1.377 -0.1599  0.0032 -0.0022
15722TIP3    H168581   0.409   2.208   1.288  1.2886  0.8321  0.1799
15722TIP3    H268582   0.464   2.247   1.424 -0.9140  1.0110  1.0628
15723TIP3   OH268583   3.224   3.852  13.135  0.1935 -0.1558  0.1890
15723TIP3    H168584   3.281   3.909  13.187 -1.2926  1.0538  0.5442
15723TIP3    H268585   3.214   3.897  13.052  0.5560 -0.8808 -0.2632
15724TIP3   OH268586   5.778   0.818   2.474  0.6835  1.1113 -0.0351
15724TIP3    H168587   5.869   0.843   2.458  0.8208  1.1785  0.8097
15724TIP3    H268588   5.779   0.775   2.559 -0.1761  1.7088  0.2916
15725TIP3   OH268589   1.337   5.862  15.259  0.0602 -0.5758 -0.3283
15725TIP3    H168590   1.408   5.926  15.259  1.6101 -2.1980 -0.3177
15725TIP3    H268591   1.258   5.913  15.273  1.1758  1.3632 -0.7491
15726TIP3   OH268592   6.264   5.610   2.745 -0.1777 -0.4072 -0.2940
15726TIP3    H168593   6.293   5.689   2.790  1.6246 -0.2692 -1.5783
15726TIP3    H268594   6.301   5.538   2.797 -1.1048 -0.3953  0.4005
15727TIP3   OH268595   1.691   2.812   3.920  0.8439 -0.1564  0.0864
15727TIP3    H168596   1.753   2.743   3.894 -0.4522 -2.8181  3.4357
15727TIP3    H268597   1.728   2.850   4.000 -1.1434 -0.9406  1.4543
15728TIP3   OH268598   6.275   6.214  13.738  0.1062  0.4445 -0.2222
15728TIP3    H168599   6.349   6.206  13.799 -0.2723  1.1073  0.3475
15728TIP3    H268600   6.239   6.301  13.756  0.1040  0.7334 -1.5471
15729TIP3   OH268601   0.405   1.750  12.026  0.4497 -0.2995 -0.0997
15729TIP3    H168602   0.496   1.749  11.995  0.2645  0.6467 -0.7060
15729TIP3    H268603   0.407   1.808  12.102  0.3335 -0.1641 -0.1998
15730TIP3   OH268604   0.632   4.541   4.289 -0.3238 -0.1566 -0.3668
15730TIP3    H168605   0.623   4.472   4.224  1.5389  1.1005 -2.0520
15730TIP3    H268606   0.720   4.531   4.324 -0.8308  0.0044  1.0431
15731TIP3   OH268607   0.688   1.996  12.882  0.3995  0.8732  0.0382
15731TIP3    H168608   0.685   1.928  12.814  1.6966  0.4030  0.4332
15731TIP3    H268609   0.743   2.065  12.844  0.7614  0.8051  0.4332
15732TIP3   OH268610   5.501   6.102  11.975 -0.1664  0.4228 -0.5932
15732TIP3    H168611   5.548   6.060  12.047  0.0705  0.6368 -0.6232
15732TIP3    H268612   5.567   6.152  11.928 -0.2533  0.0153 -1.1630
15733TIP3   OH268613   3.425   6.610   5.263  0.3305  0.0888  0.4862
15733TIP3    H168614   3.344   6.618   5.313  1.1476  0.5919  1.7768
15733TIP3    H268615   3.494   6.627   5.326  1.4479 -0.1203 -0.6360
15734TIP3   OH268616   5.959   3.179   3.973  0.8371  0.3838  0.5469
15734TIP3    H168617   5.880   3.201   4.022 -0.1941  0.6324 -1.1546
15734TIP3    H268618   5.944   3.090   3.941  1.2524  0.4153  0.2511
15735TIP3   OH268619   4.174   0.595   4.706  0.4192  0.7972 -0.3860
15735TIP3    H168620   4.111   0.665   4.690  1.1239  1.6956  0.6385
15735TIP3    H268621   4.259   0.639   4.707  0.9077 -0.1367 -0.0728
15736TIP3   OH268622   5.717   2.671   5.219 -0.0436 -0.4980  0.5164
15736TIP3    H168623   5.670   2.704   5.142 -2.0808  0.1073  1.9309
15736TIP3    H268624   5.743   2.582   5.195 -1.4272 -0.6501 -0.5689
15737TIP3   OH268625   4.018   3.479  16.376  0.2692  0.9230  0.6797
15737TIP3    H168626   4.097   3.490  16.428  0.4965  2.3979  0.0739
15737TIP3    H268627   4.049   3.461  16.288 -0.1086 -2.8952  1.1702
15738TIP3   OH268628   2.494   2.821   2.243 -0.1461  0.1916  0.0222
15738TIP3    H168629   2.544   2.782   2.315  0.8030  0.8547 -0.2649
15738TIP3    H268630   2.449   2.896   2.283 -0.2415  0.0996  0.0899
15739TIP3   OH268631   0.714   2.006  16.054  0.0011  0.0263 -0.2277
15739TIP3    H168632   0.697   1.923  16.098 -0.2371  0.8906  1.3737
15739TIP3    H268633   0.637   2.019  15.998 -0.9393  0.1173  1.0407
15740TIP3   OH268634   0.627   1.717  15.891 -0.0498  0.3604  0.1012
15740TIP3    H168635   0.702   1.774  15.870 -0.2247  0.9133  0.9328
15740TIP3    H268636   0.606   1.738  15.982 -0.8646 -0.2031  0.0501
15741TIP3   OH268637   1.740   5.205   1.118 -0.0730  0.2144  0.2364
15741TIP3    H168638   1.813   5.245   1.072 -0.1835 -0.6803 -0.7626
15741TIP3    H268639   1.663   5.254   1.089 -0.3118 -1.1557 -1.6147
15742TIP3   OH268640   0.306   5.387  15.830  0.1754 -0.3637 -0.2908
15742TIP3    H168641   0.381   5.445  15.821 -0.0478 -0.1073 -0.4857
15742TIP3    H268642   0.343   5.307  15.868  0.3111  0.2540  0.9120
15743TIP3   OH268643   4.352   5.323  10.237 -0.4062  0.4018  0.5544
15743TIP3    H168644   4.339   5.381  10.163  2.0835  0.5152  0.1341
15743TIP3    H268645   4.386   5.242  10.199 -3.0182 -1.1491  1.2096
15744TIP3   OH268646   2.072   1.251   2.956  0.0479  0.2911  0.0599
15744TIP3    H168647   2.034   1.245   2.869  0.5406 -0.6840 -0.1026
15744TIP3    H268648   2.158   1.292   2.943  0.8873 -1.4585 -0.1840
15745TIP3   OH268649   2.828   5.294   2.702 -0.5336 -0.0494 -0.2995
15745TIP3    H168650   2.894   5.228   2.723 -1.4128 -0.5918  0.8261
15745TIP3    H268651   2.864   5.340   2.625  1.9343  0.7733  1.2281
15746TIP3   OH268652   4.191   6.629  14.764  0.2447 -0.4692 -0.3953
15746TIP3    H168653   4.162   6.588  14.845 -0.0134  0.5886  0.0593
15746TIP3    H268654   4.254   6.567  14.727 -0.7413 -1.6546 -0.1566
15747TIP3   OH268655   6.609   2.014  12.427  0.1978  0.1555  0.3932
15747TIP3    H168656   6.526   1.990  12.385  0.9746  0.3682 -1.3323
15747TIP3    H268657   6.676   1.987  12.365  1.3705  1.1741  1.1727
15748TIP3   OH268658   3.324   5.250   4.454  0.1052 -0.1248 -0.4917
15748TIP3    H168659   3.310   5.187   4.384  1.1873  1.4382 -2.2022
15748TIP3    H268660   3.381   5.317   4.415 -0.6177  1.6680  1.3635
15749TIP3   OH268661   6.143   0.487   4.894  0.1591  0.4127 -0.3424
15749TIP3    H168662   6.236   0.513   4.897  0.0784  0.7482 -0.7485
15749TIP3    H268663   6.102   0.538   4.964  0.1882  0.6335 -0.4864
15750TIP3   OH268664   2.930   2.359   1.531 -0.1498  0.1993 -0.3339
15750TIP3    H168665   2.844   2.321   1.511  0.9311 -1.2400 -2.5935
15750TIP3    H268666   2.928   2.444   1.487 -0.0637 -0.2738 -1.2737
15751TIP3   OH268667   4.280   3.244   1.191  0.0725 -0.4710  0.7449
15751TIP3    H168668   4.323   3.239   1.106  0.1324 -0.0562  0.7487
15751TIP3    H268669   4.352   3.234   1.254 -0.1880 -2.6815  0.7678
15752TIP3   OH268670   4.745   5.923  16.848  0.6175  0.2957  0.1372
15752TIP3    H168671   4.754   6.007  16.803  1.9558  0.0095 -0.1713
15752TIP3    H268672   4.662   5.887  16.817  1.4029  0.1954 -1.9859
15753TIP3   OH268673   6.652   1.834  11.767  0.0179  0.3531  0.1855
15753TIP3    H168674   6.663   1.927  11.747 -1.5020  0.1764 -1.7977
15753TIP3    H268675   6.720   1.815  11.832  1.3355  2.4856 -0.4701
15754TIP3   OH268676   2.366   6.526  11.590 -0.5172  0.0830 -0.0871
15754TIP3    H168677   2.355   6.465  11.517 -1.4646 -0.7607  0.7356
15754TIP3    H268678   2.433   6.587  11.560  0.9872 -1.7551 -0.6957
15755TIP3   OH268679   3.048   0.198  14.654  0.1768 -0.3684  0.0849
15755TIP3    H168680   3.000   0.247  14.587 -1.3530 -0.0405  1.3539
15755TIP3    H268681   3.139   0.200  14.625  0.0201  2.3468 -0.4652
15756TIP3   OH268682   6.700   3.022  12.131  0.4082  0.0399  0.2222
15756TIP3    H168683   6.689   2.927  12.137  3.4604 -0.4871 -0.6276
15756TIP3    H268684   6.692   3.054  12.221 -1.6105 -0.8296  0.3992
15757TIP3   OH268685   2.844   1.897   2.468 -0.3819  0.3295 -1.1493
15757TIP3    H168686   2.771   1.958   2.475 -0.0493  0.8129 -1.8642
15757TIP3    H268687   2.903   1.921   2.539 -0.3913  0.6516 -1.2513
15758TIP3   OH268688   1.677   6.420  15.857 -0.0450  0.6779  0.2567
15758TIP3    H168689   1.715   6.500  15.893 -2.6262  1.3687  1.6571
15758TIP3    H268690   1.680   6.433  15.762  1.0931  1.6736  0.4012
15759TIP3   OH268691   6.530   4.331  11.762  0.6209  0.1152  0.5731
15759TIP3    H168692   6.545   4.404  11.702 -0.5614  0.9052  1.2038
15759TIP3    H268693   6.577   4.357  11.842  2.3633 -1.0234 -0.0137
15760TIP3   OH268694   2.747   4.191  14.796  0.1350 -0.0563 -0.5477
15760TIP3    H168695   2.810   4.120  14.810  1.7829  1.5982  0.9959
15760TIP3    H268696   2.747   4.240  14.879 -2.2430  0.7701 -0.9528
15761TIP3   OH268697   4.141   3.562  13.470  0.2511  0.2930 -0.8819
15761TIP3    H168698   4.160   3.474  13.439 -0.1179  0.3353 -1.2355
15761TIP3    H268699   4.046   3.563  13.484  0.2963  0.5378 -0.5810
15762TIP3   OH268700   3.562   3.695  16.830  0.4496  0.3116  0.4449
15762TIP3    H168701   3.627   3.763  16.809 -0.0537  1.2171  1.7107
15762TIP3    H268702   3.478   3.734  16.808  0.2016 -0.1559  0.5497
15763TIP3   OH268703   5.407   5.452  17.268 -0.1041  0.6838 -0.2492
15763TIP3    H168704   5.409   5.392  17.193 -1.9311 -0.4150  0.5167
15763TIP3    H268705   5.496   5.486  17.274  1.0005 -1.9083 -0.7713
15764TIP3   OH268706   4.929   2.625  11.148 -0.4964 -0.0203  0.2748
15764TIP3    H168707   5.012   2.586  11.119  0.2992 -1.3709  3.8935
15764TIP3    H268708   4.883   2.553  11.191 -1.3056  1.8342  2.6811
15765TIP3   OH268709   4.016   2.836   4.484  0.0458  1.0034  0.2492
15765TIP3    H168710   4.047   2.788   4.407 -1.3243  0.5757 -0.0705
15765TIP3    H268711   4.049   2.925   4.472 -0.4406  1.0287 -1.0249
15766TIP3   OH268712   1.414   1.894  16.068  0.1850  0.0740  0.1188
15766TIP3    H168713   1.442   1.962  16.129  1.9545 -0.3151 -0.2012
15766TIP3    H268714   1.441   1.812  16.109 -0.5134 -0.3348 -0.2196
15767TIP3   OH268715   2.337   1.608   5.708 -0.5505 -0.5052 -0.4127
15767TIP3    H168716   2.358   1.522   5.744 -1.1627 -0.6478 -0.3969
15767TIP3    H268717   2.259   1.636   5.755 -0.1023  0.2626 -0.1032
15768TIP3   OH268718   0.896   3.947  14.305 -0.2683  0.0877  0.2211
15768TIP3    H168719   0.900   3.975  14.397  3.0891  1.4017 -0.1649
15768TIP3    H268720   0.841   4.012  14.262  1.0688  1.6115  0.7291
15769TIP3   OH268721   0.002   0.850   5.183 -0.1665  0.0488  0.9578
15769TIP3    H168722   0.052   0.894   5.114  0.2266  0.5178  1.5257
15769TIP3    H268723  -0.082   0.829   5.142  0.2542 -0.1642  0.1829
15770TIP3   OH268724   3.937   2.813  16.206  0.7123 -0.0622  0.0660
15770TIP3    H168725   3.885   2.873  16.153  0.1529 -0.2120  0.4419
15770TIP3    H268726   3.959   2.862  16.285  0.7857 -0.1378  0.0931
15771TIP3   OH268727   6.650   0.641   0.389 -0.3317 -1.0470 -0.3181
15771TIP3    H168728   6.660   0.695   0.311  3.6336 -0.4343  0.4050
15771TIP3    H268729   6.612   0.559   0.357 -0.4361 -0.1957 -2.5565
15772TIP3   OH268730   4.290   4.201  12.493  0.0720 -0.2381 -0.3539
15772TIP3    H168731   4.348   4.264  12.452 -1.5926  1.0744 -0.8211
15772TIP3    H268732   4.233   4.253  12.549 -1.0693 -1.3730 -0.4050
15773TIP3   OH268733   1.785   4.979   1.314  0.6175 -0.5310 -0.0087
15773TIP3    H168734   1.878   4.996   1.329  0.3062  0.2173  1.1874
15773TIP3    H268735   1.749   5.063   1.286  0.5464 -1.1489 -1.8893
15774TIP3   OH268736   4.369   4.410   1.990 -0.1239  0.8799 -0.5213
15774TIP3    H168737   4.372   4.327   2.037 -0.3903  0.0402 -1.9363
15774TIP3    H268738   4.301   4.461   2.035  0.4779  0.6013  0.7480
15775TIP3   OH268739   1.505   5.771  16.893  0.3607 -0.2655 -0.5192
15775TIP3    H168740   1.463   5.706  16.837 -0.5160  0.4476 -0.7274
15775TIP3    H268741   1.529   5.842  16.833  2.2421 -0.8190 -0.4600
15776TIP3   OH268742   5.259   1.207   2.936 -0.2806 -0.2679  0.2425
15776TIP3    H168743   5.190   1.149   2.905 -0.1215 -0.9775  1.2092
15776TIP3    H268744   5.334   1.187   2.879 -0.2064 -1.0602  0.6084
15777TIP3   OH268745   5.688   2.752   4.357  0.0213 -0.4409  0.1473
15777TIP3    H168746   5.719   2.823   4.302  0.2943 -0.5936  0.1009
15777TIP3    H268747   5.633   2.794   4.423 -0.7766 -0.3174 -0.5784
15778TIP3   OH268748   2.602   2.425   5.390  0.7624  0.1999  0.1498
15778TIP3    H168749   2.544   2.478   5.444  0.0968 -0.6250  0.2570
15778TIP3    H268750   2.668   2.391   5.451 -0.0576 -0.8304  0.5025
15779TIP3   OH268751   5.336   0.576   2.499  0.5714 -0.0435  0.6147
15779TIP3    H168752   5.242   0.583   2.515  0.4853  1.1744 -0.2091
15779TIP3    H268753   5.343   0.516   2.424  0.3941  0.3426  0.2840
15780TIP3   OH268754   4.749   0.620   5.679 -0.1871 -0.2285  0.3140
15780TIP3    H168755   4.728   0.581   5.763  0.9876 -0.4149  0.5375
15780TIP3    H268756   4.835   0.661   5.692 -0.4281  0.5826 -0.5169
15781TIP3   OH268757   2.568   3.114   2.676  0.1659 -0.2576  0.3329
15781TIP3    H168758   2.545   3.170   2.751  3.1377 -0.0284  1.1965
15781TIP3    H268759   2.555   3.025   2.709  0.1860 -0.1437  0.6598
15782TIP3   OH268760   4.324   0.552  13.930  0.0085  0.0002 -0.0941
15782TIP3    H168761   4.321   0.494  13.854 -1.7927 -0.6814  0.4226
15782TIP3    H268762   4.290   0.635  13.898 -1.2085 -0.4222  0.0186
15783TIP3   OH268763   6.079   3.314  16.025 -0.1884  0.3633 -0.5455
15783TIP3    H168764   6.016   3.293  15.956  0.5169  0.7954 -1.3609
15783TIP3    H268765   6.098   3.231  16.067 -0.7962  0.1252 -0.7365
15784TIP3   OH268766   1.549   3.167   5.595  0.4837 -0.0924  0.1004
15784TIP3    H168767   1.587   3.193   5.679 -2.1345  0.2041  1.2873
15784TIP3    H268768   1.549   3.248   5.543 -0.8806  0.5934  1.0859
15785TIP3   OH268769   4.687   1.584  15.852 -0.1968  0.0725 -0.3899
15785TIP3    H168770   4.592   1.590  15.861 -0.0680 -0.3885  2.2072
15785TIP3    H268771   4.718   1.674  15.861 -0.3319  0.0474  0.4595
15786TIP3   OH268772   0.650   0.917  12.826 -0.2447  0.1853  0.0700
15786TIP3    H168773   0.732   0.943  12.785 -0.6126  0.2914 -0.6128
15786TIP3    H268774   0.667   0.828  12.858 -0.1486 -0.1525 -0.8901
15787TIP3   OH268775   0.386   5.160   0.433 -0.0592  0.0116 -0.3243
15787TIP3    H168776   0.342   5.196   0.355 -0.7256  0.7482  0.3754
15787TIP3    H268777   0.344   5.075   0.447 -1.7145  0.9448  0.6651
15788TIP3   OH268778   5.082   6.116   2.355  0.0924  0.0690  0.1423
15788TIP3    H168779   5.149   6.134   2.289  2.5360 -0.6198  2.2180
15788TIP3    H268780   5.077   6.021   2.359 -0.9291  0.1124  0.1333
15789TIP3   OH268781   5.514   3.223  15.897  0.1823 -0.7362 -0.4247
15789TIP3    H168782   5.428   3.265  15.888 -1.2403 -3.5129 -1.2515
15789TIP3    H268783   5.525   3.212  15.992 -0.7303 -0.9714 -0.3338
15790TIP3   OH268784   1.261   2.839  14.578 -0.4882 -0.1329 -0.0778
15790TIP3    H168785   1.307   2.865  14.658 -0.9492  0.5320 -0.0183
15790TIP3    H268786   1.283   2.747  14.567  0.8329  0.1602 -0.0436
15791TIP3   OH268787   1.897   1.494   0.811 -0.3853 -0.1078  0.2286
15791TIP3    H168788   1.891   1.405   0.777 -0.8680  0.6164 -1.7223
15791TIP3    H268789   1.806   1.524   0.817 -0.2306  0.2342  0.9375
15792TIP3   OH268790   2.171   5.303  13.178 -0.2186 -0.2672  0.2000
15792TIP3    H168791   2.154   5.211  13.201  2.0409 -0.5722  0.8899
15792TIP3    H268792   2.160   5.306  13.083 -1.8606 -0.8500  0.3322
15793TIP3   OH268793   2.620   2.861   0.014 -0.0111 -0.9199  0.5334
15793TIP3    H168794   2.600   2.876   0.107  0.5963  1.0314  0.4035
15793TIP3    H268795   2.535   2.854  -0.028 -0.2942 -1.7905  1.2180
15794TIP3   OH268796   6.380   6.440   4.454  0.2381  0.2799 -0.6195
15794TIP3    H168797   6.286   6.451   4.469  0.4652  1.2536  0.2199
15794TIP3    H268798   6.389   6.352   4.418 -0.9472 -0.0022 -0.2512
15795TIP3   OH268799   2.758   3.872  11.591  0.0659 -0.1308 -0.1836
15795TIP3    H168800   2.723   3.892  11.504 -1.9627  0.2885  0.6755
15795TIP3    H268801   2.809   3.950  11.615 -2.1135  1.2344  0.3058
15796TIP3   OH268802   1.642   0.514   4.683 -0.0167 -0.2078 -0.3357
15796TIP3    H168803   1.655   0.424   4.711 -1.1101 -0.4007 -0.4246
15796TIP3    H268804   1.563   0.512   4.628 -0.0649  0.8008 -0.3318
15797TIP3   OH268805   5.483   3.344   2.199 -0.4259  0.4513 -0.4373
15797TIP3    H168806   5.531   3.324   2.119 -0.1050  0.5642 -0.2778
15797TIP3    H268807   5.532   3.300   2.268 -2.7483 -2.8319 -0.6736
15798TIP3   OH268808   2.341   2.361  11.781 -0.1686  0.1036  0.1298
15798TIP3    H168809   2.275   2.415  11.825 -1.5794 -1.3394 -0.1416
15798TIP3    H268810   2.376   2.305  11.850  1.1904  1.1961  0.3782
15799TIP3   OH268811   2.557   1.967  13.911  0.0352 -0.1902 -0.0623
15799TIP3    H168812   2.634   1.999  13.863  0.8701 -0.5179  1.0068
15799TIP3    H268813   2.497   1.937  13.843  0.9911 -0.2257 -0.9158
15800TIP3   OH268814   1.741   4.662  14.344  0.0808  0.3794 -1.0152
15800TIP3    H168815   1.725   4.750  14.311 -1.0056  0.3730 -0.5229
15800TIP3    H268816   1.674   4.648  14.410  0.8375 -0.4614 -0.3935
15801TIP3   OH268817   6.367   1.603  10.832 -0.3579 -0.6834 -0.0820
15801TIP3    H168818   6.276   1.596  10.803 -0.3251 -1.3870 -0.0412
15801TIP3    H268819   6.404   1.516  10.817 -0.0717 -0.8016  1.1519
15802TIP3   OH268820   4.510   2.799  12.445  0.0949  0.3870  0.3940
15802TIP3    H168821   4.554   2.714  12.435 -1.2060 -0.2222 -0.4638
15802TIP3    H268822   4.423   2.785  12.407 -0.5908  1.7511  1.3767
15803TIP3   OH268823   2.140   3.305  14.458 -0.5823  0.0858  0.1706
15803TIP3    H168824   2.061   3.251  14.448 -0.1965 -0.5428  0.4081
15803TIP3    H268825   2.205   3.245  14.496 -0.7591  1.2717  2.5281
15804TIP3   OH268826   4.172   1.811   4.875  0.5228  0.2238  0.4129
15804TIP3    H168827   4.126   1.806   4.791  0.1038  1.5259  0.5554
15804TIP3    H268828   4.152   1.728   4.918 -0.3886  0.1166 -0.1979
15805TIP3   OH268829   2.956   5.152  15.131 -0.4171 -0.7464 -0.1909
15805TIP3    H168830   2.979   5.216  15.198 -1.2630 -1.0931  0.4580
15805TIP3    H268831   2.932   5.204  15.055 -0.6995 -0.3032  0.1945
15806TIP3   OH268832   0.965   0.262   5.525  0.1107  0.4568 -0.3292
15806TIP3    H168833   1.027   0.238   5.594 -0.5100 -1.4568 -0.3813
15806TIP3    H268834   1.003   0.340   5.484  1.7467  0.1539  0.5495
15807TIP3   OH268835   6.427   6.563  12.409  0.1989  0.6853  0.1243
15807TIP3    H168836   6.375   6.535  12.334 -0.1415  1.3984  0.0809
15807TIP3    H268837   6.362   6.578  12.478  0.7564 -3.8076  1.9195
15808TIP3   OH268838   0.716   6.359  16.722 -0.1205 -0.4734 -0.0687
15808TIP3    H168839   0.712   6.314  16.638  0.1586 -0.5615 -0.0327
15808TIP3    H268840   0.752   6.445  16.702  0.5417 -0.7199  0.0573
15809TIP3   OH268841   4.303   4.695   5.142 -0.2599 -0.3667 -0.3223
15809TIP3    H168842   4.263   4.698   5.055  0.9189 -1.0593 -0.9130
15809TIP3    H268843   4.371   4.762   5.139  1.0075 -1.6137 -0.5997
15810TIP3   OH268844   1.252   0.103   3.714 -0.1445  0.2485  0.1828
15810TIP3    H168845   1.288   0.105   3.803  0.0601  0.3192  0.0977
15810TIP3    H268846   1.223   0.192   3.698 -0.6546  0.1219  0.3717
15811TIP3   OH268847   3.343   5.460  16.943  0.1616 -0.1793  0.3759
15811TIP3    H168848   3.284   5.397  16.984 -0.2597 -0.2374 -0.3005
15811TIP3    H268849   3.299   5.485  16.862  1.1836 -0.4504 -0.2923
15812TIP3   OH268850   3.861   0.623  13.904  0.1099 -0.0821 -0.5166
15812TIP3    H168851   3.900   0.679  13.971  1.7234  0.3760 -1.7866
15812TIP3    H268852   3.807   0.682  13.852 -0.7789 -0.3561  0.0580
15813TIP3   OH268853   0.478   6.410  13.144  0.5589  0.1426  0.3759
15813TIP3    H168854   0.461   6.324  13.181  1.4533 -0.6427 -0.9529
15813TIP3    H268855   0.573   6.414  13.134  0.5370  1.3091  0.4553
15814TIP3   OH268856   3.364   5.996  13.807  0.2351 -0.3984 -0.3912
15814TIP3    H168857   3.403   5.971  13.891  0.8223  0.4233 -0.4142
15814TIP3    H268858   3.408   5.941  13.742  0.9066  0.0732 -0.3403
15815TIP3   OH268859   6.707   2.541  15.658  0.1496  0.1147  0.0821
15815TIP3    H168860   6.622   2.498  15.670 -0.0636  0.9417  1.9645
15815TIP3    H268861   6.771   2.472  15.678 -0.0526 -0.4681 -1.1867
15816TIP3   OH268862   0.591   2.780   1.921  0.2147  0.1025 -0.0213
15816TIP3    H168863   0.666   2.840   1.917  1.6136 -1.5695 -0.3667
15816TIP3    H268864   0.569   2.763   1.829 -1.2431  1.2957  0.0716
15817TIP3   OH268865   2.771   2.556  17.290  0.5980  0.0185  0.4720
15817TIP3    H168866   2.682   2.589  17.299  1.0010  0.9052  1.5098
15817TIP3    H268867   2.777   2.527  17.199  0.1504  2.6796 -0.4829
15818TIP3   OH268868   1.370   2.197   4.803  0.6166  0.0766  0.0937
15818TIP3    H168869   1.378   2.279   4.754  0.1901 -0.5461 -1.0652
15818TIP3    H268870   1.439   2.141   4.767  0.5138 -0.2808  0.4449
15819TIP3   OH268871   3.633   0.791  13.232  0.1023 -0.1838 -0.1064
15819TIP3    H168872   3.556   0.787  13.175 -0.2645 -0.6017  0.4098
15819TIP3    H268873   3.601   0.838  13.310 -0.6547 -3.3589  1.6540
15820TIP3   OH268874   4.058   1.674   4.659  0.0086 -0.2010 -0.0027
15820TIP3    H168875   3.990   1.627   4.611 -0.0465  1.3029 -1.4864
15820TIP3    H268876   4.136   1.620   4.649 -0.8668 -1.8755  1.5979
15821TIP3   OH268877   3.262   1.376   0.232  0.1683 -0.1289 -0.5264
15821TIP3    H168878   3.210   1.308   0.274  0.5642  1.3510  2.6581
15821TIP3    H268879   3.352   1.356   0.255  0.3584  0.9985 -0.2168
15822TIP3   OH268880   0.547   6.086   3.710  0.4631 -0.0787  0.1825
15822TIP3    H168881   0.480   6.117   3.771 -0.2313  0.4510 -0.8134
15822TIP3    H268882   0.553   5.992   3.725  2.4833  0.3761  3.1578
15823TIP3   OH268883   1.811   2.593   5.480  0.5551  0.0138 -0.1333
15823TIP3    H168884   1.747   2.624   5.417  0.2334  0.0985  0.2311
15823TIP3    H268885   1.759   2.559   5.553  0.9196  0.0453  0.1473
15824TIP3   OH268886   5.791   5.195  15.621  0.2574  0.1992 -0.3489
15824TIP3    H168887   5.835   5.200  15.536  0.5296 -1.5246 -0.3595
15824TIP3    H268888   5.860   5.213  15.685  0.7150 -1.1856 -0.4174
15825TIP3   OH268889   5.525   3.510  16.735  0.8336 -0.3427  0.1673
15825TIP3    H168890   5.495   3.441  16.795  1.6632 -0.5939  0.3134
15825TIP3    H268891   5.584   3.563  16.788  1.2035 -0.2862 -0.2911
15826TIP3   OH268892   0.614   5.842   4.993  0.3279 -0.0103  0.0764
15826TIP3    H168893   0.593   5.928   5.030 -1.6431 -0.8719  1.0901
15826TIP3    H268894   0.587   5.849   4.901 -0.4781  0.2325  0.3283
15827TIP3   OH268895   3.480   0.744  12.946  0.6140 -0.3855 -0.4726
15827TIP3    H168896   3.446   0.654  12.953  1.4587 -0.6600  0.3396
15827TIP3    H268897   3.407   0.799  12.972  0.4174 -0.9082  0.1173
15828TIP3   OH268898   0.433   1.772   3.520  0.0745  0.2459  0.1462
15828TIP3    H168899   0.479   1.730   3.592  0.9213  2.0517  0.7123
15828TIP3    H268900   0.424   1.863   3.547 -2.4002  0.3236 -0.6765
15829TIP3   OH268901   5.387   5.948   3.059  0.6977 -0.3066  0.2075
15829TIP3    H168902   5.480   5.947   3.082  0.5762 -0.5604  0.7051
15829TIP3    H268903   5.376   5.873   3.000  0.5908 -0.9973  1.0730
15830TIP3   OH268904   6.072   5.017  14.618 -0.4287 -0.2073 -0.1414
15830TIP3    H168905   6.126   5.025  14.697 -0.2381 -0.7083 -0.2148
15830TIP3    H268906   6.059   5.107  14.589  1.2587 -0.1093 -0.7114
15831TIP3   OH268907   4.855   4.968  10.677  0.5064  0.1351 -0.5605
15831TIP3    H168908   4.796   5.023  10.624  0.6942 -0.5268 -1.4898
15831TIP3    H268909   4.943   4.996  10.651  0.6696  1.6299  1.3514
15832TIP3   OH268910   2.411   4.839   1.270  0.2601 -0.0522  0.2719
15832TIP3    H168911   2.460   4.885   1.201 -0.5374  1.3189  0.5898
15832TIP3    H268912   2.376   4.909   1.325 -0.7243 -1.0697  0.9710
15833TIP3   OH268913   1.069   3.564  13.955  0.1521 -0.3640 -0.1441
15833TIP3    H168914   1.042   3.586  14.044 -2.1586 -2.0476 -0.3249
15833TIP3    H268915   1.163   3.549  13.962  0.5427  2.1387  1.3959
15834TIP3   OH268916   0.648   5.715  13.379  0.6789 -0.3817 -0.1978
15834TIP3    H168917   0.738   5.724  13.411  1.0001 -0.8793 -0.9270
15834TIP3    H268918   0.658   5.714  13.283 -0.3127  2.0267 -0.4068
15835TIP3   OH268919   3.660   0.871  11.442 -0.0477  0.4025  0.5596
15835TIP3    H168920   3.597   0.847  11.510  1.5591 -0.5942  1.7920
15835TIP3    H268921   3.637   0.961  11.419 -1.6351  0.2092  1.2557
15836TIP3   OH268922   0.831   1.014  17.228  0.0810  0.3712  0.1511
15836TIP3    H168923   0.782   0.959  17.290  1.7801  0.1924  1.4088
15836TIP3    H268924   0.909   0.963  17.207  0.3186  1.1311 -0.8890
15837TIP3   OH268925   3.366   3.861  11.446  0.0045  0.1189 -0.3023
15837TIP3    H168926   3.307   3.820  11.509  0.0049  0.2871 -0.1907
15837TIP3    H268927   3.347   3.955  11.453  0.4295  0.1908 -0.1214
15838TIP3   OH268928   5.799   6.373  12.290  0.3657  0.1702 -0.2480
15838TIP3    H168929   5.727   6.330  12.337  0.0043  0.9780 -0.0395
15838TIP3    H268930   5.836   6.434  12.354  0.8227  0.2236 -0.5609
15839TIP3   OH268931   3.092   3.091  16.003 -0.1119 -0.1612  0.2864
15839TIP3    H168932   3.046   3.109  16.085  0.8991  1.3658  0.5590
15839TIP3    H268933   3.185   3.094  16.027  0.2457  1.5740 -1.1149
15840TIP3   OH268934   4.714   1.236  14.250 -0.1833 -0.2427 -0.1561
15840TIP3    H168935   4.673   1.264  14.332  0.3723 -0.5608  0.2416
15840TIP3    H268936   4.725   1.141  14.260  0.9185 -0.1272 -0.1120
15841TIP3   OH268937   0.501   4.885   4.722 -0.1352  0.1417 -0.2082
15841TIP3    H168938   0.432   4.928   4.773  0.8600 -1.0605  2.3323
15841TIP3    H268939   0.555   4.957   4.689 -0.1166  0.9953  1.5562
15842TIP3   OH268940   2.563   6.718  13.545 -0.0909  0.0855  0.0490
15842TIP3    H168941   2.530   6.640  13.591 -1.2201  0.2400 -0.4767
15842TIP3    H268942   2.511   6.790  13.579 -0.2021  0.3609 -0.6882
15843TIP3   OH268943   1.989   3.366   6.159  0.1831  0.4218 -0.4638
15843TIP3    H168944   1.939   3.285   6.167  1.7714 -0.5578  0.0593
15843TIP3    H268945   2.080   3.337   6.152  1.2069  2.2087  3.0469
15844TIP3   OH268946   5.117   3.036  12.686 -0.0687  0.5244 -0.2403
15844TIP3    H168947   5.049   2.969  12.677  1.1843 -0.7998 -0.3378
15844TIP3    H268948   5.113   3.062  12.778  0.0292 -0.4089  0.0473
15845TIP3   OH268949   3.832   1.605  12.851  0.1296  0.1682  0.5408
15845TIP3    H168950   3.847   1.570  12.939 -0.6558  0.2450  0.7208
15845TIP3    H268951   3.824   1.700  12.864  2.9380  0.5594 -0.0387
15846TIP3   OH268952   4.799   4.160   1.765  0.2849 -0.4903  0.0202
15846TIP3    H168953   4.711   4.196   1.754 -0.9871 -2.9614  1.2277
15846TIP3    H268954   4.803   4.086   1.704  0.5434 -1.9367  1.7038
15847TIP3   OH268955   6.612   5.555  17.264 -0.0298 -0.3001  0.3591
15847TIP3    H168956   6.663   5.549  17.345 -1.2921 -0.0200  1.2059
15847TIP3    H268957   6.639   5.638  17.225 -2.5933  1.8844  2.8292
15848TIP3   OH268958   1.265   2.266  13.183  0.1506 -0.6064  0.4204
15848TIP3    H168959   1.295   2.309  13.263  1.1047 -0.6494  0.0880
15848TIP3    H268960   1.194   2.322  13.151  0.6061  0.0892  0.6157
15849TIP3   OH268961   0.495   2.370   0.588  0.2083 -0.7198  0.3691
15849TIP3    H168962   0.524   2.324   0.510  1.1562 -0.7246  0.7136
15849TIP3    H268963   0.508   2.463   0.569 -0.1045 -0.6879  0.3070
15850TIP3   OH268964   1.123   4.421   6.124  0.1197 -0.0709 -0.0408
15850TIP3    H168965   1.134   4.364   6.200  2.4261  0.4001  0.0550
15850TIP3    H268966   1.192   4.395   6.064  0.2487  1.5760 -0.6658
15851TIP3   OH268967   0.989   1.669  13.572 -0.5903  0.3152  0.8917
15851TIP3    H168968   1.073   1.710  13.589 -1.1133  1.5823  0.5498
15851TIP3    H268969   0.924   1.737  13.593 -1.4759 -0.2543  0.1119
15852TIP3   OH268970   6.507   5.466  11.163 -0.1335 -0.2399 -0.0209
15852TIP3    H168971   6.497   5.380  11.122  0.6780 -0.3353 -0.0204
15852TIP3    H268972   6.559   5.516  11.101 -0.9035  0.3699 -0.1823
15853TIP3   OH268973   0.173   2.916  11.643 -0.3147 -0.3405 -0.4595
15853TIP3    H168974   0.105   2.946  11.703 -0.6287  0.4609 -1.2065
15853TIP3    H268975   0.250   2.905  11.699 -1.1742 -1.7985  0.5014
15854TIP3   OH268976   1.318   4.554   0.639  0.2049 -0.5326 -0.2572
15854TIP3    H168977   1.268   4.590   0.713  1.0142  0.9552 -0.3929
15854TIP3    H268978   1.276   4.471   0.620  0.2253 -1.1568  2.1442
15855TIP3   OH268979   6.729   4.088   5.205 -0.2898 -0.1143  0.0282
15855TIP3    H168980   6.785   4.165   5.204 -0.1118 -0.1716  1.9348
15855TIP3    H268981   6.640   4.123   5.202 -0.2179  0.0236 -1.6550
15856TIP3   OH268982   4.016   0.771  11.498  0.3947  0.4139 -0.0224
15856TIP3    H168983   4.102   0.807  11.520  1.1532 -0.8638 -0.7522
15856TIP3    H268984   3.996   0.711  11.570  1.9775 -2.2694 -1.6337
15857TIP3   OH268985   3.023   3.842   4.529 -0.8944  0.3519 -0.0480
15857TIP3    H168986   2.941   3.837   4.480 -1.0536 -0.9637  0.3306
15857TIP3    H268987   3.090   3.822   4.465 -1.0407 -0.5920  0.0832
15858TIP3   OH268988   1.742   5.987  10.850 -0.5267  0.0278  0.2407
15858TIP3    H168989   1.831   5.975  10.884 -0.9219  0.0649  1.3220
15858TIP3    H268990   1.697   5.906  10.872 -1.1404  0.5517  0.9262
15859TIP3   OH268991   3.874   0.749   6.148 -0.3013  0.1076  0.1799
15859TIP3    H168992   3.910   0.699   6.075 -2.5198  1.4938 -2.0462
15859TIP3    H268993   3.844   0.683   6.211 -1.2048 -1.3478 -1.6706
15860TIP3   OH268994   4.128   6.414  13.656  0.2090  0.5792  0.0335
15860TIP3    H168995   4.167   6.332  13.685 -1.7489 -0.6603 -0.5962
15860TIP3    H268996   4.186   6.446  13.588  0.6462 -0.6684 -0.2076
15861TIP3   OH268997   3.097   2.698  12.351 -0.2079 -0.3988  0.0612
15861TIP3    H168998   3.141   2.772  12.310 -0.9085 -0.2878 -0.5074
15861TIP3    H268999   3.100   2.717  12.445 -0.5193  0.4299 -0.0903
15862TIP3   OH269000   4.537   4.953  10.819  0.0948 -0.0491 -0.4023
15862TIP3    H169001   4.576   5.023  10.767  3.2700 -0.9589  0.4725
15862TIP3    H269002   4.519   4.994  10.904  0.7384  0.0231 -0.2955
15863TIP3   OH269003   5.883   5.470  13.127  0.0018 -0.0624  0.4537
15863TIP3    H169004   5.869   5.429  13.042  2.0498 -0.2187  0.1471
15863TIP3    H269005   5.795   5.475  13.166 -1.2483  1.4973 -2.2906
15864TIP3   OH269006   3.278   4.744   4.600 -0.8872 -0.5254 -0.0061
15864TIP3    H169007   3.263   4.651   4.580 -0.1567 -0.7333  0.3959
15864TIP3    H269008   3.193   4.775   4.631 -1.1806 -1.0173 -0.2839
15865TIP3   OH269009   2.317   4.979  11.475  0.3351 -0.2356 -0.4554
15865TIP3    H169010   2.240   4.940  11.516 -0.6225  0.7612 -1.2601
15865TIP3    H269011   2.321   5.067  11.511  1.0931 -0.2580 -0.4606
15866TIP3   OH269012   2.786   1.313   3.932 -0.7675  0.0867 -0.0520
15866TIP3    H169013   2.725   1.321   4.005 -2.0480  1.1835 -1.1846
15866TIP3    H269014   2.844   1.388   3.941 -0.8638  0.1689 -0.1312
15867TIP3   OH269015   5.334   3.127   2.146  0.3793  0.0956  0.3129
15867TIP3    H169016   5.400   3.171   2.198  1.8505  0.2849 -1.6158
15867TIP3    H269017   5.290   3.068   2.207 -0.5848  2.9590  2.6021
15868TIP3   OH269018   5.413   4.414  12.616 -0.6437 -0.3721 -0.0669
15868TIP3    H169019   5.457   4.330  12.632  0.6694  0.2992  0.0138
15868TIP3    H269020   5.346   4.394  12.550  0.0954 -1.3503 -0.5460
15869TIP3   OH269021   6.186   1.118  16.363  0.2836 -0.0578 -0.2905
15869TIP3    H169022   6.241   1.192  16.337  1.9950 -0.8660  0.8691
15869TIP3    H269023   6.161   1.138  16.454 -0.5450 -0.1825 -0.4817
15870TIP3   OH269024   3.824   1.403   5.130  0.1866 -0.3337 -0.2770
15870TIP3    H169025   3.822   1.307   5.134  0.9926 -0.3463 -0.0505
15870TIP3    H269026   3.909   1.423   5.091  1.4537  0.3693  2.6106
15871TIP3   OH269027   2.021   0.501   2.110 -0.4208  0.4348  0.4147
15871TIP3    H169028   2.109   0.463   2.110  0.0969  1.5800  0.3207
15871TIP3    H269029   1.962   0.426   2.103  0.4849 -0.4903  2.0850
15872TIP3   OH269030   0.565   6.692   0.737 -0.2669 -0.4267 -0.0346
15872TIP3    H169031   0.614   6.700   0.819  0.3209  0.4966 -0.4484
15872TIP3    H269032   0.488   6.641   0.759  0.1023 -0.5577  0.9972
15873TIP3   OH269033   4.685   1.904  12.364 -0.4442  0.5730 -0.0095
15873TIP3    H169034   4.600   1.948  12.362 -0.5579  0.3330 -0.7274
15873TIP3    H269035   4.672   1.823  12.316 -0.0681  0.0393  0.7635
15874TIP3   OH269036   1.367   6.704  17.031  0.0091 -0.5536 -0.0643
15874TIP3    H169037   1.448   6.653  17.037  0.7943  0.6177 -0.4132
15874TIP3    H269038   1.339   6.715  17.121  0.2177 -0.9976  0.0588
15875TIP3   OH269039   4.214   5.988   4.064 -0.0002 -0.3217  0.0205
15875TIP3    H169040   4.292   5.936   4.043 -0.0773 -0.6291  0.4785
15875TIP3    H269041   4.218   6.063   4.004 -0.2827 -1.2295 -1.1686
15876TIP3   OH269042   1.642   6.063  11.186  0.0791  0.5171  0.7447
15876TIP3    H169043   1.609   6.124  11.120  1.3692  2.4542  1.7823
15876TIP3    H269044   1.733   6.048  11.161 -0.0123 -0.4346  0.9278
15877TIP3   OH269045   3.043   5.226  14.854 -0.0098 -0.1756  0.1605
15877TIP3    H169046   3.079   5.198  14.769  0.0754  0.7258 -0.1134
15877TIP3    H269047   3.080   5.313  14.867 -2.0576  0.7922 -0.1170
15878TIP3   OH269048   1.393   0.496   3.127 -0.6242  0.0043 -0.3939
15878TIP3    H169049   1.444   0.458   3.198 -0.5710 -0.5435 -0.7168
15878TIP3    H269050   1.353   0.574   3.165 -0.0477  0.0949  0.0391
15879TIP3   OH269051   2.426   3.620  12.985 -0.0286 -0.3864  0.1418
15879TIP3    H169052   2.400   3.613  12.893 -0.5041 -2.0546  0.3562
15879TIP3    H269053   2.397   3.537  13.024  0.1593  0.2860  1.7990
15880TIP3   OH269054   1.455   2.756   3.772 -0.3617  0.1546  0.6930
15880TIP3    H169055   1.458   2.847   3.743 -0.1192  0.3884  1.4410
15880TIP3    H269056   1.506   2.755   3.853 -0.9546 -0.5124  1.0629
15881TIP3   OH269057   0.335   2.394   4.655 -0.6444 -0.4833  0.1707
15881TIP3    H169058   0.349   2.471   4.710 -0.2999 -0.4283  0.0079
15881TIP3    H269059   0.308   2.325   4.716  0.8108 -0.7323  0.5803
15882TIP3   OH269060   1.722   5.578   2.962  0.4283 -0.0258 -0.0310
15882TIP3    H169061   1.685   5.524   3.032  1.3534  0.9182  1.2309
15882TIP3    H269062   1.816   5.566   2.969  0.5474  0.2769 -0.9724
15883TIP3   OH269063   3.608   4.307  15.999 -0.0081 -0.0109 -0.2443
15883TIP3    H169064   3.603   4.213  15.983  0.5484 -0.3807  1.5041
15883TIP3    H269065   3.517   4.337  15.994 -0.2838 -0.7853 -0.0755
15884TIP3   OH269066   1.914   2.482  12.214 -0.2104 -0.0315 -0.2111
15884TIP3    H169067   1.969   2.424  12.162  3.4111  2.7202  0.1424
15884TIP3    H269068   1.947   2.472  12.304 -0.1194  1.8199 -0.0030
15885TIP3   OH269069   3.825   4.915   0.781 -0.1672 -0.4978  0.2334
15885TIP3    H169070   3.758   4.937   0.716  0.1897  1.4445  0.4659
15885TIP3    H269071   3.849   4.824   0.761 -3.1933 -1.4757  0.4405
15886TIP3   OH269072   1.842   2.932  10.980  0.0090 -0.0385 -0.2726
15886TIP3    H169073   1.874   2.948  10.892  1.3936 -0.1183  0.1999
15886TIP3    H269074   1.907   2.972  11.038 -1.8621  1.7906  0.7214
15887TIP3   OH269075   0.349   5.225  12.481  0.9717  0.0185  0.4270
15887TIP3    H169076   0.355   5.146  12.428  0.5081  0.2316  0.0539
15887TIP3    H269077   0.430   5.273  12.462  0.5381  0.3767 -0.5448
15888TIP3   OH269078   3.272   4.105  11.553 -0.8045 -0.6151  0.0374
15888TIP3    H169079   3.276   4.174  11.620 -0.1847 -0.8016  0.2010
15888TIP3    H269080   3.199   4.050  11.580 -1.4251  0.0787 -0.1990
15889TIP3   OH269081   1.566   2.340   2.995 -0.2911 -0.0619 -0.1824
15889TIP3    H169082   1.652   2.336   3.037  0.2295  0.4529 -1.1748
15889TIP3    H269083   1.540   2.432   3.001  0.1721  0.1938 -1.6926
15890TIP3   OH269084   4.522   3.552  10.941  0.1943 -0.7215  0.0662
15890TIP3    H169085   4.554   3.465  10.917 -0.1280 -0.6061 -0.7911
15890TIP3    H269086   4.505   3.595  10.858 -2.0320 -0.7149  0.4614
15891TIP3   OH269087   3.841   3.079   4.487 -0.6034 -0.5932 -0.7961
15891TIP3    H169088   3.917   3.135   4.502 -0.2865 -1.2382  0.1399
15891TIP3    H269089   3.874   3.007   4.433 -0.5796 -0.7880 -0.5261
15892TIP3   OH269090   6.348   0.555   2.668 -0.2631  0.4186  0.4463
15892TIP3    H169091   6.444   0.549   2.668 -0.0577  2.8165  0.0991
15892TIP3    H269092   6.328   0.605   2.747 -0.8943  3.0282 -1.2511
15893TIP3   OH269093   5.464   0.826   4.424 -0.1099  0.0930  0.1298
15893TIP3    H169094   5.393   0.819   4.359 -1.1988  0.5686  1.2403
15893TIP3    H269095   5.520   0.896   4.390 -0.7938  0.4964 -0.1807
15894TIP3   OH269096   1.970   5.879  14.646  0.4171 -0.0354  0.5325
15894TIP3    H169097   1.964   5.924  14.730  1.6287 -1.0735  1.2239
15894TIP3    H269098   2.029   5.805  14.663  1.2980  0.1483 -1.4033
15895TIP3   OH269099   3.201   1.437   5.998  0.1274 -0.2769  0.0890
15895TIP3    H169100   3.229   1.369   6.059  1.5247 -0.2032 -0.4125
15895TIP3    H269101   3.252   1.514   6.023  1.0089 -0.3470 -1.3639
15896TIP3   OH269102   3.405   1.557  14.164  0.1780 -0.3353 -0.6173
15896TIP3    H169103   3.495   1.583  14.180 -0.4293  0.8285  1.2374
15896TIP3    H269104   3.356   1.594  14.237 -2.0527  0.3042 -2.3326
15897TIP3   OH269105   5.861   6.009   5.509 -0.8445 -0.5751 -0.0851
15897TIP3    H169106   5.848   6.099   5.540 -1.6581 -0.3304 -1.0777
15897TIP3    H269107   5.833   5.954   5.582  1.0261 -0.0705  1.0919
15898TIP3   OH269108   2.449   1.329  16.219 -0.4045  0.4358 -0.0969
15898TIP3    H169109   2.436   1.251  16.166 -1.1679  0.4505  0.0551
15898TIP3    H269110   2.364   1.373  16.218  0.3323  1.9275 -1.2088
15899TIP3   OH269111   4.261   1.927   0.212 -0.1747 -0.4476  0.2490
15899TIP3    H169112   4.196   1.857   0.197 -1.0712  0.6219 -1.0909
15899TIP3    H269113   4.291   1.951   0.125 -0.5033  1.4053  0.6124
15900TIP3   OH269114   3.742   2.364  14.567  0.0889  0.0506 -0.0670
15900TIP3    H169115   3.661   2.314  14.560  0.2784 -0.2225 -0.3363
15900TIP3    H269116   3.795   2.318  14.632 -0.4491  0.9023  1.0055
15901TIP3   OH269117   4.847   4.036   1.056 -0.3090  0.1406  0.1072
15901TIP3    H169118   4.817   4.090   0.983 -3.0106 -1.8903 -0.4127
15901TIP3    H269119   4.811   4.079   1.134 -2.1499 -0.5967 -0.2780
15902TIP3   OH269120   5.370   3.355   0.361 -0.2461  0.5656  0.4755
15902TIP3    H169121   5.300   3.347   0.296 -0.7596 -2.2732  1.2430
15902TIP3    H269122   5.324   3.364   0.444  0.3685  1.4712  0.7284
15903TIP3   OH269123   0.669   4.714   1.116 -0.1179  0.0440 -0.2036
15903TIP3    H169124   0.628   4.631   1.093  1.5602 -1.0423  0.5334
15903TIP3    H269125   0.735   4.728   1.047 -0.0827  0.5412 -0.0772
15904TIP3   OH269126   3.507   3.322  12.629 -0.1872  0.6129 -0.0052
15904TIP3    H169127   3.587   3.335  12.578 -1.0323 -0.5522 -1.7066
15904TIP3    H269128   3.469   3.409  12.637  0.6109  0.9900 -0.2475
15905TIP3   OH269129   6.566   6.663   3.521 -0.1586  0.2549  0.6860
15905TIP3    H169130   6.550   6.758   3.524 -2.9138 -0.1222  0.6592
15905TIP3    H269131   6.590   6.646   3.430 -1.3830  0.7256  0.2568
15906TIP3   OH269132   5.050   2.045   4.125 -0.0388 -0.4707 -0.5238
15906TIP3    H169133   4.964   2.033   4.164 -0.4708 -0.4596 -1.4604
15906TIP3    H269134   5.036   2.104   4.052  1.3277  2.3936  1.3493
15907TIP3   OH269135   3.863   1.983   4.815  0.1890  0.1940 -0.4219
15907TIP3    H169136   3.946   1.963   4.772  1.0276  0.1835  1.1028
15907TIP3    H269137   3.885   1.986   4.909 -1.9892 -2.4195  0.3120
15908TIP3   OH269138   0.638   0.320   5.014  0.2209  0.3086  0.0332
15908TIP3    H169139   0.635   0.241   4.961  2.7594  0.4360 -0.4181
15908TIP3    H269140   0.546   0.338   5.037 -0.6685 -1.2189 -2.0860
15909TIP3   OH269141   1.339   4.187  15.841 -0.9221  0.2360 -0.3239
15909TIP3    H169142   1.263   4.166  15.896 -1.2586 -0.2882 -0.9782
15909TIP3    H269143   1.327   4.134  15.762  1.3991 -1.9015  0.5816
15910TIP3   OH269144   4.474   4.333  10.821 -0.5133  0.0276  0.3529
15910TIP3    H169145   4.399   4.388  10.843  1.6995  1.9705  3.9977
15910TIP3    H269146   4.477   4.267  10.890 -0.7036 -2.2083 -1.6486
15911TIP3   OH269147   3.689   6.532  12.646 -0.5618 -0.1875 -0.0859
15911TIP3    H169148   3.713   6.469  12.578 -0.1001  0.2646 -0.3565
15911TIP3    H269149   3.765   6.590  12.652 -0.3806 -0.5244  1.1857
15912TIP3   OH269150   6.234   3.516   0.513 -0.9138  0.2641  0.2128
15912TIP3    H169151   6.220   3.582   0.445 -2.2762  0.7970  0.9658
15912TIP3    H269152   6.180   3.545   0.586 -0.4321 -0.9480  1.0870
15913TIP3   OH269153   5.210   0.172  11.359  0.0487  0.2952  0.1166
15913TIP3    H169154   5.218   0.121  11.279 -0.1437 -0.1821  0.4012
15913TIP3    H269155   5.181   0.109  11.425  1.1064  0.4891  0.7779
15914TIP3   OH269156   5.580   2.862  13.306  0.8295 -0.3180  0.1739
15914TIP3    H169157   5.620   2.944  13.335  1.9308 -0.9915  0.6364
15914TIP3    H269158   5.645   2.795  13.328 -1.2315 -1.7159  2.5866
15915TIP3   OH269159   4.015   5.545   3.003 -0.4853 -0.1311  0.3596
15915TIP3    H169160   3.998   5.624   3.054 -1.9182 -1.0715  1.4333
15915TIP3    H269161   4.072   5.574   2.931 -1.1240  1.8966  0.6087
15916TIP3   OH269162   1.947   6.324  11.406 -0.0463 -0.4250  0.2226
15916TIP3    H169163   1.961   6.413  11.372  1.2022 -0.9024 -0.5367
15916TIP3    H269164   1.997   6.267  11.348 -1.7107 -1.7740  0.0248
15917TIP3   OH269165   2.935   5.539   4.162  0.2080 -0.0714 -0.5181
15917TIP3    H169166   3.025   5.547   4.193  0.2296 -0.3807 -0.4953
15917TIP3    H269167   2.910   5.628   4.135  0.3777  0.0925 -0.1352
15918TIP3   OH269168   5.476   1.110   2.779 -0.1287 -0.2451  0.6816
15918TIP3    H169169   5.473   1.137   2.688 -1.8546 -1.2768  0.3896
15918TIP3    H269170   5.516   1.023   2.777  0.6242  0.0869  1.0178
15919TIP3   OH269171   1.429   0.581   4.861  0.6392  0.6682 -0.2657
15919TIP3    H169172   1.501   0.525   4.835 -0.2787 -0.8601  0.3754
15919TIP3    H269173   1.366   0.573   4.789 -1.9982 -3.7277  2.0965
15920TIP3   OH269174   0.558   3.491   3.736 -0.0060  0.0272 -0.6735
15920TIP3    H169175   0.622   3.422   3.720 -0.6092 -0.8182  0.3328
15920TIP3    H269176   0.474   3.451   3.713 -0.4644  0.0742  0.7879
15921TIP3   OH269177   5.290   5.763   1.195  0.0590  0.1408  0.0426
15921TIP3    H169178   5.273   5.793   1.106  1.8732  0.2719 -0.2957
15921TIP3    H269179   5.379   5.793   1.215 -0.2128 -0.0962  1.8132
15922TIP3   OH269180   6.738   2.366  15.968 -0.0765  0.1836  0.0073
15922TIP3    H169181   6.733   2.461  15.958 -0.2060  0.2526  0.6836
15922TIP3    H269182   6.656   2.341  16.010  0.3784 -0.1005  0.7485
15923TIP3   OH269183   2.769   0.462   5.496 -0.1295  0.2479 -0.0954
15923TIP3    H169184   2.682   0.425   5.480  0.0640 -0.0712 -0.4324
15923TIP3    H269185   2.799   0.491   5.410 -0.2218  1.0762  0.1456
15924TIP3   OH269186   5.393   6.340  12.121 -0.0239 -0.5794  0.2291
15924TIP3    H169187   5.331   6.273  12.150 -0.2411 -0.0688  0.9838
15924TIP3    H269188   5.449   6.295  12.058 -1.1131 -1.0623 -0.4171
15925TIP3   OH269189   2.913   1.338   1.245 -0.7191  0.5073 -0.3859
15925TIP3    H169190   2.972   1.412   1.257 -0.7551  0.5170 -0.2702
15925TIP3    H269191   2.962   1.277   1.189 -0.5015  0.4045 -0.0856
15926TIP3   OH269192   1.927   5.526  17.321  0.2406  0.2113 -0.3636
15926TIP3    H169193   1.836   5.499  17.316  0.8871 -1.8694 -2.7628
15926TIP3    H269194   1.935   5.599  17.259  0.3798 -0.2242 -0.8639
15927TIP3   OH269195   6.324   0.184   4.617 -0.0697 -0.2178 -0.2725
15927TIP3    H169196   6.253   0.219   4.563 -0.6887 -2.0707 -0.7469
15927TIP3    H269197   6.307   0.090   4.619  0.9028 -0.3968  1.7776
15928TIP3   OH269198   4.760   6.742  13.809  0.7629  0.4395  0.5952
15928TIP3    H169199   4.700   6.752  13.884 -0.6918  0.7118 -0.5633
15928TIP3    H269200   4.847   6.743  13.849  0.0603  1.1683  2.2312
15929TIP3   OH269201   1.016   1.846   2.976  0.3516 -0.0432 -0.2472
15929TIP3    H169202   0.986   1.814   3.061  0.8860 -0.9396 -0.3825
15929TIP3    H269203   1.013   1.941   2.984 -2.7180 -0.0595 -0.3372
15930TIP3   OH269204   3.241   6.236   5.203 -0.4233 -0.4867 -0.4361
15930TIP3    H169205   3.284   6.163   5.159  1.9494  0.5344  0.0703
15930TIP3    H269206   3.308   6.274   5.258 -2.1426  0.9203  0.8029
15931TIP3   OH269207   0.716   0.503   3.743  0.0780  0.6517  0.3215
15931TIP3    H169208   0.746   0.477   3.656 -2.0126  2.5259 -1.0814
15931TIP3    H269209   0.795   0.531   3.789  1.1040  0.6789 -1.3779
15932TIP3   OH269210   5.859   3.948  13.060  1.1132  0.1066  0.0326
15932TIP3    H169211   5.772   3.948  13.100  1.0745 -0.3424 -0.0515
15932TIP3    H269212   5.920   3.949  13.134  1.0375  0.3018  0.0921
15933TIP3   OH269213   6.531   0.825   2.622 -0.1937 -0.0325  0.0928
15933TIP3    H169214   6.450   0.827   2.672 -1.0925 -1.3313 -1.2331
15933TIP3    H269215   6.591   0.883   2.670 -1.2097 -0.6819  2.2472
15934TIP3   OH269216   2.686   6.046   3.915  0.6439 -0.0888  0.0194
15934TIP3    H169217   2.705   5.988   3.841 -0.4214  0.3305 -0.6018
15934TIP3    H269218   2.662   5.986   3.986  0.8055 -0.4563 -0.2322
15935TIP3   OH269219   1.522   6.560   1.098  0.1278  0.5312  0.6423
15935TIP3    H169220   1.569   6.502   1.159  0.7535  0.2413 -0.0977
15935TIP3    H269221   1.518   6.644   1.143  3.0719  1.1137 -0.0290
15936TIP3   OH269222   1.452   4.270  11.739 -0.3681 -0.3841  0.2863
15936TIP3    H169223   1.450   4.244  11.647  0.9238 -0.7490  0.3420
15936TIP3    H269224   1.513   4.209  11.780 -1.4327 -0.6415  1.5357
15937TIP3   OH269225   3.482   1.827   3.322 -0.0379 -0.5716  0.4716
15937TIP3    H169226   3.429   1.891   3.370 -0.9388 -1.9971  1.4694
15937TIP3    H269227   3.542   1.879   3.269 -1.8097  1.0842  0.0377
15938TIP3   OH269228   6.089   3.666  15.589  0.1962 -0.0607 -0.2302
15938TIP3    H169229   6.128   3.628  15.510  0.9985 -2.1726  1.0989
15938TIP3    H269230   6.055   3.591  15.638  0.2836  1.1074  1.7449
15939TIP3   OH269231   2.847   3.751   0.492  0.9434 -0.2644  0.0818
15939TIP3    H169232   2.794   3.830   0.504  1.4720  0.0895  0.1475
15939TIP3    H269233   2.811   3.688   0.554 -0.5304 -0.6366 -1.0995
15940TIP3   OH269234   5.761   3.236   0.013  0.6414 -0.0262 -0.3088
15940TIP3    H169235   5.800   3.149   0.022  0.3610 -0.1950 -0.7225
15940TIP3    H269236   5.758   3.270   0.103 -0.1340 -0.8288 -0.0182
15941TIP3   OH269237   1.008   6.582   3.921 -0.0069  0.1836 -0.4846
15941TIP3    H169238   1.045   6.669   3.938  1.9424 -0.5311 -0.7746
15941TIP3    H269239   1.009   6.538   4.006 -0.3471  0.2228 -0.4619
15942TIP3   OH269240   3.690   6.655  12.966 -0.3016 -0.8286  0.5999
15942TIP3    H169241   3.783   6.635  12.971  0.2437  0.5561 -2.1096
15942TIP3    H269242   3.669   6.695  13.050  1.8545 -0.0172  0.7942
15943TIP3   OH269243   1.201   3.241  13.902  0.3881  0.0960  0.3412
15943TIP3    H169244   1.226   3.309  13.839  1.3960  0.3268  0.9649
15943TIP3    H269245   1.238   3.271  13.985 -1.0319 -0.1426  1.0872
15944TIP3   OH269246   3.485   1.875  14.441 -0.3750  0.4506  0.3149
15944TIP3    H169247   3.409   1.872  14.499 -0.0648 -1.8050  0.6692
15944TIP3    H269248   3.560   1.855  14.496 -0.1371 -2.3330 -0.8648
15945TIP3   OH269249   3.629   4.827  13.421 -0.2264 -0.7594  0.2624
15945TIP3    H169250   3.545   4.825  13.376 -1.1069 -1.6487  1.8430
15945TIP3    H269251   3.636   4.916  13.455 -0.7957 -0.8325  0.5827
15946TIP3   OH269252   6.634   1.127  16.848  0.1046 -0.0581 -0.3005
15946TIP3    H169253   6.652   1.210  16.892 -0.8779  0.0564 -0.1121
15946TIP3    H269254   6.693   1.128  16.772  1.6080 -0.1357  0.8176
15947TIP3   OH269255   4.192   1.109  14.438 -0.3567  0.5539  0.5023
15947TIP3    H169256   4.281   1.105  14.472  0.3721  0.5060 -1.2583
15947TIP3    H269257   4.166   1.018  14.429 -1.3629  0.5703  2.8119
15948TIP3   OH269258   1.085   4.463  12.269  0.5043  0.6004  0.0188
15948TIP3    H169259   1.071   4.444  12.362 -0.3604  0.8293 -0.0559
15948TIP3    H269260   1.161   4.412  12.245  2.1802  2.2823  1.4316
15949TIP3   OH269261   3.865   2.272  16.895  0.0040 -0.1290 -0.2760
15949TIP3    H169262   3.856   2.180  16.873  0.2705 -0.2616  0.1576
15949TIP3    H269263   3.794   2.289  16.957 -1.0924  0.3803 -1.6241
15950TIP3   OH269264   3.057   3.304  13.759  0.1227  0.1574 -0.0086
15950TIP3    H169265   2.963   3.291  13.775  0.4829  0.2419  2.6136
15950TIP3    H269266   3.085   3.223  13.717 -1.1763  0.3032 -1.2267
15951TIP3   OH269267   1.721   4.252  14.414  0.0184 -0.5393 -0.1604
15951TIP3    H169268   1.802   4.203  14.430 -0.4338 -1.6033 -0.9732
15951TIP3    H269269   1.736   4.297  14.331 -0.2211 -0.7404 -0.3138
15952TIP3   OH269270   6.590   5.386   3.314  0.1783 -0.0615  0.0736
15952TIP3    H169271   6.669   5.349   3.354 -0.0894  0.4516  1.1229
15952TIP3    H269272   6.573   5.330   3.238  1.7039 -0.0068 -0.3365
15953TIP3   OH269273   0.941   5.432   0.746 -0.2464  0.0655  0.1719
15953TIP3    H169274   0.852   5.462   0.729 -0.6242 -0.8220  0.5432
15953TIP3    H269275   0.961   5.374   0.673 -0.1343 -0.0821  0.3200
15954TIP3   OH269276   0.905   5.281   1.010  0.0403  0.7080  0.2076
15954TIP3    H169277   0.949   5.199   0.990  0.9011  0.8300  1.5182
15954TIP3    H269278   0.919   5.335   0.932  1.5400  0.4481  0.2673
15955TIP3   OH269279   0.286   2.876  10.967  0.6988  0.0849  0.3875
15955TIP3    H169280   0.325   2.915  10.889  1.4883  0.6003  1.0304
15955TIP3    H269281   0.222   2.814  10.933  0.6300  0.7129 -0.6626
15956TIP3   OH269282   0.100   6.538  11.797  0.0362 -0.1028 -0.6766
15956TIP3    H169283   0.045   6.583  11.734  1.7400 -1.4223 -3.2570
15956TIP3    H269284   0.110   6.450  11.761  3.5072 -0.0333 -0.1981
15957TIP3   OH269285   1.640   2.177   2.162 -0.1286 -0.2995  0.1146
15957TIP3    H169286   1.657   2.264   2.197 -1.0381  0.4477 -1.2280
15957TIP3    H269287   1.706   2.121   2.205 -0.1974  0.8161  1.7835
15958TIP3   OH269288   1.258   5.871   0.019 -0.2719 -0.3141 -0.2076
15958TIP3    H169289   1.349   5.897   0.032 -0.5106  1.2017 -1.2742
15958TIP3    H269290   1.216   5.885   0.104 -0.1317  1.9047 -0.4365
15959TIP3   OH269291   3.815   4.596  10.951  0.4996  0.5620  0.4860
15959TIP3    H169292   3.833   4.528  10.885 -1.4987 -0.3954  0.8543
15959TIP3    H269293   3.876   4.576  11.022 -0.7559 -1.6396  1.0660
15960TIP3   OH269294   6.515   5.708  14.369  0.4533  0.2981 -0.4289
15960TIP3    H169295   6.589   5.722  14.310  0.8029 -1.9263 -0.6097
15960TIP3    H269296   6.556   5.682  14.452 -0.0946 -0.2275 -0.3152
15961TIP3   OH269297   4.969   6.046   0.497  0.1115  0.0848  0.4953
15961TIP3    H169298   4.979   6.139   0.517 -0.0939  0.2358 -0.0626
15961TIP3    H269299   5.024   6.001   0.561  2.8812  0.7576 -1.2172
15962TIP3   OH269300   4.981   4.840  10.176 -0.3549 -0.0261  0.0716
15962TIP3    H169301   5.048   4.849  10.243 -0.9539  0.2459  0.6459
15962TIP3    H269302   4.934   4.923  10.177  0.1544  0.3114 -1.2851
15963TIP3   OH269303   4.828   2.009  13.918  0.1508  0.1209  0.8355
15963TIP3    H169304   4.905   2.066  13.925  1.9556 -1.7214 -2.0631
15963TIP3    H269305   4.774   2.050  13.851  0.9710 -0.9463 -0.5331
15964TIP3   OH269306   0.785   0.491  15.664  0.8547  0.0591 -0.4029
15964TIP3    H169307   0.829   0.418  15.619  1.2610 -0.4351  0.7672
15964TIP3    H269308   0.853   0.558  15.673  0.5583  0.4813 -1.2198
15965TIP3   OH269309   3.074   4.812   3.981  0.0976 -0.2267 -0.3223
15965TIP3    H169310   3.082   4.807   3.886  0.6053  0.6500 -0.3322
15965TIP3    H269311   3.164   4.822   4.012 -0.0970 -0.1558  0.2302
15966TIP3   OH269312   5.531   1.755   5.403  0.0407  0.2339 -0.0813
15966TIP3    H169313   5.448   1.712   5.423 -0.6421  1.9297  0.9847
15966TIP3    H269314   5.540   1.822   5.471  3.2912 -1.1568  1.0564
15967TIP3   OH269315   2.649   2.828   4.425 -1.0892  0.5769  0.5996
15967TIP3    H169316   2.666   2.922   4.415  1.4193  0.0058 -1.3301
15967TIP3    H269317   2.555   2.819   4.412 -1.5159  2.8903  1.6153
15968TIP3   OH269318   1.889   2.808   4.416  0.0364  0.1782  0.0788
15968TIP3    H169319   1.885   2.738   4.351 -0.2917 -1.6679  1.9727
15968TIP3    H269320   1.814   2.864   4.397  1.0638  0.8530 -2.2968
15969TIP3   OH269321   1.538   6.347  16.170  0.5010  0.1000  0.5660
15969TIP3    H169322   1.606   6.358  16.103 -1.7248  0.2534 -1.8229
15969TIP3    H269323   1.515   6.436  16.195  1.1472  0.0461  1.4144
15970TIP3   OH269324   5.930   5.666  16.724 -0.3014  0.3750 -0.2633
15970TIP3    H169325   5.892   5.598  16.668  0.0038 -0.2313  0.2600
15970TIP3    H269326   5.950   5.621  16.806 -0.0165  1.0807  0.0581
15971TIP3   OH269327   0.511   4.733   5.679 -0.1164  0.0349 -0.2448
15971TIP3    H169328   0.559   4.682   5.614  1.8456  0.5043  0.7627
15971TIP3    H269329   0.443   4.779   5.628  0.7878 -0.2886 -1.8129
15972TIP3   OH269330   4.708   4.272   3.224  0.5235  0.2777  0.1847
15972TIP3    H169331   4.774   4.304   3.285  0.6472  0.6468 -0.1407
15972TIP3    H269332   4.650   4.347   3.209 -1.4677 -0.6767  2.3871
15973TIP3   OH269333   6.551   1.623   5.197 -0.0869  0.0753  0.1912
15973TIP3    H169334   6.589   1.541   5.165 -0.6764 -0.1640  0.1105
15973TIP3    H269335   6.458   1.616   5.177 -0.0975  0.8777 -0.0483
15974TIP3   OH269336   3.079   6.013   0.984  0.1290  0.0704 -0.1374
15974TIP3    H169337   3.029   6.076   1.036  1.8922  0.0810  1.6838
15974TIP3    H269338   3.043   5.927   1.010  0.7278  0.1006  0.8488
15975TIP3   OH269339   4.048   1.440   3.473 -0.4528  0.2039  0.0089
15975TIP3    H169340   4.001   1.480   3.399 -0.5717 -0.0485 -0.0542
15975TIP3    H269341   4.088   1.362   3.436 -0.5210  0.0705  0.2155
15976TIP3   OH269342   4.414   0.432  14.562  0.4436 -0.2964 -0.5500
15976TIP3    H169343   4.420   0.464  14.652  2.0829 -0.6522 -0.5138
15976TIP3    H269344   4.324   0.400  14.554  0.2691 -0.2325  0.9462
15977TIP3   OH269345   1.259   4.975   0.444  0.0312 -0.1933 -0.7020
15977TIP3    H169346   1.208   5.013   0.516  0.4295 -0.2529 -0.3811
15977TIP3    H269347   1.217   5.007   0.365 -0.8512 -0.7027 -0.4498
15978TIP3   OH269348   0.931   3.422   5.204 -0.0328  0.4029  0.0398
15978TIP3    H169349   0.907   3.505   5.246 -2.4249  0.2740 -0.9168
15978TIP3    H269350   0.867   3.359   5.236  1.5242 -1.0394  0.4533
15979TIP3   OH269351   1.553   3.126  15.333 -0.1997 -0.2454  0.2204
15979TIP3    H169352   1.601   3.173  15.402 -0.0316 -0.0466 -0.0275
15979TIP3    H269353   1.576   3.034  15.346  0.0540 -0.1787  0.2588
15980TIP3   OH269354   4.376   4.817  10.525 -0.5243 -0.5496 -0.3737
15980TIP3    H169355   4.287   4.841  10.500 -0.0433  0.0217 -1.5816
15980TIP3    H269356   4.364   4.760  10.602 -1.8842  0.0285 -0.1260
15981TIP3   OH269357   2.059   1.990  12.993  0.3820  0.0634 -0.1818
15981TIP3    H169358   2.119   2.032  13.055  0.1347  1.3453 -0.7720
15981TIP3    H269359   1.982   1.968  13.045  0.4999  0.3916  0.1362
15982TIP3   OH269360   5.797   2.881   1.553  0.5362 -0.0078  0.0272
15982TIP3    H169361   5.798   2.803   1.497 -1.3616 -1.0642  1.3243
15982TIP3    H269362   5.849   2.945   1.506  0.2558 -1.3217 -2.2132
15983TIP3   OH269363   5.305   0.529  16.420 -0.0596 -0.0574 -0.2652
15983TIP3    H169364   5.228   0.587  16.425 -0.1700 -0.2821  0.9609
15983TIP3    H269365   5.361   0.570  16.354 -0.5833  0.8990 -0.1394
15984TIP3   OH269366   2.317   6.356  16.080  0.3505  0.2762 -0.0184
15984TIP3    H169367   2.362   6.296  16.020 -0.2394  0.1079 -0.2904
15984TIP3    H269368   2.292   6.431  16.025  2.8901  1.7877  0.6888
15985TIP3   OH269369   0.759   0.314  16.219 -0.2297  0.1780 -0.7677
15985TIP3    H169370   0.834   0.258  16.200 -0.0807  0.4281 -0.9297
15985TIP3    H269371   0.702   0.306  16.142 -1.2755 -1.4485  0.1139
15986TIP3   OH269372   4.718   4.833  14.815  0.4865 -0.0086 -0.4916
15986TIP3    H169373   4.752   4.921  14.799  0.9650 -0.1986 -0.5541
15986TIP3    H269374   4.663   4.815  14.739 -0.0377  0.4342 -0.2263
15987TIP3   OH269375   3.648   2.805   2.969 -0.0223  0.1329  0.3023
15987TIP3    H169376   3.724   2.747   2.958 -0.1624 -0.2029  0.9948
15987TIP3    H269377   3.641   2.852   2.887 -1.7866 -3.0438 -1.5651
15988TIP3   OH269378   5.817   2.413  12.629 -0.4020  0.4329 -0.2455
15988TIP3    H169379   5.857   2.327  12.624  3.4557  1.9456  0.9014
15988TIP3    H269380   5.788   2.432  12.539 -1.6689 -2.0968 -0.4390
15989TIP3   OH269381   2.200   5.976   5.051  0.2863 -0.0905  0.0189
15989TIP3    H169382   2.168   6.039   4.987  1.0847  1.1197  0.7652
15989TIP3    H269383   2.295   5.974   5.038  0.1847 -2.0525 -0.7689
15990TIP3   OH269384   1.939   3.089  12.547 -0.6011  0.0807 -0.4017
15990TIP3    H169385   2.025   3.106  12.509 -0.8641 -0.0345 -1.0593
15990TIP3    H269386   1.955   3.085  12.641 -0.0039  0.7575 -0.4658
15991TIP3   OH269387   0.774   6.647  13.292 -0.0222 -0.1899  0.1333
15991TIP3    H169388   0.802   6.621  13.379  2.1452  1.4280  0.0141
15991TIP3    H269389   0.726   6.729  13.306 -2.6724 -1.6055  0.0539
15992TIP3   OH269390   3.671   2.381  10.940  0.3342  0.1974 -0.5442
15992TIP3    H169391   3.657   2.402  11.032  1.2148  1.7409 -0.7257
15992TIP3    H269392   3.759   2.343  10.938  0.1832 -0.1442 -0.7080
15993TIP3   OH269393   0.560   6.003  15.373 -0.6133 -0.2861  0.6362
15993TIP3    H169394   0.498   6.056  15.423  0.1173 -2.1364  3.8172
15993TIP3    H269395   0.639   6.056  15.369 -1.0176  0.3145  0.5432
15994TIP3   OH269396   3.536   0.615  11.993  0.4998  0.7325 -0.6494
15994TIP3    H169397   3.443   0.609  11.973  0.7104  1.0210 -1.7724
15994TIP3    H269398   3.542   0.678  12.065 -0.3152 -0.6478  0.7125
15995TIP3   OH269399   2.829   6.562   4.047 -0.4975 -0.2759  0.3217
15995TIP3    H169400   2.763   6.589   3.983 -0.2217 -1.5118 -0.5097
15995TIP3    H269401   2.779   6.513   4.113 -0.6602  0.2822  0.6153
15996TIP3   OH269402   0.104   5.645  16.314 -0.5208  0.4564  0.4490
15996TIP3    H169403   0.050   5.718  16.344 -0.3571  1.0271 -0.6139
15996TIP3    H269404   0.185   5.652  16.365 -0.5615  0.9240  0.4484
15997TIP3   OH269405   5.164   6.639  10.858  0.9159  0.0970 -0.2911
15997TIP3    H169406   5.144   6.728  10.831 -1.0206 -0.6391 -1.5217
15997TIP3    H269407   5.109   6.584  10.802  1.5638 -1.8417  0.8653
15998TIP3   OH269408   6.420   2.965  11.715 -0.4819 -0.0328 -0.1641
15998TIP3    H169409   6.452   3.052  11.738  0.4524 -0.6313  0.8741
15998TIP3    H269410   6.376   2.977  11.631  0.7588  1.2057 -0.6655
15999TIP3   OH269411   3.695   2.162   4.693 -0.6021  0.2945  0.1275
15999TIP3    H169412   3.766   2.221   4.668 -0.0589 -0.9002 -1.3129
15999TIP3    H269413   3.737   2.098   4.751 -0.0297 -1.3786 -2.0051
16000TIP3   OH269414   0.368   5.452  14.670 -0.3637 -0.2062 -0.2465
16000TIP3    H169415   0.339   5.540  14.646 -2.0038 -0.7794 -0.5138
16000TIP3    H269416   0.322   5.434  14.753 -1.3223 -1.3948 -1.0092
16001TIP3   OH269417   2.893   0.806   3.839  0.3912  0.1472  0.2519
16001TIP3    H169418   2.858   0.815   3.750  1.2877  0.3340 -0.0874
16001TIP3    H269419   2.871   0.716   3.864  1.6541 -0.4943 -0.8312
16002TIP3   OH269420   1.356   6.715  15.054  0.2796  0.6714  0.2442
16002TIP3    H169421   1.401   6.745  14.976  0.5387 -1.5382 -0.5365
16002TIP3    H269422   1.360   6.789  15.115  0.9096  2.1047 -1.4693
16003TIP3   OH269423   2.507   0.423   2.460  0.2685  0.1281  0.1983
16003TIP3    H169424   2.535   0.446   2.371 -0.7943  1.7505  0.2584
16003TIP3    H269425   2.580   0.450   2.516 -0.2589  1.8534  0.0891
16004TIP3   OH269426   5.091   0.230  16.593  0.0040  0.6266 -0.1714
16004TIP3    H169427   5.057   0.292  16.657 -0.6271  0.7004 -0.5667
16004TIP3    H269428   5.178   0.262  16.573 -0.4910  1.6839 -0.7301
16005TIP3   OH269429   3.360   4.590   0.498  0.2365 -0.1146  0.6716
16005TIP3    H169430   3.307   4.665   0.470  0.3455 -0.3165 -0.0974
16005TIP3    H269431   3.449   4.625   0.506  0.0267  0.1839  1.7944
16006TIP3   OH269432   1.824   0.004   1.466  0.0131 -0.5417 -0.2194
16006TIP3    H169433   1.894  -0.046   1.508 -0.7819 -1.1153  0.4668
16006TIP3    H269434   1.774  -0.061   1.417  0.0697 -0.1072 -0.8658
16007TIP3   OH269435   6.134   4.563   4.375  0.0840 -0.0672 -0.2887
16007TIP3    H169436   6.173   4.589   4.458 -1.1962 -0.3789  0.4273
16007TIP3    H269437   6.141   4.468   4.373 -0.7719 -0.1416 -0.0738
16008TIP3   OH269438   3.392   3.267  16.721  0.2965 -0.1431  0.5649
16008TIP3    H169439   3.332   3.193  16.713 -0.0003 -0.0965  2.1402
16008TIP3    H269440   3.342   3.342  16.690  0.6247 -0.5776 -1.1154
16009TIP3   OH269441   0.588   6.425   3.720 -0.3318  0.0241 -0.3908
16009TIP3    H169442   0.551   6.504   3.679 -0.2342  0.2055 -0.1355
16009TIP3    H269443   0.547   6.352   3.673 -0.9442  0.2222 -0.1744
16010TIP3   OH269444   5.009   5.793   1.781  0.3756 -0.2669  0.3780
16010TIP3    H169445   5.076   5.851   1.816  0.3899  0.3020 -0.5648
16010TIP3    H269446   4.926   5.839   1.794  0.1251 -1.0409  1.6924
16011TIP3   OH269447   4.065   2.814   2.789 -0.0527  0.3203  0.0044
16011TIP3    H169448   4.096   2.876   2.855 -1.4604 -1.0324  2.1035
16011TIP3    H269449   4.021   2.746   2.840 -0.7007 -1.1434 -2.3431
16012TIP3   OH269450   3.757   1.065   1.874  0.5217 -0.0831 -0.4360
16012TIP3    H169451   3.682   1.008   1.890  0.0481 -0.4894 -3.5255
16012TIP3    H269452   3.829   1.023   1.921 -0.7698 -0.6327  1.1585
16013TIP3   OH269453   4.349   0.496  12.730 -0.5849  0.4449 -0.5294
16013TIP3    H169454   4.271   0.542  12.699 -1.1495  0.8232  1.3258
16013TIP3    H269455   4.322   0.457  12.814  1.2433  0.6539  0.1951
16014TIP3   OH269456   5.422   1.894  12.575 -0.7220 -0.1887 -0.2119
16014TIP3    H169457   5.469   1.874  12.495  1.0038 -0.6871  0.8763
16014TIP3    H269458   5.361   1.963  12.551 -0.7604 -0.8260 -2.0919
16015TIP3   OH269459   0.170   0.614  13.242  0.7504 -0.0644 -0.6874
16015TIP3    H169460   0.219   0.570  13.313  1.6314  0.9891 -0.6161
16015TIP3    H269461   0.184   0.707  13.258  0.4945  0.1977 -1.9339
16016TIP3   OH269462   1.393   4.520  10.788  0.3982 -0.0356  0.2256
16016TIP3    H169463   1.448   4.528  10.710 -0.5488 -0.2200 -0.4785
16016TIP3    H269464   1.344   4.439  10.776 -2.7020  1.8115 -0.9828
16017TIP3   OH269465   6.253   5.685   4.486  0.1824  0.0335  0.4910
16017TIP3    H169466   6.238   5.655   4.396  0.1180 -0.2404  0.5903
16017TIP3    H269467   6.346   5.707   4.489  0.2258 -0.1389  0.4095
16018TIP3   OH269468   0.040   4.427   6.480  0.2371  0.1323 -0.3589
16018TIP3    H169469   0.097   4.431   6.403  0.9989 -3.1793 -0.1221
16018TIP3    H269470  -0.047   4.413   6.444  0.4531 -0.4868 -0.6522
16019TIP3   OH269471   6.048   3.940   5.796 -0.6753  0.7979 -0.0043
16019TIP3    H169472   6.111   3.952   5.867 -0.3654  1.8421 -0.4360
16019TIP3    H269473   6.007   3.855   5.814  0.9741  0.0036  0.1924
16020TIP3   OH269474   0.434   4.743  14.937  0.0730 -0.3552 -0.1093
16020TIP3    H169475   0.446   4.659  14.893  1.3937 -0.1527 -0.1792
16020TIP3    H269476   0.385   4.722  15.017 -0.3710 -1.0513 -0.5564
16021TIP3   OH269477   2.269   1.104   3.591 -0.0278  0.7175  0.4020
16021TIP3    H169478   2.355   1.140   3.613  0.0386  0.1969  1.0398
16021TIP3    H269479   2.261   1.116   3.497  0.8491  0.5663  0.2995
16022TIP3   OH269480   1.745   4.441  12.168  0.5575  0.5413  0.2333
16022TIP3    H169481   1.797   4.509  12.210 -0.0984  0.3007  1.5089
16022TIP3    H269482   1.797   4.361  12.180  0.3826  0.4770  0.5637
16023TIP3   OH269483   4.834   1.269   0.164  0.3804  0.4575  0.0161
16023TIP3    H169484   4.912   1.299   0.211  0.5021 -0.9389  0.7864
16023TIP3    H269485   4.778   1.233   0.233 -1.2569  2.0055 -0.4522
16024TIP3   OH269486   4.863   4.067  13.685 -0.2071  0.0383  0.2587
16024TIP3    H169487   4.889   4.000  13.748  0.8007 -0.6214 -0.8113
16024TIP3    H269488   4.929   4.136  13.696 -1.1378  0.7984  1.2323
16025TIP3   OH269489   6.592   3.526  12.653  1.0039 -0.1877 -0.4446
16025TIP3    H169490   6.527   3.456  12.647  0.0952  0.5798  0.1182
16025TIP3    H269491   6.662   3.499  12.594  0.4161 -1.2946 -0.6604
16026TIP3   OH269492   4.044   3.796   0.305 -0.2235  0.6545  0.5333
16026TIP3    H169493   4.131   3.763   0.279 -0.6070  0.3544 -0.4372
16026TIP3    H269494   3.984   3.728   0.275 -0.9701  1.8495 -0.7879
16027TIP3   OH269495   1.845   3.053  15.883 -0.0261 -0.7546 -0.3119
16027TIP3    H169496   1.771   3.005  15.844 -1.5660  1.5125 -0.3423
16027TIP3    H269497   1.808   3.095  15.960  0.6882  1.9008 -1.3056
16028TIP3   OH269498   0.538   0.184   0.608  0.1991  0.1501 -0.2970
16028TIP3    H169499   0.612   0.241   0.629  0.2200  0.3302 -0.8320
16028TIP3    H269500   0.545   0.112   0.670  1.1058 -0.0829 -0.6519
16029TIP3   OH269501   2.867   6.034  15.737  0.1416 -0.0140  0.0920
16029TIP3    H169502   2.776   6.029  15.764 -0.2049  1.5013 -0.7033
16029TIP3    H269503   2.916   6.050  15.818 -0.3551 -0.1856  0.4287
16030TIP3   OH269504   6.042   0.544   5.444  0.4684 -0.2501  0.1008
16030TIP3    H169505   6.094   0.585   5.375 -2.0925  1.2778 -1.0830
16030TIP3    H269506   6.048   0.451   5.426  1.1716  0.0211 -1.2307
16031TIP3   OH269507   5.249   2.038  11.083  0.2320 -0.7715  0.1591
16031TIP3    H169508   5.250   2.084  11.167  1.8145 -0.7842  0.1732
16031TIP3    H269509   5.253   2.108  11.017 -0.4101 -0.7840  0.1035
16032TIP3   OH269510   5.259   5.790  10.900  0.1286  0.2404 -0.2092
16032TIP3    H169511   5.293   5.709  10.864  0.7490  0.3261  0.1713
16032TIP3    H269512   5.280   5.786  10.993  0.4558  0.9751 -0.2427
16033TIP3   OH269513   3.368   5.944   3.837  0.1361 -0.1396 -0.1716
16033TIP3    H169514   3.431   5.884   3.798  1.0687 -0.0651  1.1502
16033TIP3    H269515   3.410   5.974   3.918 -1.6549 -0.2122  0.8508
16034TIP3   OH269516   1.313   5.660  14.361  0.0744  0.5639  0.1580
16034TIP3    H169517   1.317   5.597  14.434 -0.7168 -0.0569 -0.3220
16034TIP3    H269518   1.256   5.618  14.296  1.6624  0.6108 -1.3165
16035TIP3   OH269519   6.406   2.701  16.088  0.5875  0.4618  0.4027
16035TIP3    H169520   6.377   2.634  16.026 -0.2492 -0.5536  1.8472
16035TIP3    H269521   6.357   2.780  16.063 -2.0803 -0.7257  1.6148
16036TIP3   OH269522   3.708   2.825   2.048 -0.0599 -0.0901 -0.1331
16036TIP3    H169523   3.623   2.867   2.060  0.1741 -0.1452  2.2045
16036TIP3    H269524   3.750   2.875   1.978 -1.5063  0.7478 -0.4408
16037TIP3   OH269525   4.885   0.823   6.048 -0.0984  0.1808  0.2770
16037TIP3    H169526   4.836   0.759   6.100  0.6419  0.7534  1.7496
16037TIP3    H269527   4.975   0.790   6.049 -0.0150  0.3902 -0.3408
16038TIP3   OH269528   2.783   2.836  15.795 -0.0642 -0.2249  0.3677
16038TIP3    H169529   2.788   2.806  15.885  0.5716 -2.2298 -0.3019
16038TIP3    H269530   2.843   2.910  15.791  1.0933 -1.0859  1.2280
16039TIP3   OH269531   3.372   4.651   5.165  0.4353  0.0535 -0.1977
16039TIP3    H169532   3.448   4.687   5.209  1.9429 -3.9175  0.9193
16039TIP3    H269533   3.332   4.593   5.230 -1.1414 -1.0431 -2.0413
16040TIP3   OH269534   2.483   4.073  13.725 -0.2466  0.3522 -0.3423
16040TIP3    H169535   2.474   4.130  13.649 -0.7601  0.1118 -0.4747
16040TIP3    H269536   2.392   4.049  13.747 -0.2026  1.4421  1.1442
16041TIP3   OH269537   1.903   2.619   3.952 -0.2254  0.2074 -0.7687
16041TIP3    H169538   1.955   2.685   3.997  0.3210  0.7473 -2.1367
16041TIP3    H269539   1.929   2.536   3.992 -0.3492  0.7375  0.4357
16042TIP3   OH269540   0.473   6.459  12.642 -0.8697 -0.1270  0.2080
16042TIP3    H169541   0.434   6.371  12.634 -0.5075 -0.1620 -1.9655
16042TIP3    H269542   0.423   6.501  12.711 -0.5213 -2.3039  1.8966
16043TIP3   OH269543   6.088   2.252   5.493 -0.3962 -0.8833  0.2731
16043TIP3    H169544   6.155   2.237   5.427 -1.4890 -1.8353 -0.6715
16043TIP3    H269545   6.052   2.165   5.510 -3.3384 -0.1301 -1.4215
16044TIP3   OH269546   5.074   5.479   2.211  0.6741 -0.4984 -0.3250
16044TIP3    H169547   5.047   5.401   2.258 -0.6688 -0.3527 -0.8096
16044TIP3    H269548   5.128   5.528   2.273 -0.2269 -0.7939  0.7125
16045TIP3   OH269549   4.319   5.759  14.599 -0.3681 -0.1464 -0.1886
16045TIP3    H169550   4.250   5.726  14.542 -0.5464  0.4871 -0.3469
16045TIP3    H269551   4.372   5.815  14.542 -0.3926  0.2798  0.2099
16046TIP3   OH269552   1.333   3.999  12.401 -0.3756  0.0434 -0.1066
16046TIP3    H169553   1.275   3.928  12.372 -0.2416 -0.2495  0.3342
16046TIP3    H269554   1.291   4.033  12.480 -0.0616 -0.0246  0.0910
16047TIP3   OH269555   2.297   1.030   2.177  0.4696  0.0667 -0.4088
16047TIP3    H169556   2.320   1.072   2.260 -1.1331 -0.0022  0.1089
16047TIP3    H269557   2.381   1.009   2.136  1.2937 -0.0689  1.2754
16048TIP3   OH269558   5.066   5.627   5.007  0.5522 -0.3485  0.7600
16048TIP3    H169559   5.124   5.568   4.959 -0.2637 -0.6151  0.0653
16048TIP3    H269560   4.999   5.651   4.943  0.0964  0.2248  1.4420
16049TIP3   OH269561   4.236   2.412   2.716  0.1525  0.6785  0.1403
16049TIP3    H169562   4.294   2.391   2.643 -1.2098  0.2400 -0.8563
16049TIP3    H269563   4.234   2.508   2.718  0.6422  0.6949 -0.0300
16050TIP3   OH269564   1.049   3.128   0.001  0.3200 -0.1804  0.0904
16050TIP3    H169565   0.972   3.121  -0.055 -0.6276 -0.7768  1.4327
16050TIP3    H269566   1.102   3.052  -0.021  1.1305  0.8107 -1.6418
16051TIP3   OH269567   5.901   5.153  14.240  0.6306 -0.3144 -0.0090
16051TIP3    H169568   5.901   5.062  14.272 -0.6302 -0.2377  0.2638
16051TIP3    H269569   5.818   5.189  14.272  0.5622  0.5746 -1.1404
16052TIP3   OH269570   4.672   1.230   5.820 -0.4570  0.2752 -0.5322
16052TIP3    H169571   4.764   1.208   5.806 -0.3914  0.0446  0.2204
16052TIP3    H269572   4.668   1.326   5.809 -0.5444  0.0689 -2.7268
16053TIP3   OH269573   4.415   0.453  16.766 -0.6963  0.1800 -0.8577
16053TIP3    H169574   4.364   0.532  16.789 -0.3430 -0.2124  1.5358
16053TIP3    H269575   4.349   0.386  16.751 -0.9636  0.6327 -1.8216
16054TIP3   OH269576   3.740   4.825   1.570  0.2822  0.2581 -0.0350
16054TIP3    H169577   3.827   4.857   1.594  0.5131  0.8597 -1.5492
16054TIP3    H269578   3.688   4.904   1.554 -0.7052 -0.0892  1.3140
16055TIP3   OH269579   3.330   1.611   4.680  0.4968  0.3851 -0.2615
16055TIP3    H169580   3.247   1.658   4.687 -0.4004 -0.6344 -2.5933
16055TIP3    H269581   3.395   1.679   4.664 -0.4367  1.0511 -1.4982
16056TIP3   OH269582   1.212   3.453   5.561  0.3045 -0.7767  0.6348
16056TIP3    H169583   1.142   3.389   5.578 -0.8840 -0.3566 -2.1623
16056TIP3    H269584   1.174   3.537   5.585  0.1027 -0.6368 -0.1423
16057TIP3   OH269585   0.089   1.000  14.638 -0.1765  0.9066 -0.1761
16057TIP3    H169586   0.174   0.956  14.637 -0.3330  0.4439  1.7677
16057TIP3    H269587   0.109   1.093  14.628  0.3961  0.6613 -1.4449
16058TIP3   OH269588   2.748   2.204   5.516  0.3723 -0.1422 -0.0111
16058TIP3    H169589   2.727   2.176   5.427 -2.1223 -1.0146  0.7420
16058TIP3    H269590   2.836   2.171   5.531  0.4542 -0.8749 -1.8178
16059TIP3   OH269591   0.050   6.607  14.419  0.3532 -0.3667  0.2000
16059TIP3    H169592  -0.001   6.529  14.440  0.6856 -0.7170 -0.2761
16059TIP3    H269593   0.141   6.577  14.422  0.5106  0.1437  0.5886
16060TIP3   OH269594   0.650   6.102  16.865 -0.0023  0.2873  0.0378
16060TIP3    H169595   0.662   6.190  16.829  1.1622  0.0819 -0.0907
16060TIP3    H269596   0.633   6.116  16.958  1.4968  0.6009  0.2821
16061TIP3   OH269597   6.425   4.243   4.348 -0.1928  0.7518  0.5142
16061TIP3    H169598   6.456   4.330   4.325  1.1162  0.1243 -0.1745
16061TIP3    H269599   6.502   4.197   4.381 -0.3668 -0.7865 -1.0658
16062TIP3   OH269600   3.674   1.483  16.534  0.3382  0.0509  0.1275
16062TIP3    H169601   3.583   1.480  16.504  0.1729 -1.2168  0.6971
16062TIP3    H269602   3.725   1.498  16.455 -0.3505  0.7612 -0.2047
16063TIP3   OH269603   1.094   2.228   0.071  0.4000  0.0440 -0.1482
16063TIP3    H169604   1.027   2.289   0.101 -0.0322  0.3081 -1.5856
16063TIP3    H269605   1.169   2.284   0.050  1.1749 -0.2599  1.5808
16064TIP3   OH269606   3.380   3.856   2.468  0.2868  0.8125 -0.1631
16064TIP3    H169607   3.321   3.834   2.396 -0.0840 -0.5385  0.5444
16064TIP3    H269608   3.467   3.830   2.436  0.2372  0.9719 -0.4328
16065TIP3   OH269609   5.728   5.083   1.043 -0.2275 -0.7154 -0.8108
16065TIP3    H169610   5.723   4.989   1.057 -0.0431 -0.6210 -0.0900
16065TIP3    H269611   5.814   5.098   1.005  0.2726 -0.7036  0.2811
16066TIP3   OH269612   3.745   5.190   3.874 -0.8599 -0.3558 -0.3380
16066TIP3    H169613   3.758   5.097   3.890 -1.8643 -0.7693 -1.7844
16066TIP3    H269614   3.719   5.225   3.959 -0.2263 -1.3321  0.2812
16067TIP3   OH269615   2.997   5.815  14.882  0.3103  0.2117  0.0452
16067TIP3    H169616   3.053   5.869  14.938  0.7411 -0.3646  0.1773
16067TIP3    H269617   2.921   5.796  14.937 -0.3770  1.6108 -0.3883
16068TIP3   OH269618   0.670   5.369  14.665 -0.1491  0.3406  0.1162
16068TIP3    H169619   0.707   5.329  14.743  0.2924 -2.1236 -1.2638
16068TIP3    H269620   0.575   5.367  14.679 -0.0337  1.6654  1.3294
16069TIP3   OH269621   5.046   0.910  15.662  0.2571  0.4173 -0.1869
16069TIP3    H169622   5.080   0.881  15.747  0.7495 -1.6150 -0.9961
16069TIP3    H269623   5.121   0.953  15.620  0.2126  0.8296  0.1609
16070TIP3   OH269624   4.066   4.931   4.413  0.5608 -0.6130  0.3287
16070TIP3    H169625   4.048   4.860   4.475  1.3253 -0.8908  0.2429
16070TIP3    H269626   4.085   4.887   4.331  0.3316 -0.2753  0.0940
16071TIP3   OH269627   5.769   6.528   1.013 -0.2371  0.3520 -0.2817
16071TIP3    H169628   5.810   6.461   0.958  0.5610 -0.0485  0.7661
16071TIP3    H269629   5.785   6.611   0.967  2.0908  0.2568  0.2374
16072TIP3   OH269630   5.173   2.916  11.619  0.3646  0.1900  0.1296
16072TIP3    H169631   5.251   2.881  11.576  0.1057  0.5863 -0.6779
16072TIP3    H269632   5.134   2.974  11.554  0.6230  1.7617  1.3160
16073TIP3   OH269633   5.029   5.049  11.259  0.2329 -0.0101 -0.3370
16073TIP3    H169634   4.936   5.069  11.262 -0.1157 -1.6504  1.6538
16073TIP3    H269635   5.071   5.118  11.311 -0.2886 -1.0449  1.5333
16074TIP3   OH269636   6.742   5.089  16.137 -0.2674  0.5491 -0.2587
16074TIP3    H169637   6.762   5.004  16.096 -0.6547  0.4456 -0.2364
16074TIP3    H269638   6.667   5.122  16.088  0.0049  0.9723 -0.3915
16075TIP3   OH269639   5.194   0.148  10.527 -0.2798  0.1198 -0.4729
16075TIP3    H169640   5.118   0.123  10.579 -0.1586 -0.7525 -0.6912
16075TIP3    H269641   5.167   0.227  10.480 -0.5091  0.7196  0.6440
16076TIP3   OH269642   0.663   5.977  17.170 -0.7551  0.0126  0.3271
16076TIP3    H169643   0.719   5.920  17.223 -2.3466  0.4325  2.6137
16076TIP3    H269644   0.575   5.942  17.183 -1.3170  0.7578 -1.2926
16077TIP3   OH269645   2.739   4.797  11.790  0.0876 -0.8969  0.0695
16077TIP3    H169646   2.646   4.795  11.766  0.0956  1.1701 -0.3311
16077TIP3    H269647   2.739   4.800  11.886 -0.2764 -0.9166  0.0714
16078TIP3   OH269648   3.280   0.021  11.168 -0.1482  0.3073 -0.3906
16078TIP3    H169649   3.332   0.097  11.194 -0.1227 -0.0518  0.6334
16078TIP3    H269650   3.210   0.016  11.232 -0.5504 -0.1388 -0.8522
16079TIP3   OH269651   3.574   2.141   3.062  0.6435  0.7918  0.0903
16079TIP3    H169652   3.556   2.187   2.981  0.9337  0.8731  0.0720
16079TIP3    H269653   3.660   2.172   3.089  1.1718 -0.2824 -0.3046
16080TIP3   OH269654   0.176   2.513   5.706  0.0712 -0.4403  0.1295
16080TIP3    H169655   0.180   2.515   5.802  0.2211 -0.8057  0.1310
16080TIP3    H269656   0.096   2.465   5.687 -1.3959  1.8877  0.0713
16081TIP3   OH269657   2.141   2.184  12.527 -0.0162 -0.3053  0.1062
16081TIP3    H169658   2.070   2.120  12.532 -0.5120  0.1902 -0.4593
16081TIP3    H269659   2.163   2.202  12.619 -0.2610 -0.8551  0.2789
16082TIP3   OH269660   3.854   3.287  11.112 -0.2572  0.1970  0.2856
16082TIP3    H169661   3.842   3.297  11.206 -1.6317 -0.1471  0.1640
16082TIP3    H269662   3.858   3.192  11.098 -1.6802  0.1881 -0.1719
16083TIP3   OH269663   4.091   0.016  16.338 -0.5354  0.9329  0.1270
16083TIP3    H169664   4.147  -0.022  16.270 -1.6267 -1.0421  0.2846
16083TIP3    H269665   4.153   0.039  16.408  0.3024  0.5798 -0.4703
16084TIP3   OH269666   1.120   4.770   3.728 -0.0534 -0.0440 -0.5246
16084TIP3    H169667   1.031   4.735   3.722 -0.5900  1.2148 -0.1462
16084TIP3    H269668   1.157   4.757   3.640 -1.1822  0.8711 -1.1622
16085TIP3   OH269669   5.104   2.154   3.506 -0.3590  0.4131  0.1021
16085TIP3    H169670   5.062   2.238   3.488 -1.6237 -0.4490 -1.1983
16085TIP3    H269671   5.143   2.129   3.422 -1.4711 -1.0674 -0.0042
16086TIP3   OH269672   6.062   1.932   4.627 -0.1180  0.2413  0.2199
16086TIP3    H169673   6.027   1.905   4.541 -1.1837 -0.1876  0.7675
16086TIP3    H269674   6.005   2.004   4.654  0.7905  0.9955  0.1716
16087TIP3   OH269675   2.096   2.488   3.719  0.2211  0.5420  0.8748
16087TIP3    H169676   2.169   2.539   3.755  0.3751  0.1480  1.1224
16087TIP3    H269677   2.127   2.457   3.634 -0.7917  3.0169 -0.5204
16088TIP3   OH269678   3.770   0.546   1.466 -0.1759 -0.1518 -0.2617
16088TIP3    H169679   3.835   0.589   1.410 -2.4209  0.8337 -2.2547
16088TIP3    H269680   3.811   0.544   1.552  3.0561 -0.8595 -1.6635
16089TIP3   OH269681   1.437   2.301  11.692 -0.2646  0.5126  0.1734
16089TIP3    H169682   1.460   2.378  11.642  0.1788  0.6058  0.5162
16089TIP3    H269683   1.427   2.332  11.782 -0.3284  0.2179  0.2717
16090TIP3   OH269684   4.779   6.167   5.982 -0.1222  0.1516  0.0330
16090TIP3    H169685   4.748   6.110   6.053 -1.8266  0.6052 -0.3203
16090TIP3    H269686   4.708   6.229   5.968  0.9573  1.2319 -0.8411
16091TIP3   OH269687   6.398   5.734   5.189 -0.3760 -0.4436  0.2627
16091TIP3    H169688   6.417   5.767   5.277  0.5526 -0.4127  0.0583
16091TIP3    H269689   6.302   5.728   5.186 -0.5258  1.2263  0.6740
16092TIP3   OH269690   3.059   1.202  15.622 -0.0970 -0.7635 -0.1556
16092TIP3    H169691   3.032   1.287  15.657  0.3715 -0.0509 -1.4964
16092TIP3    H269692   3.152   1.196  15.642 -0.4034 -1.5917  1.1532
16093TIP3   OH269693   4.002   0.161  11.439  0.0473 -0.2341 -0.3073
16093TIP3    H169694   3.981   0.237  11.384 -1.0665 -0.5218 -0.3178
16093TIP3    H269695   4.097   0.160  11.444  0.1054  0.7291 -0.9217
16094TIP3   OH269696   1.603   2.589   3.611 -0.3583 -0.1104 -0.1071
16094TIP3    H169697   1.530   2.547   3.564 -0.2817  1.6563 -1.9156
16094TIP3    H269698   1.561   2.654   3.668 -0.2773 -0.1879  0.0419
16095TIP3   OH269699   0.992   3.788   3.442 -0.3074 -0.2517  0.3759
16095TIP3    H169700   1.038   3.805   3.359 -0.5574  0.0555  0.2983
16095TIP3    H269701   1.048   3.725   3.488 -1.0658 -1.8976 -0.8330
16096TIP3   OH269702   1.541   0.422  13.320  0.2779 -0.1721  0.0799
16096TIP3    H169703   1.464   0.371  13.342 -0.7363  1.0754 -0.4529
16096TIP3    H269704   1.521   0.511  13.349  0.3695  0.7566 -2.4387
16097TIP3   OH269705   1.283   5.741   5.726 -0.1469  0.0203 -0.4491
16097TIP3    H169706   1.364   5.707   5.764  0.4071  1.1854 -0.5345
16097TIP3    H269707   1.219   5.670   5.738  0.5918 -0.5030  0.6060
16098TIP3   OH269708   0.981   5.500  13.725  0.8560 -0.6502 -0.3355
16098TIP3    H169709   0.900   5.531  13.765  0.5746  0.8138 -1.8971
16098TIP3    H269710   0.975   5.529  13.634  3.3110 -0.1575 -0.4055
16099TIP3   OH269711   2.602   3.843  16.832  0.9024  0.2645  0.0777
16099TIP3    H169712   2.572   3.862  16.744  1.3225 -0.7431 -0.3020
16099TIP3    H269713   2.522   3.820  16.880  0.5312  1.8384  0.2733
16100TIP3   OH269714   6.714   5.018  12.065  0.2512  0.5823  0.7364
16100TIP3    H169715   6.719   5.094  12.122  0.2470  0.1423  1.3281
16100TIP3    H269716   6.798   5.016  12.020  0.5655  0.4635  1.3261
16101TIP3   OH269717   4.204   4.350  15.402  0.6916  0.7197  0.3447
16101TIP3    H169718   4.212   4.402  15.322  1.3511  0.3563  0.1694
16101TIP3    H269719   4.294   4.333  15.429  0.5142 -0.9750 -0.0341
16102TIP3   OH269720   1.974   6.419   0.612  0.2681  0.2426 -0.7813
16102TIP3    H169721   1.970   6.435   0.706  0.8556  0.7393 -0.8352
16102TIP3    H269722   1.925   6.491   0.573  0.2255  0.1670 -0.8672
16103TIP3   OH269723   1.420   2.869   4.371 -0.1442  0.3529 -0.3257
16103TIP3    H169724   1.473   2.936   4.328 -0.8899  0.2561 -1.4461
16103TIP3    H269725   1.398   2.807   4.301 -0.8129 -0.1922  0.3459
16104TIP3   OH269726   0.001   3.944  12.332 -0.4287 -0.1849  0.3068
16104TIP3    H169727  -0.073   3.887  12.352  0.8761 -1.6194  1.2757
16104TIP3    H269728   0.075   3.884  12.322  0.8497  1.2915  0.5836
16105TIP3   OH269729   2.007   2.910  14.936  0.2069 -0.2078  0.0075
16105TIP3    H169730   1.950   2.886  15.009  0.0634 -0.0515 -0.0529
16105TIP3    H269731   2.067   2.836  14.927 -0.2281 -0.5462 -0.1677
16106TIP3   OH269732   5.401   5.964   2.473  0.0925  0.4472 -0.2524
16106TIP3    H169733   5.324   5.952   2.529 -0.1444  1.6643 -0.2958
16106TIP3    H269734   5.448   6.038   2.513  0.1975  0.9940 -1.3666
16107TIP3   OH269735   0.501   2.679   0.940  0.1500  0.0153  0.5241
16107TIP3    H169736   0.543   2.716   1.017 -0.7704 -0.7537  1.4252
16107TIP3    H269737   0.563   2.694   0.869  2.9538 -2.8872  2.1161
16108TIP3   OH269738   3.725   6.122   0.132 -0.5085 -0.0046 -0.0768
16108TIP3    H169739   3.801   6.118   0.074 -1.3848  1.1394 -1.3542
16108TIP3    H269740   3.663   6.060   0.093 -0.5363 -0.3777  0.5413
16109TIP3   OH269741   1.880   5.587  14.023  0.1105 -0.0404  0.4615
16109TIP3    H169742   1.966   5.559  13.992 -0.4296 -0.9978 -0.2089
16109TIP3    H269743   1.895   5.612  14.115  0.5856 -2.8834  1.2515
16110TIP3   OH269744   2.472   2.812   3.798  0.0937 -0.0701 -0.4353
16110TIP3    H169745   2.499   2.862   3.721  0.3510  0.5710  0.0574
16110TIP3    H269746   2.550   2.808   3.853  0.2128 -1.4442 -0.6707
16111TIP3   OH269747   3.544   0.589  15.553 -0.5190  0.2028  0.5035
16111TIP3    H169748   3.482   0.590  15.626 -0.8289 -0.4036  0.2567
16111TIP3    H269749   3.627   0.618  15.591 -0.1130 -2.1971  1.6192
16112TIP3   OH269750   1.076   4.063  14.097 -0.0351 -0.4825 -0.2863
16112TIP3    H169751   0.990   4.022  14.109  0.4321 -0.9885  1.8336
16112TIP3    H269752   1.085   4.121  14.172  0.4983  1.4617 -1.7803
16113TIP3   OH269753   2.661   3.203  16.090 -0.0932  0.5859 -0.3671
16113TIP3    H169754   2.647   3.110  16.107  0.1861  0.4364 -0.9316
16113TIP3    H269755   2.738   3.226  16.142  0.2786  0.3226 -0.7942
16114TIP3   OH269756   4.040   0.756  12.276 -0.1933  0.1277  0.2549
16114TIP3    H169757   3.975   0.821  12.302 -0.3723 -0.1573  0.5332
16114TIP3    H269758   3.988   0.682  12.244 -0.0981 -0.8598  2.2244
16115TIP3   OH269759   6.655   4.436   2.822 -0.0797 -0.6061  0.4174
16115TIP3    H169760   6.687   4.511   2.872  2.1360 -0.7446 -0.7131
16115TIP3    H269761   6.601   4.474   2.753  1.2939 -0.0001 -0.3437
16116TIP3   OH269762   5.513   4.882  13.339 -0.2260  0.0851  0.1627
16116TIP3    H169763   5.513   4.791  13.310  2.1295  0.3211 -0.8526
16116TIP3    H269764   5.536   4.878  13.432  1.7815 -0.3447 -0.3025
16117TIP3   OH269765   3.524   1.669   3.776 -0.3499 -0.3812  0.5537
16117TIP3    H169766   3.508   1.760   3.755  1.8036  0.4112  1.9861
16117TIP3    H269767   3.548   1.669   3.869 -0.3162 -2.3939  0.6026
16118TIP3   OH269768   6.574   4.674  12.765  0.2155 -0.2520 -0.1399
16118TIP3    H169769   6.629   4.728  12.708 -1.0287  0.1341 -1.0088
16118TIP3    H269770   6.485   4.692  12.736 -0.3449 -1.2674  0.8940
16119TIP3   OH269771   4.335   4.785  10.826 -0.3639 -0.2983 -0.8717
16119TIP3    H169772   4.406   4.846  10.807 -0.2052 -0.5249 -1.0017
16119TIP3    H269773   4.257   4.826  10.788 -0.4387  0.3009 -0.0931
16120TIP3   OH269774   3.467   2.080  15.387  0.5495  0.4713 -0.4909
16120TIP3    H169775   3.428   2.167  15.379  2.7711  1.8832  2.3020
16120TIP3    H269776   3.398   2.027  15.428  0.7145  2.3789  2.5723
16121TIP3   OH269777   6.184   6.583  14.320 -0.2902 -0.3725 -0.0756
16121TIP3    H169778   6.158   6.577  14.412 -1.9912 -2.6146 -0.6193
16121TIP3    H269779   6.105   6.615  14.275  1.1054  2.7184 -0.6197
16122TIP3   OH269780   4.348   0.078  13.411  0.4443  0.5793  0.0362
16122TIP3    H169781   4.369   0.045  13.323 -2.2541  2.0656 -1.3050
16122TIP3    H269782   4.403   0.156  13.421  0.6370  0.5104 -0.4473
16123TIP3   OH269783   4.828   6.385  12.069 -0.1310 -0.5122  0.2325
16123TIP3    H169784   4.848   6.474  12.097  0.5084  0.5301 -3.0514
16123TIP3    H269785   4.911   6.338  12.079 -0.2150 -0.4983  1.0714
16124TIP3   OH269786   3.800   6.684  16.031 -0.0200  0.5710  0.1256
16124TIP3    H169787   3.800   6.597  16.069 -1.6690  0.6862  0.4633
16124TIP3    H269788   3.767   6.671  15.942 -0.6257  0.8767  0.2981
16125TIP3   OH269789   1.301   3.115  15.458 -0.2871 -1.0456  0.1394
16125TIP3    H169790   1.361   3.166  15.404  0.8321 -2.8909 -0.4780
16125TIP3    H269791   1.330   3.131  15.548  1.3900 -2.1310 -0.1642
16126TIP3   OH269792   5.013   5.056  12.012 -0.4978 -0.6738  0.1178
16126TIP3    H169793   5.044   5.040  11.923  2.7109 -1.6518  1.2520
16126TIP3    H269794   5.014   4.970  12.054  1.0736  0.1143  1.8643
16127TIP3   OH269795   2.653   5.915  13.323  0.2436  0.0359 -0.0621
16127TIP3    H169796   2.599   5.990  13.298 -0.7910 -0.6295  0.1195
16127TIP3    H269797   2.591   5.843  13.334  0.9097 -0.2714  2.2322
16128TIP3   OH269798   0.425   6.554  11.311 -0.0415  0.2418  0.6541
16128TIP3    H169799   0.422   6.460  11.329 -0.6890  0.3538  1.1436
16128TIP3    H269800   0.383   6.563  11.225  0.0657  0.0788  0.5841
16129TIP3   OH269801   3.961   3.374  14.095 -0.5323 -0.5942  0.2034
16129TIP3    H169802   4.034   3.393  14.154 -0.1726  0.6460 -0.6228
16129TIP3    H269803   3.946   3.455  14.047 -3.1428 -0.4774  1.0616
16130TIP3   OH269804   5.762   2.758   6.216  0.1996 -0.2805  0.6133
16130TIP3    H169805   5.848   2.785   6.183  1.0953 -0.3384  2.7375
16130TIP3    H269806   5.759   2.663   6.202 -0.0067 -0.1121 -0.5049
16131TIP3   OH269807   5.527   6.650   3.675  0.3403 -0.0450 -0.0151
16131TIP3    H169808   5.577   6.577   3.711  0.1311  0.1578  0.7128
16131TIP3    H269809   5.441   6.614   3.657 -0.2170  0.3356  1.6987
16132TIP3   OH269810   4.528   0.071  16.349 -0.0946 -0.4980  0.0885
16132TIP3    H169811   4.494   0.159  16.336  0.1161 -0.1480  1.7548
16132TIP3    H269812   4.466   0.030  16.410  0.8963 -0.8176  0.9057
16133TIP3   OH269813   3.025   1.199  17.397 -0.1583 -0.0204 -0.4720
16133TIP3    H169814   3.063   1.154  17.472 -0.0557  0.9320  0.0630
16133TIP3    H269815   2.986   1.278  17.434  0.6486  0.8971 -1.5300
16134TIP3   OH269816   4.384   0.919   5.106  0.3935  0.2859  0.1854
16134TIP3    H169817   4.459   0.916   5.166  2.2343 -0.3213 -2.0027
16134TIP3    H269818   4.411   0.867   5.031 -2.4056 -0.2423 -0.5746
16135TIP3   OH269819   5.353   1.298  11.412  0.0629  0.3241 -0.7692
16135TIP3    H169820   5.437   1.335  11.440 -0.8532  2.2711 -0.4416
16135TIP3    H269821   5.362   1.288  11.317  0.6174  0.6164 -0.7508
16136TIP3   OH269822   3.076   0.846   0.371  0.3560  0.8829  0.1073
16136TIP3    H169823   3.007   0.782   0.386  0.4008  0.4177 -1.4255
16136TIP3    H269824   3.105   0.830   0.281  2.4224  1.0994  0.6640
16137TIP3   OH269825   0.783   3.192   4.067 -0.2067 -0.3962  0.1736
16137TIP3    H169826   0.833   3.273   4.064 -1.6310  0.5051 -2.0922
16137TIP3    H269827   0.700   3.215   4.108 -0.7078 -0.6267 -0.6825
16138TIP3   OH269828   4.679   1.234  11.231  0.6557  0.8280  0.2702
16138TIP3    H169829   4.719   1.212  11.315  0.2598 -1.0280  0.0116
16138TIP3    H269830   4.597   1.278  11.255  0.3938  0.0320  0.8621
16139TIP3   OH269831   1.367   3.434  11.192 -0.1020  0.1270  0.9611
16139TIP3    H169832   1.420   3.415  11.115  0.0533  3.4521  0.1230
16139TIP3    H269833   1.419   3.494  11.244 -1.0303 -0.5137  2.7309
16140TIP3   OH269834   2.702   4.389  13.097  0.0698 -0.2699 -0.3573
16140TIP3    H169835   2.629   4.407  13.156  0.3496  0.1468 -0.1343
16140TIP3    H269836   2.779   4.419  13.144  0.3363 -0.2703 -0.7860
16141TIP3   OH269837   1.041   1.065  11.643 -0.5991 -0.0284 -0.2166
16141TIP3    H169838   1.103   1.041  11.712 -1.0949  0.9805  0.6188
16141TIP3    H269839   1.023   0.983  11.597  1.0446 -0.4019 -0.2418
16142TIP3   OH269840   1.895   2.182  16.723 -0.2937  0.2136 -0.1748
16142TIP3    H169841   1.945   2.226  16.792 -1.6458  0.5070  0.6623
16142TIP3    H269842   1.962   2.146  16.664  0.8816  0.9153  0.6773
16143TIP3   OH269843   0.641   6.261   1.849  0.5686  0.5820  0.2146
16143TIP3    H169844   0.704   6.253   1.921  0.0118  0.1818  0.6633
16143TIP3    H269845   0.567   6.308   1.886  0.3755  0.5851 -0.1665
16144TIP3   OH269846   4.034   0.721   3.130  0.0335  0.0264  0.1870
16144TIP3    H169847   4.052   0.629   3.152 -2.8247 -0.3834  1.2036
16144TIP3    H269848   4.060   0.729   3.038 -0.2959 -2.0147 -0.1325
16145TIP3   OH269849   4.480   4.472   0.999  0.2808  0.8309  0.2930
16145TIP3    H169850   4.568   4.435   1.000 -0.0089  0.1360  1.4834
16145TIP3    H269851   4.458   4.485   1.091 -0.6055  1.6269 -0.0147
16146TIP3   OH269852   6.712   0.614  12.879  0.1462  0.0065  0.5843
16146TIP3    H169853   6.797   0.573  12.861 -0.4672 -1.3180  0.5488
16146TIP3    H269854   6.731   0.680  12.945  1.0397 -1.0943  1.4821
16147TIP3   OH269855   5.947   6.058   0.200  0.0169  0.0172 -0.4120
16147TIP3    H169856   5.935   6.153   0.207  0.1945  0.0048  0.0781
16147TIP3    H269857   5.858   6.023   0.197 -0.0503  0.1835 -0.3881
16148TIP3   OH269858   3.085   1.314   6.299  0.7414  0.2934 -0.1979
16148TIP3    H169859   3.055   1.232   6.339  1.2192 -0.4048 -1.2515
16148TIP3    H269860   3.156   1.288   6.240  0.7116  1.4330 -0.7612
16149TIP3   OH269861   6.454   4.599   5.627  0.2860 -0.5794 -0.3095
16149TIP3    H169862   6.444   4.618   5.534  0.2540 -1.5779 -0.5219
16149TIP3    H269863   6.476   4.683   5.667 -0.8313  0.0746 -1.0425
16150TIP3   OH269864   6.366   1.685   3.393  0.2164 -0.1491 -0.0663
16150TIP3    H169865   6.277   1.676   3.426  0.2998 -3.1242 -0.4062
16150TIP3    H269866   6.397   1.767   3.430 -1.7781 -0.3144  2.1784
16151TIP3   OH269867   0.255   3.225  13.115 -0.3526 -0.4360  0.1493
16151TIP3    H169868   0.309   3.293  13.156  0.2439  0.4074 -1.8988
16151TIP3    H269869   0.313   3.183  13.052 -1.8768  0.0815 -1.6834
16152TIP3   OH269870   3.478   1.864   5.460  0.0679  0.0913  0.0680
16152TIP3    H169871   3.447   1.871   5.370 -1.9064 -0.1312  0.7008
16152TIP3    H269872   3.453   1.777   5.488  1.4567 -0.1716  0.5891
16153TIP3   OH269873   3.919   5.019  16.783 -0.2510  0.0744 -0.1835
16153TIP3    H169874   3.877   4.973  16.710 -1.6720 -0.3453  0.8360
16153TIP3    H269875   3.958   4.949  16.836 -0.1152  0.2755 -0.0197
16154TIP3   OH269876   5.943   5.718   0.116  0.3488 -0.3360  0.4683
16154TIP3    H169877   5.965   5.808   0.091 -1.2543  0.0917  0.4567
16154TIP3    H269878   6.012   5.665   0.077  0.8340  0.8126 -0.2966
16155TIP3   OH269879   5.594   1.649  11.888  0.5713 -0.0742 -0.1561
16155TIP3    H169880   5.568   1.664  11.797 -0.3856 -0.3666  0.0457
16155TIP3    H269881   5.647   1.570  11.885  0.1147 -0.3798 -0.4136
16156TIP3   OH269882   3.780   4.073  12.460 -0.2211  0.4483 -0.0374
16156TIP3    H169883   3.809   4.027  12.539 -0.3820 -1.4432 -1.0094
16156TIP3    H269884   3.857   4.073  12.403 -0.6869 -0.1717 -0.6998
16157TIP3   OH269885   3.669   1.331  11.166 -0.1098 -0.5910  0.0351
16157TIP3    H169886   3.672   1.307  11.259  0.3854  0.0275  0.1853
16157TIP3    H269887   3.750   1.380  11.151 -0.6176  0.1115 -0.4953
16158TIP3   OH269888   1.039   4.452  14.884 -0.8220 -0.2946  0.0018
16158TIP3    H169889   1.126   4.488  14.901 -0.8873 -0.1883  0.1172
16158TIP3    H269890   1.035   4.445  14.788 -0.6007 -0.5205  0.0079
16159TIP3   OH269891   1.486   1.687  14.966 -0.4490  0.0798  0.6015
16159TIP3    H169892   1.496   1.592  14.955 -1.6080  0.1011 -0.9424
16159TIP3    H269893   1.569   1.723  14.936 -0.6335 -0.3716 -0.5173
16160TIP3   OH269894   1.358   3.770  11.450 -0.5213  0.3661 -0.5847
16160TIP3    H169895   1.337   3.863  11.453  1.5279  0.8688  1.3495
16160TIP3    H269896   1.274   3.726  11.442 -1.8892  2.3324  1.6496
16161TIP3   OH269897   4.807   1.435  11.514 -0.3379 -0.2880  0.0641
16161TIP3    H169898   4.775   1.345  11.518  1.2294 -1.0216 -2.1825
16161TIP3    H269899   4.879   1.438  11.577 -0.3050 -0.6388  0.0425
16162TIP3   OH269900   4.195   4.886   1.080 -0.8790 -0.0766 -0.3762
16162TIP3    H169901   4.209   4.936   0.999  0.3112  1.3170  0.6205
16162TIP3    H269902   4.175   4.953   1.146 -0.8145 -1.0760  0.6874
16163TIP3   OH269903   0.686   6.745   1.700 -0.1282 -0.2992 -0.7791
16163TIP3    H169904   0.682   6.770   1.607 -0.9815  0.8869 -0.4492
16163TIP3    H269905   0.611   6.789   1.739 -1.3074 -2.8487  0.0251
16164TIP3   OH269906   5.734   4.822   4.424 -0.0897  0.0847 -0.7995
16164TIP3    H169907   5.828   4.832   4.408 -0.2514  1.4441 -0.9406
16164TIP3    H269908   5.721   4.852   4.514 -0.2438 -1.1437 -0.3840
16165TIP3   OH269909   0.448   2.434  15.992  0.0830  0.6634  0.0247
16165TIP3    H169910   0.425   2.346  15.962  0.5092 -0.1099  1.8290
16165TIP3    H269911   0.369   2.486  15.976 -0.4170 -0.2183 -0.4534
16166TIP3   OH269912   4.918   2.597   4.718 -0.3945  0.3428 -0.4990
16166TIP3    H169913   4.900   2.691   4.715 -0.0045  0.4125 -0.7715
16166TIP3    H269914   5.010   2.591   4.744 -0.3726  0.0433 -0.6371
16167TIP3   OH269915   1.935   4.316  13.829 -0.2354  0.3240  0.0158
16167TIP3    H169916   1.916   4.314  13.923 -0.0469  0.1065  0.0497
16167TIP3    H269917   1.903   4.232  13.796  0.8272 -0.1338  0.1074
16168TIP3   OH269918   4.146   2.634  16.247  0.4361 -0.1447  0.2692
16168TIP3    H169919   4.206   2.686  16.301  0.2769  0.4213 -0.0997
16168TIP3    H269920   4.095   2.698  16.199  0.1549 -0.6428 -0.1029
16169TIP3   OH269921   1.984   3.440  14.009  0.4859 -0.1284  0.0754
16169TIP3    H169922   1.988   3.371  14.075  0.0897  1.0835  1.4470
16169TIP3    H269923   2.071   3.480  14.011  0.4460 -0.0352 -0.0682
16170TIP3   OH269924   0.788   0.698  13.308  0.1231 -0.4371  0.0629
16170TIP3    H169925   0.823   0.787  13.317  1.6781 -0.8001 -1.6640
16170TIP3    H269926   0.865   0.645  13.286 -1.2212 -1.6037 -2.1349
16171TIP3   OH269927   2.953   2.092  14.137  0.5819 -0.5943  0.3016
16171TIP3    H169928   2.859   2.104  14.148  0.8594  0.6239  1.5847
16171TIP3    H269929   2.961   2.014  14.082 -1.1574 -0.8447  0.3574
16172TIP3   OH269930   2.596   1.663  14.193  0.3685  0.4427  0.2158
16172TIP3    H169931   2.687   1.658  14.163  1.0058 -0.8915  2.1741
16172TIP3    H269932   2.569   1.753  14.174  1.2928  0.2482 -2.4981
16173TIP3   OH269933   3.135   6.592   2.362  0.5642 -0.2997 -0.0481
16173TIP3    H169934   3.143   6.499   2.385 -0.2555 -0.2195  0.6411
16173TIP3    H269935   3.145   6.594   2.267  1.1689 -1.0174 -0.0109
16174TIP3   OH269936   4.803   0.995  16.598  0.1568  0.2651  0.4842
16174TIP3    H169937   4.789   1.048  16.520 -0.1109  2.6752  2.0606
16174TIP3    H269938   4.894   0.966  16.592  0.1775  0.5170 -0.6470
16175TIP3   OH269939   1.451   3.053   3.109  0.2071 -0.0497 -0.2313
16175TIP3    H169940   1.392   2.987   3.073 -0.0616  0.1383 -0.1334
16175TIP3    H269941   1.472   3.109   3.034 -1.9313  1.5437  0.2763
16176TIP3   OH269942   4.720   5.935  13.164 -0.4495  0.1864 -0.0013
16176TIP3    H169943   4.806   5.973  13.146  0.6881 -2.3927 -0.3966
16176TIP3    H269944   4.662   5.972  13.097  0.2572  2.0822  0.3757
16177TIP3   OH269945   5.979   4.298  13.680 -0.2587  0.6276 -0.1900
16177TIP3    H169946   6.026   4.344  13.749 -0.2843 -1.0135  0.9811
16177TIP3    H269947   5.998   4.206  13.695 -2.3787  0.0224 -0.7825
16178TIP3   OH269948   0.302   6.364  14.135 -0.2802  0.2874  0.2147
16178TIP3    H169949   0.262   6.330  14.055  0.1138  1.8260 -0.6870
16178TIP3    H269950   0.396   6.359  14.118 -0.1507 -0.5864  1.1291
16179TIP3   OH269951   1.202   6.258   3.272 -0.0605 -0.0841 -0.0903
16179TIP3    H169952   1.178   6.174   3.233  1.1949 -0.6777  0.3724
16179TIP3    H269953   1.152   6.262   3.353  1.8181 -1.6387  1.2338
16180TIP3   OH269954   4.007   3.703   5.232  0.6453 -0.2534 -0.2264
16180TIP3    H169955   3.916   3.681   5.252  1.1490 -0.3478  2.2556
16180TIP3    H269956   4.058   3.630   5.267  1.6744 -0.7834 -2.6333
16181TIP3   OH269957   4.245   3.308  12.337 -0.4649  0.0918  0.3236
16181TIP3    H169958   4.320   3.252  12.355  0.0125  1.3386  2.4973
16181TIP3    H269959   4.184   3.291  12.408 -0.7306  1.5903  0.4949
16182TIP3   OH269960   3.253   3.510  17.257  0.3667  0.5438  0.3751
16182TIP3    H169961   3.227   3.536  17.168 -1.6966 -0.3314  0.6526
16182TIP3    H269962   3.206   3.571  17.314  0.6831  0.3081  0.8931
16183TIP3   OH269963   1.044   3.654   2.899  0.4685 -0.2468 -0.3712
16183TIP3    H169964   1.130   3.690   2.922  0.2365  0.8625 -1.1432
16183TIP3    H269965   1.055   3.623   2.809  0.2581 -0.7549 -0.2200
16184TIP3   OH269966   0.138   2.962   2.230  0.4575  0.2253 -0.3813
16184TIP3    H169967   0.139   3.057   2.226  0.5675  0.3821  2.1498
16184TIP3    H269968   0.071   2.940   2.294 -1.5189 -1.5774 -2.8590
16185TIP3   OH269969   3.183   5.545   1.361  0.4644 -0.4312  0.5444
16185TIP3    H169970   3.105   5.593   1.332  0.2470 -1.0283  0.1382
16185TIP3    H269971   3.183   5.557   1.456 -0.5705 -1.0750  0.6453
16186TIP3   OH269972   4.130   2.338  11.778  0.5150  0.4451 -0.5327
16186TIP3    H169973   4.224   2.340  11.794  0.7490  1.9141 -1.8960
16186TIP3    H269974   4.121   2.336  11.682 -0.8376  0.8930 -0.4433
16187TIP3   OH269975   3.827   4.754   2.075  0.3922  0.2127  0.0739
16187TIP3    H169976   3.887   4.819   2.039 -0.5019  1.4267  0.7202
16187TIP3    H269977   3.807   4.697   2.000 -0.3244  1.8357 -1.0208
16188TIP3   OH269978   5.658   1.684   5.776  0.0699 -0.1518 -0.2005
16188TIP3    H169979   5.668   1.741   5.700  0.2727 -0.9262 -0.7771
16188TIP3    H269980   5.741   1.691   5.823 -0.4667  1.2022  0.5933
16189TIP3   OH269981   1.013   2.961  11.770  0.2779 -0.0702  0.3179
16189TIP3    H169982   0.958   2.894  11.810  0.2663  1.1875  2.5362
16189TIP3    H269983   1.102   2.927  11.777  0.1947 -0.2178  0.6861
16190TIP3   OH269984   0.177   4.089  15.953 -0.0764 -0.1808 -0.3878
16190TIP3    H169985   0.120   4.013  15.943  0.3725 -0.4786 -0.7020
16190TIP3    H269986   0.245   4.061  16.015 -1.5306  0.9034  1.8240
16191TIP3   OH269987   2.504   2.441  13.266 -0.3526 -0.3971  0.3222
16191TIP3    H169988   2.514   2.461  13.359 -1.7250  3.1574 -0.1224
16191TIP3    H269989   2.558   2.506  13.221 -0.1056 -1.7127 -1.4262
16192TIP3   OH269990   1.285   3.715  17.069  0.5750  0.3430 -0.2015
16192TIP3    H169991   1.281   3.673  16.983  0.2878  2.2398 -1.1545
16192TIP3    H269992   1.256   3.647  17.130 -2.8358  0.0087 -1.9910
16193TIP3   OH269993   3.581   0.019  14.421  0.7608  0.5873 -0.0669
16193TIP3    H169994   3.676   0.028  14.414  0.7126  0.9990 -0.2061
16193TIP3    H269995   3.545   0.084  14.360  0.3936 -0.0155 -0.4978
16194TIP3   OH269996   2.549   6.487   1.150 -0.4553  0.0421  0.0821
16194TIP3    H169997   2.554   6.459   1.241 -0.3577  1.8386  0.6778
16194TIP3    H269998   2.479   6.552   1.149  1.0222  1.7060 -0.6200
16195TIP3   OH269999   1.435   0.753  12.609 -0.8408 -0.0868 -0.3696
16195TIP3    H170000   1.420   0.679  12.668  0.3757 -0.1355 -0.1126
16195TIP3    H270001   1.448   0.712  12.523  1.9923 -0.4017  0.1103
16196TIP3   OH270002   4.302   4.417  14.457  0.3466 -0.0521 -0.0549
16196TIP3    H170003   4.321   4.328  14.427 -0.1261 -0.4208  0.7220
16196TIP3    H270004   4.224   4.443  14.408 -1.5523 -1.3481  2.0819
16197TIP3   OH270005   5.519   6.033   1.218 -0.3015  0.4779  0.5120
16197TIP3    H170006   5.516   5.975   1.141 -0.9805  0.2583  0.6944
16197TIP3    H270007   5.545   5.976   1.290  0.0102  0.6145  0.5090
16198TIP3   OH270008   4.331   1.315  14.198 -0.4489  0.2588  0.4452
16198TIP3    H170009   4.250   1.271  14.223 -1.1119  0.7047 -0.8076
16198TIP3    H270010   4.381   1.250  14.150 -0.6146  0.3368  0.1650
16199TIP3   OH270011   5.782   1.487   1.714 -0.0045 -0.8871  0.1817
16199TIP3    H170012   5.774   1.478   1.619  1.7359  0.1957 -0.1212
16199TIP3    H270013   5.738   1.410   1.750 -3.0787 -0.0315 -1.3525
16200TIP3   OH270014   0.789   1.685  17.170  0.0703 -0.0854  0.2363
16200TIP3    H170015   0.872   1.698  17.217  0.7276 -0.8455 -0.6808
16200TIP3    H270016   0.759   1.774  17.150  0.3836  0.2116  1.0509
16201TIP3   OH270017   3.703   0.783   2.574 -0.1202  0.3625 -0.1342
16201TIP3    H170018   3.650   0.829   2.639  0.4350  0.0662  0.5518
16201TIP3    H270019   3.710   0.693   2.608 -0.1746  0.0853 -0.8278
16202TIP3   OH270020   5.658   1.622  13.814  0.2751  0.0525 -0.0871
16202TIP3    H170021   5.582   1.627  13.755 -0.3846 -0.3279  0.7160
16202TIP3    H270022   5.731   1.601  13.756 -0.8656 -3.7357 -0.4603
16203TIP3   OH270023   1.169   1.792  12.704 -0.1280 -0.0316  0.1565
16203TIP3    H170024   1.178   1.697  12.713 -1.9250 -0.0529  2.7724
16203TIP3    H270025   1.076   1.810  12.722  0.0651  2.1931 -0.6885
16204TIP3   OH270026   5.422   5.340  10.841  0.2041 -0.2509 -0.4568
16204TIP3    H170027   5.466   5.284  10.776  0.9145 -1.9549  1.4029
16204TIP3    H270028   5.406   5.422  10.794  0.2514 -1.5451 -2.9287
16205TIP3   OH270029   0.574   0.310  15.985 -0.0057 -0.6205 -0.5283
16205TIP3    H170030   0.571   0.216  16.004 -0.3157 -0.2160  1.6818
16205TIP3    H270031   0.482   0.334  15.971 -0.3883 -0.0677  2.4001
16206TIP3   OH270032   0.946   6.170   2.284 -0.1667  0.4029  0.0691
16206TIP3    H170033   0.886   6.200   2.352  0.0243 -0.9323  0.8591
16206TIP3    H270034   1.031   6.209   2.309  0.1613 -0.9983  1.2965
16207TIP3   OH270035   6.382   4.913  15.056 -0.5314 -0.1542 -0.4441
16207TIP3    H170036   6.331   4.973  15.110  1.1218  2.0601 -1.2347
16207TIP3    H270037   6.464   4.901  15.103 -0.6967 -1.6010 -0.4672
16208TIP3   OH270038   4.380   3.384  10.471  0.1364  0.6523 -0.3553
16208TIP3    H170039   4.410   3.302  10.433 -0.6269  0.5823 -0.8268
16208TIP3    H270040   4.379   3.446  10.398 -1.1655  0.5647 -0.4247
16209TIP3   OH270041   6.605   0.078   4.296 -0.5510  0.5565 -0.0677
16209TIP3    H170042   6.691   0.075   4.337 -0.3969  0.1708 -0.4119
16209TIP3    H270043   6.616   0.136   4.221 -1.2363  2.6195  1.3101
16210TIP3   OH270044   3.606   3.555   4.021 -0.0333 -0.0271  0.4361
16210TIP3    H170045   3.521   3.550   3.979  0.4079  0.9006 -0.5942
16210TIP3    H270046   3.668   3.528   3.954  0.5872  0.3995  0.8241
16211TIP3   OH270047   2.565   0.256   5.713  0.1537  0.2080 -0.1461
16211TIP3    H170048   2.539   0.284   5.625 -0.4504 -0.4815 -0.1930
16211TIP3    H270049   2.498   0.292   5.771 -0.7998 -1.3389 -0.2390
16212TIP3   OH270050   4.134   1.147  11.873  0.1097 -0.4590  0.3908
16212TIP3    H170051   4.047   1.109  11.884  0.6817 -1.5697  1.3023
16212TIP3    H270052   4.151   1.140  11.779 -0.9221  0.1076  0.1464
16213TIP3   OH270053   0.227   1.532   4.406 -0.0634  0.0951 -0.1225
16213TIP3    H170054   0.214   1.523   4.312  2.3233 -1.0522 -0.4409
16213TIP3    H270055   0.158   1.478   4.445 -0.2984 -0.4719 -1.2674
16214TIP3   OH270056   5.027   2.038   5.823 -0.3279 -0.0849  0.0483
16214TIP3    H170057   5.011   2.063   5.732 -0.4563  1.0054  0.3589
16214TIP3    H270058   4.959   2.083   5.872 -1.3015 -1.9859  0.5389
16215TIP3   OH270059   1.921   0.664  10.754  0.2734  0.7849 -0.0866
16215TIP3    H170060   2.006   0.686  10.794  1.1644 -0.1951 -1.3544
16215TIP3    H270061   1.899   0.741  10.701  0.0583  1.2903  0.7238
16216TIP3   OH270062   2.954   1.796   0.927 -0.3931 -0.2454 -0.3162
16216TIP3    H170063   2.859   1.804   0.941 -0.4143 -1.2569  0.2156
16216TIP3    H270064   2.975   1.708   0.959  0.8846  0.3200  0.4433
16217TIP3   OH270065   3.978   3.755   5.585 -0.0174 -0.4754  0.1439
16217TIP3    H170066   4.015   3.751   5.673 -0.7978 -2.0149  0.4386
16217TIP3    H270067   3.897   3.805   5.595  1.3713  2.0215 -0.3172
16218TIP3   OH270068   1.585   3.407  12.762  0.4506 -0.6782  0.4371
16218TIP3    H170069   1.651   3.343  12.788  0.6315 -0.8987 -0.5287
16218TIP3    H270070   1.579   3.467  12.837 -0.8687 -2.6947  2.0669
16219TIP3   OH270071   2.156   4.106  11.066  0.1162  0.0831 -0.1164
16219TIP3    H170072   2.087   4.099  10.999  0.4280  1.3992 -0.6041
16219TIP3    H270073   2.174   4.199  11.072 -0.2571  0.0742  2.2013
16220TIP3   OH270074   4.030   6.653  16.757  0.5408  0.1384  0.4859
16220TIP3    H170075   4.097   6.713  16.724  0.7903  0.6174  1.7907
16220TIP3    H270076   3.948   6.687  16.722  0.8362  0.3816  0.0229
16221TIP3   OH270077   6.510   4.560   3.285 -0.0083  0.5402 -0.3872
16221TIP3    H170078   6.436   4.499   3.292  1.6948 -1.6061 -0.1148
16221TIP3    H270079   6.478   4.640   3.326 -1.6264 -0.8812  1.3487
16222TIP3   OH270080   6.735   0.006  11.488  0.7039  0.1813 -0.3403
16222TIP3    H170081   6.676   0.073  11.525 -0.3655 -0.8475 -0.1149
16222TIP3    H270082   6.816   0.053  11.469  0.2147  1.3964  0.4561
16223TIP3   OH270083   5.935   5.311  16.389 -0.2761  0.0810  0.0776
16223TIP3    H170084   5.876   5.247  16.349  0.7490 -0.4036 -0.6903
16223TIP3    H270085   5.921   5.391  16.340  0.3020 -0.2625 -0.6668
16224TIP3   OH270086   4.733   2.399  16.828  0.2646  0.0784 -0.2784
16224TIP3    H170087   4.731   2.321  16.883 -0.4081  1.1102  1.2165
16224TIP3    H270088   4.815   2.442  16.851 -0.1664  0.6732  0.1690
16225TIP3   OH270089   6.424   5.927   4.861 -0.0763  0.6149 -0.5924
16225TIP3    H170090   6.510   5.909   4.900  0.0963 -0.5499 -1.4713
16225TIP3    H270091   6.381   5.842   4.859 -1.4727  1.2701  0.3149
16226TIP3   OH270092   5.502   4.649   2.985 -0.5585 -0.2119  0.5722
16226TIP3    H170093   5.505   4.742   3.004  0.3320 -0.1484  0.1743
16226TIP3    H270094   5.430   4.639   2.923 -0.3560  0.2821  0.2531
16227TIP3   OH270095   6.664   0.521   4.372 -0.2951  0.2442 -0.1684
16227TIP3    H170096   6.601   0.561   4.433  1.3780  1.4434  0.8711
16227TIP3    H270097   6.648   0.566   4.289 -0.7714  0.5872  0.1006
16228TIP3   OH270098   5.587   0.449  14.760  0.5856 -0.5203 -0.2168
16228TIP3    H170099   5.497   0.452  14.792  0.6826 -1.9624  0.3077
16228TIP3    H270100   5.581   0.478  14.669 -0.4184 -0.6567 -0.2122
16229TIP3   OH270101   1.996   2.605  13.466 -0.5257 -0.6913  0.9466
16229TIP3    H170102   2.088   2.630  13.456 -1.0912  1.0166 -0.7723
16229TIP3    H270103   1.975   2.558  13.385 -1.2200 -0.8000  1.1807
16230TIP3   OH270104   6.485   4.282  12.562 -0.2204 -0.3972  0.5043
16230TIP3    H170105   6.450   4.204  12.519 -2.6986  0.7383  0.2531
16230TIP3    H270106   6.511   4.252  12.649 -0.1696 -1.6859  0.0646
16231TIP3   OH270107   3.822   5.851   0.171 -0.4012  0.2836 -0.0347
16231TIP3    H170108   3.783   5.894   0.247 -0.6999 -1.3629  0.7881
16231TIP3    H270109   3.916   5.870   0.180 -0.3087 -0.6530  1.2864
16232TIP3   OH270110   1.353   4.752   1.097  0.3768 -0.1312 -0.0295
16232TIP3    H170111   1.437   4.798   1.086  0.3107  0.1989  0.8363
16232TIP3    H270112   1.320   4.782   1.181  0.5370 -2.0946  0.7754
16233TIP3   OH270113   1.516   0.556   0.795  0.1136  0.1963 -0.0627
16233TIP3    H170114   1.445   0.499   0.764 -0.2648  0.7810 -0.2727
16233TIP3    H270115   1.486   0.645   0.776  1.6213  0.3982 -1.6624
16234TIP3   OH270116   0.909   5.881  11.694 -0.4352 -0.3947  0.1503
16234TIP3    H170117   0.908   5.914  11.604 -1.2253 -0.6833  0.0517
16234TIP3    H270118   0.932   5.789  11.686 -0.9179 -0.5215  0.2084
16235TIP3   OH270119   1.526   1.593   5.758  0.1988  0.0223 -0.0388
16235TIP3    H170120   1.449   1.596   5.701  0.4671  0.5609 -0.3806
16235TIP3    H270121   1.598   1.623   5.702  0.7573 -0.9749  0.1182
16236TIP3   OH270122   2.992   3.855   2.387 -0.3221  0.6636 -0.3258
16236TIP3    H170123   2.998   3.792   2.459 -0.9714 -0.2483 -1.0367
16236TIP3    H270124   3.074   3.846   2.340  0.1887  1.4058  0.3945
16237TIP3   OH270125   6.656   4.460  16.504  0.2102  0.4730  0.4060
16237TIP3    H170126   6.731   4.400  16.506  0.5337  0.8724  0.3949
16237TIP3    H270127   6.580   4.403  16.494  0.6032  0.1421 -0.9343
16238TIP3   OH270128   0.765   2.255   2.851 -0.4805  0.0033  0.7321
16238TIP3    H170129   0.778   2.345   2.822 -0.7424 -0.2510 -0.1950
16238TIP3    H270130   0.841   2.237   2.907 -0.1592  0.6271  0.5071
16239TIP3   OH270131   0.465   2.545   3.297 -0.2822 -0.9735  0.4932
16239TIP3    H170132   0.378   2.508   3.313 -0.8058 -0.8056 -1.6921
16239TIP3    H270133   0.455   2.638   3.315 -0.4367 -1.0193  0.6526
16240TIP3   OH270134   4.686   3.153  15.198  0.1286  0.4653 -0.3670
16240TIP3    H170135   4.773   3.192  15.191  0.5258 -0.6139 -2.3880
16240TIP3    H270136   4.686   3.108  15.283 -0.0847  4.0032  1.6870
16241TIP3   OH270137   5.677   0.173  11.974 -0.0103 -0.2342 -0.1136
16241TIP3    H170138   5.761   0.208  11.946 -0.6036 -1.1328 -3.3547
16241TIP3    H270139   5.679   0.080  11.949 -1.7714 -0.4076  0.2168
16242TIP3   OH270140   4.920   6.417   6.030 -0.2908  0.4738  0.2231
16242TIP3    H170141   4.886   6.456   6.111 -2.1554  0.2603 -0.4087
16242TIP3    H270142   4.864   6.341   6.015  0.1845  0.3774 -1.1326
16243TIP3   OH270143   3.214   3.531   5.423 -0.2728 -0.4841  0.0229
16243TIP3    H170144   3.241   3.454   5.374 -1.4818 -0.5841 -0.5410
16243TIP3    H270145   3.282   3.596   5.406 -0.1470 -0.8536 -0.9649
16244TIP3   OH270146   6.496   0.917   0.042 -0.0135  0.1438  0.4417
16244TIP3    H170147   6.412   0.961   0.028  0.6569  1.6715  0.9693
16244TIP3    H270148   6.474   0.837   0.090 -1.1840  0.3828  0.3278
16245TIP3   OH270149   5.121   6.205  14.779  0.0830  0.4329  0.0689
16245TIP3    H170150   5.042   6.196  14.832  1.2046 -0.2032  1.7072
16245TIP3    H270151   5.137   6.299  14.777 -0.1928  0.4937  0.5245
16246TIP3   OH270152   4.653   4.970  15.706  0.5154 -0.1245  0.5789
16246TIP3    H170153   4.558   4.961  15.698  0.4839  1.5230 -2.0852
16246TIP3    H270154   4.681   4.892  15.755 -1.8300 -2.6722 -1.7851
16247TIP3   OH270155   2.405   0.211  13.645 -0.2845 -0.2802  0.3957
16247TIP3    H170156   2.312   0.198  13.664  0.3418 -1.9114  2.6938
16247TIP3    H270157   2.439   0.258  13.721  0.9927 -0.6570  0.0797
16248TIP3   OH270158   1.476   5.702   6.357  0.4145  0.5252  0.0197
16248TIP3    H170159   1.544   5.686   6.291  0.5838  2.4183 -0.3269
16248TIP3    H270160   1.426   5.776   6.322 -1.9975 -0.9418  0.1633
16249TIP3   OH270161   0.773   0.025  11.830  0.5557  0.2446  0.1422
16249TIP3    H170162   0.747   0.112  11.800 -0.6494  1.0222  3.0641
16249TIP3    H270163   0.734  -0.035  11.767 -0.9851  1.7440 -0.4146
16250TIP3   OH270164   1.002   1.207  14.499  0.1927 -0.3319  0.7790
16250TIP3    H170165   1.085   1.255  14.499 -0.4931  0.8898  1.0125
16250TIP3    H270166   1.014   1.140  14.566  0.7031  0.3664  1.4143
16251TIP3   OH270167   3.952   5.691   3.684 -0.1012  0.2430 -0.6068
16251TIP3    H170168   4.012   5.617   3.688 -1.6353 -0.9762  0.6530
16251TIP3    H270169   3.984   5.752   3.750 -0.0072 -0.2167 -0.2276
16252TIP3   OH270170   0.420   3.117  14.280  0.5277  0.2670  0.1512
16252TIP3    H170171   0.467   3.121  14.364  2.3004 -2.1300 -0.6020
16252TIP3    H270172   0.354   3.049  14.293  0.4381  0.2812 -0.2315
16253TIP3   OH270173   0.373   4.213  14.858 -0.9442 -0.0682 -0.4164
16253TIP3    H170174   0.331   4.140  14.905 -0.1104  0.5634  1.3975
16253TIP3    H270175   0.332   4.212  14.771 -1.8178 -1.9347 -0.0360
16254TIP3   OH270176   4.872   2.730   1.884  0.0991 -0.4924 -0.4223
16254TIP3    H170177   4.816   2.679   1.942 -0.1696  1.4232  1.1205
16254TIP3    H270178   4.942   2.762   1.941  0.1601  0.9492 -1.2652
16255TIP3   OH270179   2.603   6.232   3.611 -1.0555  0.2351  0.3604
16255TIP3    H170180   2.590   6.298   3.679 -1.3539  0.3612  0.1823
16255TIP3    H270181   2.534   6.168   3.627  1.0607 -1.7100  2.4850
16256TIP3   OH270182   2.240   3.825  13.211 -0.4037  0.3854 -0.0381
16256TIP3    H170183   2.254   3.899  13.152  3.1855 -0.5248 -0.5991
16256TIP3    H270184   2.266   3.748  13.160  2.1693 -0.5302  2.3580
16257TIP3   OH270185   4.458   4.621   2.710  0.0525  0.2037 -0.5611
16257TIP3    H170186   4.439   4.715   2.714  0.0259  0.1500  0.9130
16257TIP3    H270187   4.526   4.613   2.643 -0.9841  1.0818 -1.7735
16258TIP3   OH270188   3.944   5.835   2.744 -0.1413  0.7409 -0.3637
16258TIP3    H170189   3.916   5.777   2.673 -1.3263  1.4732 -0.5140
16258TIP3    H270190   4.039   5.845   2.730 -0.4088  1.2002 -2.1172
16259TIP3   OH270191   4.319   1.176   5.002 -0.4712 -0.5073  0.2795
16259TIP3    H170192   4.317   1.220   4.917 -0.7650 -0.2670  0.4113
16259TIP3    H270193   4.372   1.098   4.986  3.5017  1.7753  0.9664
16260TIP3   OH270194   4.977   0.127  12.045  0.0258 -0.0459  0.0954
16260TIP3    H170195   4.930   0.172  12.115 -1.4661 -0.9255 -0.2878
16260TIP3    H270196   4.945   0.166  11.964  1.1421  0.4129 -0.1394
16261TIP3   OH270197   2.905   3.976   0.291 -0.0149 -0.6064  0.7096
16261TIP3    H170198   2.857   3.913   0.237 -0.3988 -0.1199  0.4887
16261TIP3    H270199   2.897   3.942   0.380 -0.4203 -0.7401  0.6219
16262TIP3   OH270200   5.285   3.080  11.826  0.1586 -0.0723  0.9300
16262TIP3    H170201   5.209   3.136  11.813 -0.2885 -1.0939 -1.1422
16262TIP3    H270202   5.261   2.995  11.788  1.6156 -1.0445  2.0095
16263TIP3   OH270203   1.426   4.808  12.707 -0.2006 -0.5210  0.1447
16263TIP3    H170204   1.408   4.748  12.779  1.2370  1.3241  2.1854
16263TIP3    H270205   1.521   4.820  12.709 -0.0077 -0.8871 -2.5283
16264TIP3   OH270206   5.069   3.510  14.091 -0.2058  0.2270  0.5289
16264TIP3    H170207   5.065   3.416  14.073 -0.1298  0.5397 -1.2752
16264TIP3    H270208   5.163   3.531  14.089 -0.2968  0.5693 -0.4153
16265TIP3   OH270209   5.849   3.875  13.786  0.1594 -0.0394  0.5021
16265TIP3    H170210   5.859   3.781  13.800 -1.1718 -0.5528 -1.5798
16265TIP3    H270211   5.768   3.898  13.831  0.6490  0.2004  1.2799
16266TIP3   OH270212   0.793   4.719   2.662  0.2820  0.1513  0.2917
16266TIP3    H170213   0.802   4.778   2.586 -1.7370 -1.5694 -1.4192
16266TIP3    H270214   0.743   4.645   2.628  0.3739 -1.2837  3.0622
16267TIP3   OH270215   5.227   2.020  15.657 -0.5120  0.2104 -0.5161
16267TIP3    H170216   5.204   2.038  15.748  2.3055 -0.1170  0.3424
16267TIP3    H270217   5.215   1.925  15.647  1.0722 -0.0943  0.1727
16268TIP3   OH270218   4.636   3.578  10.497 -0.4191  0.1276 -0.1999
16268TIP3    H170219   4.583   3.502  10.475  1.9119 -1.7396  0.2387
16268TIP3    H270220   4.710   3.574  10.436 -0.0743  1.8742  0.0513
16269TIP3   OH270221   2.636   1.044  16.965 -0.1520  0.2020  0.2532
16269TIP3    H170222   2.692   1.048  17.042  0.9777  0.6366 -0.5515
16269TIP3    H270223   2.575   1.117  16.975 -1.8081 -1.3391  2.0142
16270TIP3   OH270224   1.881   4.399   4.129 -0.1803 -0.2003  0.0407
16270TIP3    H170225   1.924   4.404   4.214 -0.2179  2.5789 -0.0189
16270TIP3    H270226   1.810   4.463   4.134 -0.5112 -0.3562 -1.8850
16271TIP3   OH270227   4.285   4.122  13.476  0.1038  0.0788  0.1199
16271TIP3    H170228   4.208   4.175  13.496 -0.4918 -1.0786  1.0025
16271TIP3    H270229   4.251   4.033  13.465  1.1125 -0.1999 -1.0552
16272TIP3   OH270230   5.549   5.448   1.151  0.1044 -0.2322  0.4289
16272TIP3    H170231   5.463   5.414   1.123 -0.0424  0.4497  0.0059
16272TIP3    H270232   5.539   5.465   1.244 -0.1117 -0.4952  0.4540
16273TIP3   OH270233   6.598   3.787   4.355 -0.1438 -0.6092  0.2342
16273TIP3    H170234   6.655   3.745   4.419 -0.7214  0.4399  1.5017
16273TIP3    H270235   6.524   3.819   4.407 -1.3424 -0.9748 -1.1941
16274TIP3   OH270236   5.245   3.559   1.922  0.2998 -0.5410 -0.4221
16274TIP3    H170237   5.214   3.483   1.972  1.0834 -0.6883 -0.1348
16274TIP3    H270238   5.274   3.621   1.989 -2.0314  0.8203 -0.5631
16275TIP3   OH270239   0.922   4.740  15.139 -0.0117 -0.5150 -0.7754
16275TIP3    H170240   0.926   4.758  15.045 -0.1700 -0.1217 -0.7086
16275TIP3    H270241   0.915   4.645  15.145  2.5400 -0.7914 -1.0975
16276TIP3   OH270242   1.299   0.751   3.368  0.0666  0.3103 -0.1547
16276TIP3    H170243   1.220   0.741   3.316 -0.0544 -0.5687  0.1901
16276TIP3    H270244   1.334   0.837   3.342  0.1077 -0.1758 -1.7975
16277TIP3   OH270245   4.046   4.233  12.867 -0.0257 -0.0973 -0.4393
16277TIP3    H170246   4.016   4.150  12.831  1.2999  0.0383 -1.9648
16277TIP3    H270247   3.968   4.288  12.869 -0.4466 -0.6092 -1.7272
16278TIP3   OH270248   0.377   2.579  10.823  0.6807 -0.2614 -0.2879
16278TIP3    H170249   0.282   2.584  10.808  0.7200  2.0194 -0.1295
16278TIP3    H270250   0.415   2.608  10.740  1.1089  2.3410  0.7237
16279TIP3   OH270251   6.616   1.415  11.553  0.2212  0.2456  0.0806
16279TIP3    H170252   6.558   1.471  11.502 -1.7979 -1.6612  0.0826
16279TIP3    H270253   6.613   1.452  11.641 -0.3278  0.6929 -0.1169
16280TIP3   OH270254   4.822   6.705  11.519  0.1558 -0.4397  0.3737
16280TIP3    H170255   4.741   6.667  11.486 -1.1356  2.7654 -0.4859
16280TIP3    H270256   4.794   6.765  11.588  1.5399  1.8296 -0.8938
16281TIP3   OH270257   4.421   5.327  15.792  0.3041 -0.3711  0.5270
16281TIP3    H170258   4.410   5.415  15.755 -1.9720 -0.9292 -0.2897
16281TIP3    H270259   4.364   5.326  15.869 -1.7073 -1.8378 -0.8766
16282TIP3   OH270260   5.426   5.088   1.273 -0.0647 -0.4552  0.4227
16282TIP3    H170261   5.348   5.125   1.231  0.1531  0.4747  0.7913
16282TIP3    H270262   5.413   5.106   1.366  1.3688  1.3013  0.3357
16283TIP3   OH270263   5.365   6.561   4.689  0.3113 -0.6130 -0.0668
16283TIP3    H170264   5.331   6.540   4.602 -1.0795  0.0440  0.2817
16283TIP3    H270265   5.384   6.476   4.729 -1.3288 -1.0561 -0.1616
16284TIP3   OH270266   1.820   5.020   0.839 -0.1022  0.5486  0.9099
16284TIP3    H170267   1.852   5.107   0.814  1.0672 -0.3978 -1.2271
16284TIP3    H270268   1.726   5.024   0.823  0.1287  1.0411 -0.5302
16285TIP3   OH270269   6.188   0.920  13.783  0.6529 -0.3210 -0.0220
16285TIP3    H170270   6.274   0.952  13.757  1.1423 -0.7033  1.0702
16285TIP3    H270271   6.174   0.842  13.729  0.8804 -0.1294 -0.3630
16286TIP3   OH270272   5.851   1.807  12.878  0.0706  0.0200  0.1771
16286TIP3    H170273   5.800   1.863  12.819 -1.3395 -0.7968  0.5775
16286TIP3    H270274   5.815   1.720  12.867  1.9414 -0.7743 -0.0970
16287TIP3   OH270275   4.938   4.486   1.501 -0.2391 -0.4902  0.1542
16287TIP3    H170276   4.880   4.419   1.467 -0.4986  0.4306 -1.3119
16287TIP3    H270277   4.987   4.517   1.425 -0.8763  1.6988  0.5556
16288TIP3   OH270278   5.398   1.842  15.905  0.2605 -0.1766  0.0800
16288TIP3    H170279   5.382   1.748  15.900 -2.1854  0.1619  0.0976
16288TIP3    H270280   5.360   1.868  15.989 -2.6212  1.3320 -1.5300
16289TIP3   OH270281   5.465   4.227  15.033  0.5666  0.1707 -0.2284
16289TIP3    H170282   5.393   4.234  14.970 -0.2846 -0.6850  0.6132
16289TIP3    H270283   5.423   4.228  15.118  1.7636  2.0829  0.4024
16290TIP3   OH270284   5.415   5.082   0.443  0.0844  0.8621  0.1530
16290TIP3    H170285   5.424   5.175   0.461 -3.7904  1.1182  1.6641
16290TIP3    H270286   5.401   5.078   0.348  0.9245  1.7052 -0.0253
16291TIP3   OH270287   4.641   2.616  11.765 -0.6523  0.1373  0.0004
16291TIP3    H170288   4.726   2.573  11.759 -1.1177 -1.0073  1.2817
16291TIP3    H270289   4.650   2.677  11.838 -0.8707  0.1629  0.0066
16292TIP3   OH270290   4.090   3.923  14.205 -0.2317  0.2903  0.0148
16292TIP3    H170291   4.011   3.870  14.216 -0.5905  0.2668 -2.2630
16292TIP3    H270292   4.162   3.863  14.224 -0.6842 -0.6433 -1.1043
16293TIP3   OH270293   1.562   5.776  12.176  0.2751  0.7793 -0.1149
16293TIP3    H170294   1.510   5.701  12.148 -0.0869  1.2218 -0.6634
16293TIP3    H270295   1.506   5.852  12.158  0.4504  1.1615  0.8403
16294TIP3   OH270296   3.967   5.164  13.001 -0.4450 -0.5176 -0.6773
16294TIP3    H170297   4.007   5.130  13.081 -0.9465  0.1723 -0.1201
16294TIP3    H270298   4.012   5.118  12.930 -1.0930 -2.3545  0.0299
16295TIP3   OH270299   1.173   0.480   5.756 -0.6454  0.1930  0.2004
16295TIP3    H170300   1.081   0.498   5.773 -1.3713 -2.8592  0.0909
16295TIP3    H270301   1.221   0.529   5.823 -2.1290  3.1614 -0.7271
16296TIP3   OH270302   3.581   6.088  12.893 -0.3298 -0.1842 -0.4589
16296TIP3    H170303   3.642   6.161  12.895  0.3748 -0.7690  0.2824
16296TIP3    H270304   3.606   6.038  12.815 -0.6884  0.2514 -0.8589
16297TIP3   OH270305   4.026   5.830  13.929  0.4915 -0.1773 -0.0383
16297TIP3    H170306   4.022   5.885  13.851  1.1264 -1.1418 -0.7732
16297TIP3    H270307   4.101   5.772  13.914 -0.0773 -1.1576  0.7629
16298TIP3   OH270308   1.051   2.386   4.732 -0.4682  0.3392  0.5005
16298TIP3    H170309   1.086   2.391   4.821 -0.7194  0.0139  0.6199
16298TIP3    H270310   0.980   2.450   4.730 -2.1788 -1.4168  1.3346
16299TIP3   OH270311   3.897   3.960   1.716 -0.3223  0.4517 -0.5722
16299TIP3    H170312   3.817   3.980   1.765  1.7483  0.0032  3.4262
16299TIP3    H270313   3.949   4.040   1.723  1.0518 -0.4779  0.2329
16300TIP3   OH270314   2.636   1.155  16.710 -0.1427 -0.0498 -0.0903
16300TIP3    H170315   2.650   1.086  16.646 -1.6981  1.2868 -1.9749
16300TIP3    H270316   2.658   1.114  16.794  0.7882 -2.2248 -1.3153
16301TIP3   OH270317   4.063   5.099  10.607 -0.0310  0.7460  0.0721
16301TIP3    H170318   3.991   5.138  10.557 -0.1822 -0.2822 -0.5486
16301TIP3    H270319   4.135   5.162  10.598 -0.7200  1.5966  0.3673
16302TIP3   OH270320   0.952   2.406  16.242  0.6249 -0.0307 -0.1857
16302TIP3    H170321   0.951   2.328  16.297 -0.7932 -1.2061 -1.7919
16302TIP3    H270322   0.862   2.416  16.211  0.7878  2.2021 -0.1316
16303TIP3   OH270323   2.927   3.124  16.895 -0.1140 -0.2871 -0.4993
16303TIP3    H170324   3.007   3.107  16.944 -0.1734  0.8721  0.0310
16303TIP3    H270325   2.868   3.165  16.959  0.2418  2.4675 -1.7812
16304TIP3   OH270326   1.360   2.031   2.478 -0.0782 -0.5584 -0.2472
16304TIP3    H170327   1.320   1.947   2.453 -0.8329 -0.5113  0.7429
16304TIP3    H270328   1.304   2.064   2.549  1.0897  0.0459  0.4247
16305TIP3   OH270329   3.430   0.835  10.262 -0.4167 -1.0139 -0.1712
16305TIP3    H170330   3.489   0.910  10.252 -2.2464  0.3782 -1.1200
16305TIP3    H270331   3.451   0.800  10.349  0.0994  0.9850  0.5731
16306TIP3   OH270332   0.476   1.050  16.636 -0.0610  0.4452  0.0301
16306TIP3    H170333   0.431   1.061  16.552 -1.5356  1.0627  0.8693
16306TIP3    H270334   0.447   1.125  16.689  1.8286  0.7725  0.6874
16307TIP3   OH270335   1.654   1.459   0.475  0.4043 -0.3565  0.2168
16307TIP3    H170336   1.682   1.477   0.565 -0.7189 -0.5658  0.6239
16307TIP3    H270337   1.725   1.493   0.421  0.0735  1.9202  1.0845
16308TIP3   OH270338   2.406   3.213   1.882 -0.0977  0.1136  0.0609
16308TIP3    H170339   2.463   3.287   1.859  1.2049 -0.4775  1.2376
16308TIP3    H270340   2.451   3.169   1.954 -2.2061 -0.2273  1.2657
16309TIP3   OH270341   4.711   5.952   6.158  0.0007 -0.0047 -0.4355
16309TIP3    H170342   4.719   5.857   6.157  2.5796  0.1435 -1.1995
16309TIP3    H270343   4.710   5.975   6.251  1.5280 -0.7184 -0.1980
16310TIP3   OH270344   3.474   6.513  13.155 -0.2527  0.6475 -0.0463
16310TIP3    H170345   3.453   6.452  13.085  2.3746  0.0843 -0.4552
16310TIP3    H270346   3.417   6.588  13.139 -0.4342  0.1193 -2.2100
16311TIP3   OH270347   5.104   1.048  13.844 -0.2716  0.2341 -0.1274
16311TIP3    H170348   5.193   1.070  13.871 -0.3271  1.3016 -0.7573
16311TIP3    H270349   5.097   1.084  13.756 -1.5830  0.8980  0.2233
16312TIP3   OH270350   2.136   3.311  11.197  0.5979 -0.0667  0.0757
16312TIP3    H170351   2.217   3.294  11.148  0.8822 -5.4334  1.8056
16312TIP3    H270352   2.165   3.322  11.287 -0.4589  1.5695  0.2472
16313TIP3   OH270353   2.259   1.134  12.573 -0.2426  0.0155 -0.2089
16313TIP3    H170354   2.233   1.220  12.539 -0.2771  0.0030 -0.2146
16313TIP3    H270355   2.354   1.136  12.572 -0.1914  0.8976  1.8498
16314TIP3   OH270356   1.898   6.014   1.188 -0.3754  0.2475  0.5156
16314TIP3    H170357   1.940   5.982   1.109 -0.5478 -0.0510  0.5441
16314TIP3    H270358   1.881   5.935   1.240  1.7669  0.5711  1.8625
16315TIP3   OH270359   6.491   0.636   0.064  0.3945  0.3015 -0.3040
16315TIP3    H170360   6.509   0.574   0.135 -0.2638 -0.0625 -0.4468
16315TIP3    H270361   6.512   0.587  -0.016 -0.4570  0.1464 -0.4330
16316TIP3   OH270362   4.989   5.450  15.839  0.3087 -0.1284  0.6264
16316TIP3    H170363   5.017   5.540  15.819 -0.4820  0.3681  1.6479
16316TIP3    H270364   4.900   5.460  15.873  0.4757 -1.2311  1.4259
16317TIP3   OH270365   3.251   3.495  16.623  0.0705  0.3235 -0.0287
16317TIP3    H170366   3.194   3.515  16.548  1.1874  0.8758 -0.7695
16317TIP3    H270367   3.263   3.579  16.666 -1.1688 -0.1175  1.2595
16318TIP3   OH270368   6.473   1.735  13.248 -0.1374  0.0950  0.2374
16318TIP3    H170369   6.554   1.731  13.301  0.5753 -3.4475 -0.8291
16318TIP3    H270370   6.460   1.828  13.232  1.1535  1.1899  4.2329
16319TIP3   OH270371   6.405   6.567   2.047 -0.1461 -0.1112  0.1500
16319TIP3    H170372   6.347   6.584   2.121  0.6921  1.2487  0.5232
16319TIP3    H270373   6.488   6.609   2.070  0.6855 -1.1508 -0.8147
16320TIP3   OH270374   1.378   2.232  14.454  0.4223 -0.2447 -0.7016
16320TIP3    H170375   1.432   2.154  14.449 -0.5022 -1.0096  0.5118
16320TIP3    H270376   1.426   2.299  14.406  2.9044 -0.6061  1.1036
16321TIP3   OH270377   5.444   0.333   3.398 -0.3171 -0.0540 -0.2143
16321TIP3    H170378   5.509   0.302   3.335 -0.6227 -1.5296  0.1609
16321TIP3    H270379   5.468   0.424   3.414 -0.2947  0.4245 -2.5407
16322TIP3   OH270380   5.591   4.603   3.957  0.3773  0.0170  0.2524
16322TIP3    H170381   5.528   4.670   3.981  1.1286  0.8661 -0.0759
16322TIP3    H270382   5.608   4.619   3.864  1.6350  0.2921  0.5162
16323TIP3   OH270383   5.532   1.753  13.236 -0.1319  0.9889 -0.6560
16323TIP3    H170384   5.547   1.847  13.240  2.0772  0.8673 -3.3507
16323TIP3    H270385   5.512   1.735  13.144  0.1099 -1.2362 -0.3402
16324TIP3   OH270386   5.042   1.582   0.505 -0.6291  0.2872 -0.1765
16324TIP3    H170387   5.012   1.548   0.590 -1.1370  0.9756 -0.0752
16324TIP3    H270388   5.101   1.654   0.528 -2.1842  1.6751 -0.4048
16325TIP3   OH270389   6.528   4.680  14.911 -0.1341 -0.0632  0.0141
16325TIP3    H170390   6.449   4.696  14.961 -1.8102  0.3558 -2.5863
16325TIP3    H270391   6.530   4.585  14.898  0.8306 -0.2918  1.5771
16326TIP3   OH270392   0.537   1.015   1.656 -0.5678  0.0346  0.6388
16326TIP3    H170393   0.598   0.949   1.624 -0.3684  0.2604  0.5494
16326TIP3    H270394   0.450   0.979   1.638 -0.4807  0.4671 -0.8394
16327TIP3   OH270395   4.511   2.999  10.565  0.3170  0.1919  0.2263
16327TIP3    H170396   4.530   2.921  10.513  0.5581 -0.6575  1.5559
16327TIP3    H270397   4.416   3.010  10.556 -0.3915 -2.4308  2.8656
16328TIP3   OH270398   2.119   2.427   1.385  0.1686  0.6362  0.4448
16328TIP3    H170399   2.084   2.497   1.330 -1.1100  0.3660  0.8774
16328TIP3    H270400   2.167   2.370   1.324 -0.6780  0.6890 -0.2858
16329TIP3   OH270401   5.487   0.789   2.337 -0.2473  0.5660 -0.3973
16329TIP3    H170402   5.426   0.750   2.400  0.1008 -0.9417 -0.9538
16329TIP3    H270403   5.568   0.802   2.387 -0.5045  1.0471 -0.0905
16330TIP3   OH270404   3.079   4.443  13.502 -0.3570  0.2366 -0.1886
16330TIP3    H170405   3.026   4.484  13.571  0.2969 -0.2780  0.6521
16330TIP3    H270406   3.085   4.508  13.433 -0.1551  1.1742  0.6982
16331TIP3   OH270407   3.527   1.359  13.394 -0.4148  0.1827  0.0415
16331TIP3    H170408   3.606   1.410  13.374 -0.1341 -0.4017 -0.3630
16331TIP3    H270409   3.471   1.421  13.441 -0.1304  0.9038 -0.5343
16332TIP3   OH270410   5.738   5.242  12.346  0.0021 -0.3406  0.3551
16332TIP3    H170411   5.657   5.270  12.304 -0.1104 -2.1488 -0.7599
16332TIP3    H270412   5.759   5.159  12.303  3.2497  0.7699 -0.4904
16333TIP3   OH270413   0.299   3.589   2.470  0.6179  0.0449 -0.4809
16333TIP3    H170414   0.377   3.557   2.517  0.3747 -0.9013 -0.6846
16333TIP3    H270415   0.329   3.599   2.379  1.1750  2.1889 -0.0970
16334TIP3   OH270416   4.113   0.350   4.799  0.4474  0.1288  0.4429
16334TIP3    H170417   4.020   0.327   4.806  0.4934 -0.0773  0.3873
16334TIP3    H270418   4.113   0.440   4.767  0.2658  0.0918  0.3384
16335TIP3   OH270419   4.674   2.091  13.478  0.1978  0.5387 -0.4835
16335TIP3    H170420   4.628   2.008  13.463  0.4366 -0.0133  1.5878
16335TIP3    H270421   4.723   2.105  13.397  0.3976 -1.5227 -0.7965
16336TIP3   OH270422   3.468   5.091   4.987 -0.2638 -0.3748 -0.0949
16336TIP3    H170423   3.462   5.111   4.893 -1.1615 -0.9644 -0.1743
16336TIP3    H270424   3.420   5.009   4.997  1.2094 -1.1777  0.6338
16337TIP3   OH270425   4.759   2.860  11.144 -0.0391 -0.1762 -0.1924
16337TIP3    H170426   4.824   2.795  11.117  0.8425  0.5555  0.1082
16337TIP3    H270427   4.744   2.842  11.237 -0.5261 -0.5618 -0.3455
16338TIP3   OH270428   2.176   5.316   4.955  0.3024 -0.6709 -0.3981
16338TIP3    H170429   2.250   5.307   5.015 -0.6410 -1.6378  0.6835
16338TIP3    H270430   2.099   5.307   5.011 -0.6287 -0.5210 -1.6072
16339TIP3   OH270431   1.216   5.802   1.535  0.0745  0.3043  0.0479
16339TIP3    H170432   1.160   5.804   1.458 -1.3245 -0.2653  1.0223
16339TIP3    H270433   1.187   5.877   1.587 -0.3845 -0.5023  0.9684
16340TIP3   OH270434   0.886   0.198  12.737 -0.4120 -0.1256  0.1833
16340TIP3    H170435   0.817   0.209  12.672 -0.0611  3.1373  0.2352
16340TIP3    H270436   0.846   0.143  12.804 -2.5392  0.6055 -0.3862
16341TIP3   OH270437   4.986   5.623   0.132  0.0786 -0.1369 -0.0013
16341TIP3    H170438   5.002   5.646   0.223  0.5129 -1.8497  0.3817
16341TIP3    H270439   5.061   5.661   0.085  0.6682 -0.5792  0.5705
16342TIP3   OH270440   0.597   2.033  10.385 -0.1626 -0.0810 -0.2154
16342TIP3    H170441   0.504   2.014  10.371 -0.3242 -0.0273  0.6836
16342TIP3    H270442   0.618   2.103  10.324 -1.1832  1.1565  0.7931
16343TIP3   OH270443   3.292   2.607   2.716  0.0980  0.4515  0.2307
16343TIP3    H170444   3.343   2.590   2.795  2.7552 -1.4753 -1.7308
16343TIP3    H270445   3.326   2.690   2.682 -0.8627  1.1433  0.8770
16344TIP3   OH270446   5.963   4.153  14.221  0.3280 -0.1217 -0.0036
16344TIP3    H170447   5.953   4.064  14.185 -2.7797  1.0125 -2.3921
16344TIP3    H270448   5.875   4.177  14.250  0.4771  3.0855 -1.8182
16345TIP3   OH270449   4.423   3.236   4.867 -0.6404 -0.6520 -0.5963
16345TIP3    H170450   4.395   3.181   4.940 -2.2099  0.6408 -0.1728
16345TIP3    H270451   4.388   3.192   4.789  0.2639 -1.5497 -0.5172
16346TIP3   OH270452   1.426   6.095   3.347 -0.3811  0.7115 -0.0041
16346TIP3    H170453   1.510   6.123   3.312 -1.0704  1.9536 -0.7345
16346TIP3    H270454   1.363   6.158   3.312 -1.6403 -0.2670  0.4190
16347TIP3   OH270455   1.073   5.117   0.627 -0.2869  0.0897 -0.1773
16347TIP3    H170456   1.129   5.143   0.701 -1.6520 -2.2216  1.7934
16347TIP3    H270457   0.984   5.135   0.657 -0.8235  1.0488 -2.1550
16348TIP3   OH270458   3.940   6.057  17.385 -1.1291  0.3323  0.1575
16348TIP3    H170459   4.009   6.108  17.343  0.0438  0.7777  2.4332
16348TIP3    H270460   3.951   5.968  17.351 -0.8056  0.8278 -1.0799
16349TIP3   OH270461   3.380   6.426   2.542 -0.1442 -0.1899  0.0113
16349TIP3    H170462   3.333   6.381   2.612 -1.3690  0.8022 -0.1497
16349TIP3    H270463   3.364   6.519   2.557  1.0402  0.1275 -0.5764
16350TIP3   OH270464   5.691   2.390  11.458 -0.6620  0.0400  0.0338
16350TIP3    H170465   5.663   2.481  11.463 -0.6600 -0.0285  1.9720
16350TIP3    H270466   5.785   2.394  11.438 -0.7455  0.4465 -0.2787
16351TIP3   OH270467   1.926   4.133  16.013 -0.1113 -0.3295 -0.6117
16351TIP3    H170468   1.934   4.101  16.103 -0.2280 -0.6263 -0.7055
16351TIP3    H270469   1.839   4.104  15.985 -1.1215  1.9061  0.0277
16352TIP3   OH270470   5.666   0.182  15.063  0.0564  0.1511  0.1328
16352TIP3    H170471   5.616   0.259  15.088  1.5533  0.9425  0.7912
16352TIP3    H270472   5.736   0.215  15.007  1.2176 -0.5869  1.1003
16353TIP3   OH270473   3.986   1.889   0.988  0.3543 -0.3686  0.0593
16353TIP3    H170474   3.999   1.890   0.893  0.5840  0.0582  0.0905
16353TIP3    H270475   4.070   1.859   1.023  0.4555  0.0168  0.1515
16354TIP3   OH270476   1.845   6.528   2.241 -0.0043  0.3274 -0.2692
16354TIP3    H170477   1.813   6.607   2.198  1.0080  1.3778  0.8481
16354TIP3    H270478   1.936   6.521   2.213 -0.5000 -1.3859 -1.6390
16355TIP3   OH270479   2.873   1.593  14.707 -0.0771 -0.0253  0.2462
16355TIP3    H170480   2.777   1.591  14.697 -0.2221  2.2579  0.7645
16355TIP3    H270481   2.902   1.661  14.647  1.2534 -0.6987  0.0999
16356TIP3   OH270482   0.966   2.677  11.869  0.2458  0.6057  0.3321
16356TIP3    H170483   0.947   2.621  11.794 -0.1265  0.9607  0.1605
16356TIP3    H270484   0.977   2.616  11.942 -1.4023  0.3797  0.4134
16357TIP3   OH270485   3.712   4.221  15.442 -0.1953 -0.2966  0.2760
16357TIP3    H170486   3.807   4.215  15.452 -0.1601  0.3441  0.3343
16357TIP3    H270487   3.679   4.138  15.477  0.3216 -0.4016  0.5145
16358TIP3   OH270488   1.814   5.179   4.310 -0.3431  0.1662  0.5768
16358TIP3    H170489   1.887   5.153   4.367  0.4563 -1.5037 -1.0900
16358TIP3    H270490   1.830   5.271   4.291 -0.6606  0.8041  2.9933
16359TIP3   OH270491   2.089   3.460   0.955  0.4180 -0.0351  0.2601
16359TIP3    H170492   2.145   3.448   0.879 -2.2265  1.4905 -2.1356
16359TIP3    H270493   2.091   3.554   0.972 -0.3665 -0.1306  0.9614
16360TIP3   OH270494   1.709   0.326  15.576 -0.0329 -0.2018 -0.1339
16360TIP3    H170495   1.635   0.319  15.516  0.1465 -1.0387 -0.2628
16360TIP3    H270496   1.782   0.285  15.530  0.1404 -0.7332  0.5979
16361TIP3   OH270497   0.969   5.008  12.641 -0.7375 -0.2048 -0.1761
16361TIP3    H170498   1.043   5.010  12.701 -1.3365  1.5847  0.5711
16361TIP3    H270499   0.931   4.921  12.652  0.1199 -0.4627  0.8407
16362TIP3   OH270500   0.450   1.710  14.874 -0.1712 -0.7315 -0.4288
16362TIP3    H170501   0.513   1.772  14.911 -0.6832 -0.7225  0.4580
16362TIP3    H270502   0.366   1.736  14.910 -0.6270 -1.0302 -1.2354
16363TIP3   OH270503   2.311   4.335  12.460  0.3278 -0.2018 -0.1044
16363TIP3    H170504   2.310   4.426  12.487  0.0865 -0.2137 -0.0683
16363TIP3    H270505   2.383   4.329  12.397  1.3752 -0.3409  1.0707
16364TIP3   OH270506   2.490   0.046   5.142 -0.6094  0.1065 -0.1618
16364TIP3    H170507   2.491  -0.042   5.104 -1.3221 -0.1922  0.4886
16364TIP3    H270508   2.583   0.069   5.150 -0.4273 -0.2101 -1.1718
16365TIP3   OH270509   3.461   6.604  12.788  0.1334  0.3366  0.1261
16365TIP3    H170510   3.531   6.559  12.740 -0.1519  0.7682 -0.6987
16365TIP3    H270511   3.499   6.621  12.874  1.0587  0.6011 -0.3246
16366TIP3   OH270512   5.758   5.504   0.243  0.3722  0.6095 -0.2105
16366TIP3    H170513   5.840   5.462   0.216  0.1094  0.3015 -0.5273
16366TIP3    H270514   5.759   5.497   0.338  0.6494  0.4870 -0.2189
16367TIP3   OH270515   5.482   3.946  17.390 -0.0751 -0.3086 -0.1690
16367TIP3    H170516   5.532   3.935  17.470  0.0692  0.7662 -0.0931
16367TIP3    H270517   5.500   3.867  17.339 -1.4453 -1.8028  1.4990
16368TIP3   OH270518   3.090   3.786  15.773  0.1224  0.2955  0.3817
16368TIP3    H170519   3.002   3.809  15.804 -0.3510 -1.2420  0.2692
16368TIP3    H270520   3.135   3.753  15.851  0.1808 -0.0727  0.1941
16369TIP3   OH270521   1.098   1.548   5.514 -0.7444  0.2955  0.1208
16369TIP3    H170522   1.162   1.482   5.539 -0.4496  0.6075  0.2028
16369TIP3    H270523   1.014   1.514   5.545 -0.3956  0.6459  1.5267
16370TIP3   OH270524   6.572   4.045  11.350  0.2384 -0.3397 -0.8641
16370TIP3    H170525   6.649   3.998  11.382 -0.3205 -1.0452 -0.5350
16370TIP3    H270526   6.522   3.979  11.303 -0.9813 -0.2891  0.3202
16371TIP3   OH270527   4.569   6.715  11.793  0.7824  0.3848  0.4529
16371TIP3    H170528   4.621   6.639  11.817  1.2019  1.2741  2.5482
16371TIP3    H270529   4.493   6.711  11.851  0.2976  1.0054 -0.1289
16372TIP3   OH270530   0.923   3.361  13.819  0.2383 -0.6730  0.0140
16372TIP3    H170531   0.971   3.289  13.861  2.1933 -0.0702 -1.0959
16372TIP3    H270532   0.965   3.440  13.853 -1.0708 -0.0651  0.2600
16373TIP3   OH270533   0.878   1.014   3.101  0.2419  0.0400 -0.1865
16373TIP3    H170534   0.872   0.936   3.046 -0.1769 -0.5935  0.7466
16373TIP3    H270535   0.802   1.009   3.158 -0.5768  1.8740 -1.0490
16374TIP3   OH270536   2.254   6.053   3.698  0.4925  0.1784 -0.7785
16374TIP3    H170537   2.190   6.013   3.639 -2.4137 -2.1813  3.4236
16374TIP3    H270538   2.326   5.990   3.701 -0.1310 -0.5527 -0.6538
16375TIP3   OH270539   5.270   6.096   3.485  0.1161 -0.4487 -0.0214
16375TIP3    H170540   5.213   6.023   3.461 -0.4826  0.2586 -0.7934
16375TIP3    H270541   5.328   6.060   3.553 -0.9592 -1.3003  0.4770
16376TIP3   OH270542   2.203   2.455   0.520 -0.1112 -0.2956 -0.2612
16376TIP3    H170543   2.260   2.378   0.515  0.6088  0.2659 -0.8421
16376TIP3    H270544   2.263   2.529   0.522 -0.7173  0.2101  2.5841
16377TIP3   OH270545   4.962   4.657  12.908  0.0493  0.3020 -0.1267
16377TIP3    H170546   5.022   4.615  12.847 -1.4249  1.1372 -2.3002
16377TIP3    H270547   4.999   4.745  12.921  0.9419 -0.2343  1.1098
16378TIP3   OH270548   1.408   2.695  16.916 -0.5190  0.1210 -0.1468
16378TIP3    H170549   1.486   2.701  16.861 -0.7034 -0.1378 -0.4405
16378TIP3    H270550   1.421   2.615  16.967  1.5280  2.3326  3.1314
16379TIP3   OH270551   5.148   4.303   4.720  0.3935 -0.1964  0.0939
16379TIP3    H170552   5.243   4.320   4.719  0.1629  1.1878 -0.8377
16379TIP3    H270553   5.138   4.230   4.780  2.2070 -1.2624 -0.7897
16380TIP3   OH270554   2.593   2.348   2.247  0.2922 -0.1441  0.1492
16380TIP3    H170555   2.666   2.293   2.277  0.3620 -1.1144 -1.6557
16380TIP3    H270556   2.561   2.304   2.168  0.5723  2.6129 -1.6106
16381TIP3   OH270557   6.679   2.110  11.725 -0.0872  0.4539  0.4218
16381TIP3    H170558   6.704   2.163  11.649  1.1025 -1.3296 -0.5235
16381TIP3    H270559   6.599   2.150  11.757  0.9867  3.0673  0.0712
16382TIP3   OH270560   5.102   3.310  16.397 -0.0856  0.0579  0.7897
16382TIP3    H170561   5.151   3.391  16.411 -0.2069  0.1281  0.8051
16382TIP3    H270562   5.013   3.339  16.379 -0.1035 -0.0674  0.6807
16383TIP3   OH270563   2.762   2.004  11.791  0.3696  0.5176  0.3613
16383TIP3    H170564   2.825   1.936  11.817  0.3654  1.1321  2.1300
16383TIP3    H270565   2.801   2.086  11.822  1.2017  1.6464 -3.2344
16384TIP3   OH270566   4.125   3.124  15.182 -0.0143 -0.1895  0.0115
16384TIP3    H170567   4.140   3.032  15.201 -0.4319 -0.1920  0.3590
16384TIP3    H270568   4.199   3.169  15.223 -0.3054 -0.2964  0.6774
16385TIP3   OH270569   3.081   2.303   2.867  0.7401  0.0277 -0.2592
16385TIP3    H170570   3.110   2.231   2.923  0.2105  0.2577  0.3211
16385TIP3    H270571   3.125   2.288   2.784  0.3845 -1.1517 -0.2504
16386TIP3   OH270572   5.301   3.098  16.194  0.4202 -0.4264 -0.0317
16386TIP3    H170573   5.344   3.183  16.195  1.6465 -1.0350  0.2520
16386TIP3    H270574   5.221   3.112  16.144 -1.0404  1.6877  2.6124
16387TIP3   OH270575   4.432   3.127   5.120  0.6056  0.2520  0.3169
16387TIP3    H170576   4.475   3.203   5.160  0.7065  0.5988 -0.4282
16387TIP3    H270577   4.357   3.109   5.177  1.9298 -0.5934  1.8435
16388TIP3   OH270578   2.706   3.926  10.407  0.3349  0.0442  0.0982
16388TIP3    H170579   2.779   3.885  10.361 -1.7816 -1.4892 -2.1346
16388TIP3    H270580   2.677   3.859  10.470  0.1706  0.2211  0.2116
16389TIP3   OH270581   6.606   1.120  11.111  0.2925  0.5635  0.5145
16389TIP3    H170582   6.685   1.145  11.160  0.5792  0.2194  0.2342
16389TIP3    H270583   6.556   1.202  11.103  1.5850  1.2615 -1.0834
16390TIP3   OH270584   6.008   3.603   4.202  0.1127 -0.5660 -0.2698
16390TIP3    H170585   5.925   3.649   4.211  0.2934 -0.2747 -0.0939
16390TIP3    H270586   6.042   3.630   4.117 -0.5297 -1.5990 -0.8875
16391TIP3   OH270587   2.885   4.428   0.976  0.2443  0.3282  0.1612
16391TIP3    H170588   2.972   4.455   1.005  0.1630 -0.0575  0.8045
16391TIP3    H270589   2.859   4.494   0.912  0.1957  1.5824  1.4250
16392TIP3   OH270590   5.408   6.238  14.486  0.3323  0.8033 -0.0724
16392TIP3    H170591   5.477   6.271  14.543 -1.8296  1.2733  2.4692
16392TIP3    H270592   5.351   6.314  14.471 -1.6455 -0.3628  1.0986
16393TIP3   OH270593   4.724   6.705  14.384  0.4724 -0.1923  0.5975
16393TIP3    H170594   4.698   6.614  14.368  0.1431 -0.0092  0.0584
16393TIP3    H270595   4.643   6.755  14.376  0.3943  0.0002  2.2722
16394TIP3   OH270596   2.415   4.556  16.305 -0.7239  0.1675  0.4731
16394TIP3    H170597   2.389   4.512  16.386 -2.1764 -0.9343 -0.5463
16394TIP3    H270598   2.386   4.646  16.316  0.0785  0.3106  1.5936
16395TIP3   OH270599   3.199   4.029  11.935 -0.2995  0.4942  0.0367
16395TIP3    H170600   3.191   4.124  11.930 -1.1019  0.4329 -0.0286
16395TIP3    H270601   3.278   4.014  11.986 -0.7805  1.1987  1.0187
16396TIP3   OH270602   2.808   0.991   0.198 -0.5581  0.3370 -0.2487
16396TIP3    H170603   2.870   0.918   0.191 -0.6386  0.2400  0.0635
16396TIP3    H270604   2.852   1.053   0.255 -0.0732  0.9630 -1.2607
16397TIP3   OH270605   6.693   2.517   1.582  0.4281  0.1440 -0.4174
16397TIP3    H170606   6.775   2.552   1.617 -0.0806  0.6907  0.2388
16397TIP3    H270607   6.704   2.523   1.487 -0.4056  4.1459 -0.4626
16398TIP3   OH270608   6.398   0.620  15.714 -0.3152  0.0763 -0.1198
16398TIP3    H170609   6.439   0.656  15.792  0.1665 -3.0491  1.2332
16398TIP3    H270610   6.451   0.653  15.641  1.6791 -0.0206  1.2005
16399TIP3   OH270611   1.220   4.611   2.295  0.0217  0.2654 -0.3137
16399TIP3    H170612   1.273   4.590   2.218  1.6391 -0.0174  0.8331
16399TIP3    H270613   1.280   4.655   2.355 -1.4088  1.2356  0.4722
16400TIP3   OH270614   6.670   0.365   6.262 -0.6491 -0.3559  0.2308
16400TIP3    H170615   6.655   0.439   6.203 -0.4743 -1.6714 -1.5562
16400TIP3    H270616   6.701   0.405   6.343  0.1802  1.4933 -0.9171
16401TIP3   OH270617   1.751   3.474   2.923 -0.8314  0.3327 -0.4564
16401TIP3    H170618   1.718   3.562   2.905 -0.0447  0.7705  0.1748
16401TIP3    H270619   1.844   3.486   2.943 -0.8825 -0.5359  0.4021
16402TIP3   OH270620   1.262   0.420  14.187  0.0836 -0.0414 -0.5419
16402TIP3    H170621   1.175   0.451  14.212  0.2569  0.4184 -0.5053
16402TIP3    H270622   1.290   0.367  14.262  0.8316  1.7901  0.5195
16403TIP3   OH270623   3.717   1.122   0.171 -0.3378 -0.0773  0.5488
16403TIP3    H170624   3.797   1.107   0.220  0.5690  2.1511 -0.1174
16403TIP3    H270625   3.746   1.156   0.086 -1.9407 -1.3041 -0.5669
16404TIP3   OH270626   5.371   4.860   0.041 -0.9257  0.4690  0.5927
16404TIP3    H170627   5.375   4.817   0.127 -0.6722 -1.5509 -0.3655
16404TIP3    H270628   5.454   4.837  -0.001 -1.4953  0.4983 -0.5899
16405TIP3   OH270629   4.529   6.594  12.980  0.4333  0.3828 -0.8683
16405TIP3    H170630   4.599   6.651  13.011 -0.8726  1.7387 -0.2204
16405TIP3    H270631   4.517   6.618  12.888  1.3932 -0.4936 -1.2325
16406TIP3   OH270632   5.381   1.127   0.160 -0.8116  0.1105 -0.1890
16406TIP3    H170633   5.411   1.052   0.107 -1.9931 -1.4490  1.2352
16406TIP3    H270634   5.454   1.144   0.220  0.4033  1.6801 -2.0259
16407TIP3   OH270635   1.199   3.057  12.034 -0.7611  0.4512 -0.0207
16407TIP3    H170636   1.170   3.000  11.962 -0.8277  0.9497 -0.3878
16407TIP3    H270637   1.291   3.075  12.014 -0.2474 -0.9016  0.9949
16408TIP3   OH270638   1.355   6.422  11.166 -0.3449 -0.1049 -0.4144
16408TIP3    H170639   1.298   6.380  11.102  1.1716  0.8579 -2.5049
16408TIP3    H270640   1.333   6.515  11.161 -0.5488 -0.0623  0.8770
16409TIP3   OH270641   5.570   1.420  17.256 -0.8045 -0.5178  0.0048
16409TIP3    H170642   5.550   1.359  17.185 -1.3483  0.2215 -0.4913
16409TIP3    H270643   5.507   1.491  17.245  1.5027  1.5029 -1.1174
16410TIP3   OH270644   6.717   0.564  11.918 -0.6052 -0.6973  0.7368
16410TIP3    H170645   6.664   0.505  11.972  1.1870 -1.2394  2.0410
16410TIP3    H270646   6.791   0.510  11.891 -0.1385  0.3222 -0.0580
16411TIP3   OH270647   5.983   1.163   4.099  0.1510 -0.6796 -0.1128
16411TIP3    H170648   5.937   1.080   4.103 -1.3214  0.1400  0.6883
16411TIP3    H270649   5.949   1.213   4.173 -0.8145  1.5182 -1.9294
16412TIP3   OH270650   4.775   5.501   0.445 -0.1281 -0.4955  0.3761
16412TIP3    H170651   4.754   5.467   0.359  1.3272 -0.9193  0.1548
16412TIP3    H270652   4.813   5.588   0.427 -0.5347 -0.2556  0.6583
16413TIP3   OH270653   0.366   5.197   3.414 -0.4834 -0.2825 -0.5724
16413TIP3    H170654   0.370   5.117   3.360  0.0246 -0.5207 -0.1885
16413TIP3    H270655   0.438   5.251   3.382  1.4379 -1.4680  1.4748
16414TIP3   OH270656   1.228   0.755   5.583  0.5569  0.4329 -0.2725
16414TIP3    H170657   1.169   0.749   5.508  0.0478 -3.6983  0.2413
16414TIP3    H270658   1.173   0.784   5.655  0.3427  1.3069 -0.7664
16415TIP3   OH270659   2.068   5.499  12.641 -0.3295 -0.2074 -0.1212
16415TIP3    H170660   1.989   5.447  12.628  0.8375 -1.6457 -1.9276
16415TIP3    H270661   2.048   5.583  12.598 -1.0399 -0.3883 -0.1570
16416TIP3   OH270662   1.634   3.302  17.368 -0.3854  0.5365 -0.0733
16416TIP3    H170663   1.551   3.314  17.323 -0.6393  1.4702  0.6197
16416TIP3    H270664   1.687   3.378  17.343  0.6019 -0.4719 -1.1949
16417TIP3   OH270665   5.290   0.693  13.540  0.7253  0.2588  0.2144
16417TIP3    H170666   5.300   0.686  13.635 -0.8864  0.2490  0.4075
16417TIP3    H270667   5.299   0.603  13.508  1.5787  0.3051  0.3174
16418TIP3   OH270668   1.614   0.302   4.890  0.5680  0.6551  0.5824
16418TIP3    H170669   1.527   0.282   4.924  0.3696  0.3235 -0.1028
16418TIP3    H270670   1.648   0.368   4.950  0.0854  0.3448  1.2069
16419TIP3   OH270671   5.546   6.312   0.856  0.4600  0.5532 -0.2185
16419TIP3    H170672   5.618   6.369   0.883  0.8386  0.0376 -0.1220
16419TIP3    H270673   5.492   6.303   0.934  0.2324  1.0255 -0.3196
16420TIP3   OH270674   5.226   5.875  12.034 -0.5011  0.2778 -0.0367
16420TIP3    H170675   5.217   5.961  11.992  0.3246 -0.0624 -0.9454
16420TIP3    H270676   5.298   5.886  12.096  0.4982 -0.0914 -1.1015
16421TIP3   OH270677   1.303   6.541  15.403  0.4192 -0.0561 -0.2432
16421TIP3    H170678   1.389   6.509  15.376  1.0524  1.7756 -0.5213
16421TIP3    H270679   1.316   6.573  15.493  0.2267  0.8635 -0.5287
16422TIP3   OH270680   2.300   4.513  12.852  0.2277 -0.1089  0.6846
16422TIP3    H170681   2.280   4.606  12.836 -1.0505 -0.6180 -1.0232
16422TIP3    H270682   2.395   4.511  12.864  0.9462  1.0446 -3.1859
16423TIP3   OH270683   2.547   5.695   2.575 -0.2745 -0.9508 -0.3590
16423TIP3    H170684   2.550   5.610   2.617  0.5110 -1.4969 -1.4888
16423TIP3    H270685   2.475   5.741   2.619 -0.6539 -2.1561  0.3120
16424TIP3   OH270686   1.587   4.915  14.827  0.1859  0.1879 -0.0664
16424TIP3    H170687   1.543   4.868  14.756 -0.1458  0.6702 -0.1838
16424TIP3    H270688   1.562   4.868  14.906 -0.2591  0.2512 -0.1679
16425TIP3   OH270689   2.654   0.104   0.979 -0.0157 -0.1270 -0.2022
16425TIP3    H170690   2.679   0.057   0.899  2.1865  0.3312  0.1560
16425TIP3    H270691   2.704   0.062   1.048  0.7210  1.5995  0.3873
16426TIP3   OH270692   4.538   3.937   2.052  0.6204 -0.0047 -1.0309
16426TIP3    H170693   4.554   3.919   1.959  2.3389 -0.0186 -0.7720
16426TIP3    H270694   4.469   4.003   2.052 -0.5446 -1.1769 -2.2485
16427TIP3   OH270695   5.972   5.210   3.150  0.5379 -0.2810  0.0865
16427TIP3    H170696   5.988   5.223   3.244 -2.2729 -1.9160  0.9145
16427TIP3    H270697   6.036   5.145   3.123  0.7942 -0.4707  1.1163
16428TIP3   OH270698   1.329   0.334  13.095  0.0199 -0.2637 -0.0145
16428TIP3    H170699   1.407   0.292  13.133  0.2214  0.8282  0.8186
16428TIP3    H270700   1.279   0.261  13.058  2.2881 -0.8486 -2.2302
16429TIP3   OH270701   6.438   2.808  17.127 -0.2669 -0.7651 -0.2597
16429TIP3    H170702   6.399   2.883  17.082  3.1363  1.5815  0.3463
16429TIP3    H270703   6.422   2.734  17.068 -3.5708  0.3384 -0.9891
16430TIP3   OH270704   1.073   1.315   5.794  0.0989 -0.4802  0.3457
16430TIP3    H170705   1.016   1.313   5.871  0.5690 -1.7352  0.6796
16430TIP3    H270706   1.154   1.275   5.823  0.6540 -0.0158 -0.5259
16431TIP3   OH270707   3.775   1.119   5.012 -0.3581  0.6171  0.3093
16431TIP3    H170708   3.870   1.106   5.006 -0.2452  0.3725  2.1459
16431TIP3    H270709   3.743   1.040   5.055 -1.2340  1.2672  0.8682
16432TIP3   OH270710   3.863   0.315   3.713 -0.2569 -0.3376  0.2016
16432TIP3    H170711   3.848   0.273   3.629  0.1366 -0.0846  0.0004
16432TIP3    H270712   3.899   0.246   3.769  0.9673 -0.1394 -0.3109
16433TIP3   OH270713   3.563   4.394   5.076  0.4904  0.0146 -0.2486
16433TIP3    H170714   3.468   4.381   5.074  0.3981  0.7226 -0.7385
16433TIP3    H270715   3.584   4.402   5.169  0.5436 -3.2810  0.1540
16434TIP3   OH270716   2.534   3.885  16.326 -0.2183 -0.3403  0.0702
16434TIP3    H170717   2.443   3.882  16.355 -0.8779  0.0626 -1.8211
16434TIP3    H270718   2.529   3.897  16.232  1.7336  4.0335  0.2777
16435TIP3   OH270719   0.323   2.863  15.512  0.1377  0.8919  1.0743
16435TIP3    H170720   0.398   2.804  15.513 -0.8835 -0.4640  2.6660
16435TIP3    H270721   0.319   2.895  15.422  1.7649 -0.0875  0.6064
16436TIP3   OH270722   3.602   2.852   1.645  0.4287 -0.1226  0.2652
16436TIP3    H170723   3.605   2.844   1.549 -1.8205  0.8197  0.0525
16436TIP3    H270724   3.564   2.769   1.675  0.4507 -0.1333  0.2632
16437TIP3   OH270725   4.655   1.660  14.665 -0.4189 -0.0765  0.2175
16437TIP3    H170726   4.611   1.682  14.583 -0.4676 -3.3316 -0.7597
16437TIP3    H270727   4.748   1.658  14.643 -0.0705  2.2497  1.1509
16438TIP3   OH270728   2.314   2.332   2.845 -0.3561  0.0613 -0.4808
16438TIP3    H170729   2.382   2.354   2.909 -0.3434 -1.5497  0.0945
16438TIP3    H270730   2.350   2.258   2.797 -1.0385  0.2410 -1.2914
16439TIP3   OH270731   6.061   5.701  15.878  0.0569  0.0495 -0.1114
16439TIP3    H170732   6.084   5.640  15.948 -2.2654  1.1431  1.7932
16439TIP3    H270733   6.093   5.786  15.909 -0.8719  0.5222 -0.4028
16440TIP3   OH270734   1.673   6.730  13.526 -0.0045  0.3220  0.7460
16440TIP3    H170735   1.660   6.639  13.499  1.2886  0.8199 -1.9000
16440TIP3    H270736   1.629   6.781  13.458  0.7883  1.6946  1.2336
16441TIP3   OH270737   0.730   5.472   4.100  0.0073 -0.2193  0.1500
16441TIP3    H170738   0.818   5.500   4.075  0.0098 -0.2363  0.1400
16441TIP3    H270739   0.679   5.554   4.103  0.3417 -0.0406  1.4705
16442TIP3   OH270740   0.585   5.213  14.400  0.5017  0.1670 -0.5386
16442TIP3    H170741   0.493   5.239  14.393  0.5423  0.3534 -0.3911
16442TIP3    H270742   0.627   5.284  14.448  0.2419 -1.0537  1.6192
16443TIP3   OH270743   5.030   5.056   3.154  0.0723  0.2264  0.1524
16443TIP3    H170744   5.110   5.107   3.170 -0.9479  2.2409 -0.8145
16443TIP3    H270745   5.019   5.059   3.059 -0.7496 -0.7129  0.2064
16444TIP3   OH270746   4.633   1.355   4.632 -0.8447 -0.1206  0.5122
16444TIP3    H170747   4.628   1.449   4.615 -0.1372 -0.1875 -0.1109
16444TIP3    H270748   4.631   1.315   4.546 -1.5730 -0.7072  0.7946
16445TIP3   OH270749   3.398   3.247  16.239  0.1425 -0.2528 -0.0556
16445TIP3    H170750   3.447   3.165  16.237  0.6489  0.0020  1.0652
16445TIP3    H270751   3.323   3.228  16.295 -0.5966 -0.3922 -1.0688
16446TIP3   OH270752   4.712   4.264   0.864 -0.4503  0.2560 -0.7300
16446TIP3    H170753   4.721   4.339   0.923  0.4737  0.3732 -1.0017
16446TIP3    H270754   4.792   4.265   0.811  0.7175 -2.2544  0.7972
16447TIP3   OH270755   5.383   6.349   4.875  0.7296 -0.2716 -0.0837
16447TIP3    H170756   5.345   6.361   4.962  0.6354  0.1615 -0.1805
16447TIP3    H270757   5.467   6.307   4.891  1.7891  1.9148  0.4217
16448TIP3   OH270758   1.528   5.208   2.101 -0.2840  0.3417  0.4223
16448TIP3    H170759   1.584   5.131   2.112  1.0427  0.5657 -3.2185
16448TIP3    H270760   1.439   5.175   2.107  0.0521 -0.3805  4.3457
16449TIP3   OH270761   3.333   1.874   4.861 -0.3763  0.0354  0.2477
16449TIP3    H170762   3.390   1.864   4.785 -0.1278  1.7403  0.1763
16449TIP3    H270763   3.392   1.906   4.930 -0.4864 -1.9541  1.3499
16450TIP3   OH270764   6.355   4.103  13.561  0.0947  0.4710 -0.0341
16450TIP3    H170765   6.300   4.097  13.639  1.3826  0.5022  0.9032
16450TIP3    H270766   6.440   4.068  13.588  0.7592  1.0637 -1.2417
16451TIP3   OH270767   4.948   4.209  12.063 -0.3203 -0.2366  0.2581
16451TIP3    H170768   4.943   4.120  12.099 -0.0232 -0.2954  0.1537
16451TIP3    H270769   4.933   4.266  12.139  2.3316 -0.3071  0.9267
16452TIP3   OH270770   2.374   2.120   0.929 -0.1289  0.1962  0.1566
16452TIP3    H170771   2.338   2.139   0.843 -0.5550  1.8609  0.6665
16452TIP3    H270772   2.320   2.171   0.989  0.5793 -0.4149  1.3397
16453TIP3   OH270773   5.186   4.467  13.793  0.0420 -0.0855 -0.2761
16453TIP3    H170774   5.275   4.441  13.819  1.1870  1.9706 -1.8584
16453TIP3    H270775   5.176   4.556  13.825 -2.1885 -0.8541  1.3963
16454TIP3   OH270776   6.414   2.674  13.148 -0.2456  0.5727 -0.2167
16454TIP3    H170777   6.401   2.647  13.058  0.4800  1.6707 -0.6765
16454TIP3    H270778   6.496   2.632  13.175  0.2897  1.3828 -0.5560
16455TIP3   OH270779   5.326   3.911   0.823  0.1510  0.3767  0.1816
16455TIP3    H170780   5.265   3.892   0.752 -0.1724  0.7211  0.3647
16455TIP3    H270781   5.272   3.953   0.890  0.3784 -0.2817  0.7879
16456TIP3   OH270782   6.296   2.524  16.271 -0.3763 -0.0769 -0.4040
16456TIP3    H170783   6.200   2.528  16.268 -0.3286  0.8860 -1.5968
16456TIP3    H270784   6.324   2.584  16.201  1.0565 -2.6198 -2.1804
16457TIP3   OH270785   3.847   1.828  12.998 -0.0006 -0.1743 -0.4500
16457TIP3    H170786   3.911   1.821  13.069  0.6011 -0.5321 -1.0205
16457TIP3    H270787   3.794   1.905  13.022  0.0890 -0.3825  0.4597
16458TIP3   OH270788   0.881   3.629  14.814 -0.1632 -0.1764 -0.4661
16458TIP3    H170789   0.909   3.716  14.842  1.4143 -0.2827 -1.6035
16458TIP3    H270790   0.956   3.593  14.767 -0.2677 -2.7278  1.1410
16459TIP3   OH270791   6.659   0.732  11.580  0.5420 -0.1324 -0.2754
16459TIP3    H170792   6.695   0.791  11.646  1.8557 -3.1998  2.0475
16459TIP3    H270793   6.723   0.733  11.509  0.9195  0.6563  0.0670
16460TIP3   OH270794   3.965   2.780   1.073 -0.3188  0.3483 -0.6846
16460TIP3    H170795   4.034   2.731   1.029  1.7446 -0.2572  2.8096
16460TIP3    H270796   4.006   2.865   1.094 -0.2585 -0.2306  1.9547
16461TIP3   OH270797   5.476   2.315   1.512  0.5232  0.1306 -0.1717
16461TIP3    H170798   5.432   2.231   1.528  0.6250  0.5142  2.4827
16461TIP3    H270799   5.566   2.290   1.487 -0.5679 -0.5950 -4.0970
16462TIP3   OH270800   3.015   6.105   1.977 -0.1098  0.6500 -0.5930
16462TIP3    H170801   2.920   6.115   1.988 -0.2883  1.8609 -2.7429
16462TIP3    H270802   3.024   6.024   1.928  0.0569  0.1132  0.2972
16463TIP3   OH270803   0.228   3.988  13.376 -0.2298 -0.0095  0.0174
16463TIP3    H170804   0.221   3.947  13.462  1.6455 -0.3678  0.0351
16463TIP3    H270805   0.142   4.027  13.361 -0.4232  0.5789  2.3077
16464TIP3   OH270806   1.194   4.125  16.337  0.2125 -0.1093  0.3050
16464TIP3    H170807   1.238   4.123  16.421  0.9818  0.8068 -0.0578
16464TIP3    H270808   1.250   4.075  16.278  0.4018  0.4417  0.0107
16465TIP3   OH270809   1.219   4.771  17.204  0.2882 -0.2360 -0.4230
16465TIP3    H170810   1.236   4.773  17.299  1.4974  0.8826 -0.6238
16465TIP3    H270811   1.142   4.827  17.193  0.9957  0.8080 -0.2252
16466TIP3   OH270812   6.573   5.934   1.667  0.2396 -0.9764  0.7740
16466TIP3    H170813   6.506   5.919   1.600  0.0668 -0.0928  0.7423
16466TIP3    H270814   6.524   5.960   1.745  0.5837  1.0592  0.3638
16467TIP3   OH270815   1.127   6.282  10.691 -0.1492  0.2330  0.5917
16467TIP3    H170816   1.218   6.255  10.693  0.2761  1.5966  0.8358
16467TIP3    H270817   1.128   6.370  10.652 -1.1311  0.9799  2.1324
16468TIP3   OH270818   3.541   5.357   2.460 -0.0503  0.2380 -0.1099
16468TIP3    H170819   3.539   5.415   2.537 -0.8486  0.6348 -0.4117
16468TIP3    H270820   3.583   5.277   2.491  1.1129  0.9898  0.3090
16469TIP3   OH270821   4.016   5.190   4.691  0.1834  0.0441 -0.1462
16469TIP3    H170822   4.069   5.203   4.613  0.9507 -0.5683  0.2591
16469TIP3    H270823   4.047   5.258   4.752  1.3994 -1.0754  0.5348
16470TIP3   OH270824   2.983   6.080  15.973 -0.0511 -0.0007  0.3904
16470TIP3    H170825   3.062   6.026  15.958 -0.8442 -1.5142  1.4011
16470TIP3    H270826   2.992   6.110  16.063 -0.4445  0.1380  0.3805
16471TIP3   OH270827   2.312   5.511   0.115  0.4914 -0.0456 -0.1257
16471TIP3    H170828   2.361   5.503   0.197 -1.5337 -3.3399  0.9866
16471TIP3    H270829   2.227   5.546   0.142 -0.0508 -0.7624 -0.8491
16472TIP3   OH270830   0.178   6.442   6.977  0.0152  0.2121 -0.4366
16472TIP3    H170831   0.141   6.434   6.889  0.4193  1.5026 -0.7492
16472TIP3    H270832   0.175   6.353   7.013 -2.9781  0.1478 -0.5736
16473TIP3   OH270833   2.343   2.915   3.457  0.0241  0.1665 -0.6604
16473TIP3    H170834   2.282   2.950   3.391  0.3619  0.5146 -0.7894
16473TIP3    H270835   2.297   2.839   3.493 -0.7934  0.8437 -0.2473
16474TIP3   OH270836   3.724   1.871   6.007  0.1640 -0.0974  0.0037
16474TIP3    H170837   3.712   1.966   6.018  1.9840  0.2174 -0.3356
16474TIP3    H270838   3.689   1.834   6.088 -0.0203  0.9327  0.4207
16475TIP3   OH270839   6.015   6.284   3.648 -0.0638  0.4128  0.6134
16475TIP3    H170840   6.062   6.279   3.731 -1.1673  3.3808  1.5526
16475TIP3    H270841   6.030   6.374   3.617 -2.0422  0.2915 -0.9089
16476TIP3   OH270842   1.263   1.855  11.669  0.4921  0.5749  0.1357
16476TIP3    H170843   1.309   1.919  11.723  0.1501  1.0419 -0.1270
16476TIP3    H270844   1.194   1.904  11.626  1.6060  0.5470 -1.8277
16477TIP3   OH270845   0.294   2.297   4.083  0.2664  0.0584  0.5998
16477TIP3    H170846   0.283   2.208   4.116 -0.6732  0.3123  1.0099
16477TIP3    H270847   0.388   2.305   4.066  0.1636 -1.6091 -1.1618
16478TIP3   OH270848   4.688   5.436   5.433  0.7122  0.1987 -0.3511
16478TIP3    H170849   4.671   5.483   5.352  0.9259  0.8084 -0.0464
16478TIP3    H270850   4.668   5.344   5.413 -0.4293  0.5264 -0.7246
16479TIP3   OH270851   3.125   3.247   0.313  0.3895 -0.1818  0.1612
16479TIP3    H170852   3.197   3.272   0.372 -1.1180 -0.4665  2.2496
16479TIP3    H270853   3.111   3.325   0.259  1.3572  0.3664  0.6613
16480TIP3   OH270854   5.291   2.438  10.204 -0.0199 -0.5886 -0.0700
16480TIP3    H170855   5.196   2.432  10.200 -0.1751  1.6741 -1.9000
16480TIP3    H270856   5.321   2.406  10.118  0.6236  1.2610 -0.5738
16481TIP3   OH270857   3.126   3.052   3.319  0.0255 -0.1096  0.5211
16481TIP3    H170858   3.127   3.130   3.262  0.2836  0.8815  1.8348
16481TIP3    H270859   3.035   3.023   3.318 -0.5080  1.4269  1.5871
16482TIP3   OH270860   5.950   5.091   2.715 -0.1712  0.1192  0.0624
16482TIP3    H170861   5.912   5.071   2.629 -0.5018  0.4489  0.1310
16482TIP3    H270862   5.946   5.186   2.721 -0.0344  0.1035  0.3922
16483TIP3   OH270863   6.444   5.095   4.972  0.0319 -0.1939 -0.1153
16483TIP3    H170864   6.365   5.050   5.001 -0.7066 -0.7317 -2.6588
16483TIP3    H270865   6.511   5.026   4.967  0.3393  0.0210  0.8398
16484TIP3   OH270866   1.408   2.896  15.652  0.0970  0.0738 -0.2177
16484TIP3    H170867   1.335   2.936  15.701 -0.1815  0.2457 -0.7628
16484TIP3    H270868   1.366   2.856  15.576  0.5754  0.1992 -0.5507
16485TIP3   OH270869   2.616   1.513   0.401  0.1155  0.2660  0.6901
16485TIP3    H170870   2.660   1.499   0.485  0.1359  2.2974  1.0720
16485TIP3    H270871   2.528   1.542   0.425 -0.3899 -0.5967 -0.0360
16486TIP3   OH270872   0.354   5.830   6.427  0.5374 -0.3134 -0.6922
16486TIP3    H170873   0.362   5.900   6.492  0.2798  2.3832 -3.3594
16486TIP3    H270874   0.260   5.820   6.414  0.5956 -0.6798 -0.8343
16487TIP3   OH270875   3.595   0.494  13.548  0.3895 -0.0686 -0.7268
16487TIP3    H170876   3.631   0.451  13.470  0.9954  1.3609 -1.2856
16487TIP3    H270877   3.508   0.456  13.560  0.4410 -0.5783 -1.8915
16488TIP3   OH270878   5.034   2.471   2.024 -0.1806 -0.7455 -0.6184
16488TIP3    H170879   5.050   2.544   2.083 -0.1447 -1.4815  0.3137
16488TIP3    H270880   5.064   2.501   1.938  0.1664  0.1880 -0.1761
16489TIP3   OH270881   5.648   3.987  17.066  0.3743 -0.7850 -0.2589
16489TIP3    H170882   5.719   4.038  17.027  1.4168 -0.3913  1.9910
16489TIP3    H270883   5.570   4.041  17.052  1.3241  1.1530  1.3460
16490TIP3   OH270884   1.459   3.512   0.991  0.6139  0.1474 -0.3608
16490TIP3    H170885   1.550   3.517   1.021  0.5084  0.9959 -0.1658
16490TIP3    H270886   1.420   3.594   1.019  0.4712  0.9709 -2.7628
16491TIP3   OH270887   2.058   3.476  12.066  0.3262 -0.3951  0.1093
16491TIP3    H170888   2.073   3.551  12.009  0.0819 -0.7924 -0.4763
16491TIP3    H270889   2.014   3.412  12.011 -1.3191 -0.2042  1.1358
16492TIP3   OH270890   6.414   5.803  16.456 -0.0488  0.4942 -0.6794
16492TIP3    H170891   6.444   5.850  16.534  0.3221  1.4839 -1.3956
16492TIP3    H270892   6.445   5.713  16.468 -0.6506  0.4385  0.6511
16493TIP3   OH270893   4.832   2.657   2.250 -0.2892  0.0505 -0.2059
16493TIP3    H170894   4.885   2.654   2.329 -0.6569  0.9102  0.0867
16493TIP3    H270895   4.872   2.726   2.197 -1.0903  0.7048  0.0156
16494TIP3   OH270896   4.840   3.020   3.113  0.0080 -0.3904  0.3586
16494TIP3    H170897   4.801   2.937   3.085 -0.9244 -0.0921  0.7276
16494TIP3    H270898   4.765   3.078   3.124  0.5946  0.2843  0.8350
16495TIP3   OH270899   0.392   1.183  13.807 -0.5352 -0.3229  0.7551
16495TIP3    H170900   0.475   1.159  13.848  0.4979  2.0723  0.2644
16495TIP3    H270901   0.407   1.170  13.713 -0.9263 -0.4155  0.7027
16496TIP3   OH270902   1.365   3.757   1.082  0.0152 -0.2367  0.0510
16496TIP3    H170903   1.320   3.765   0.998  0.1359 -0.7051 -0.0592
16496TIP3    H270904   1.294   3.751   1.146 -0.0876  1.2208  0.1067
16497TIP3   OH270905   6.285   3.458  13.701  0.2636  0.1088  0.6594
16497TIP3    H170906   6.325   3.532  13.746 -0.1194  0.3936  0.5400
16497TIP3    H270907   6.334   3.451  13.618  0.3703  0.1560  0.7183
16498TIP3   OH270908   0.395   5.005   5.787  0.2324 -0.3978  0.4059
16498TIP3    H170909   0.358   4.919   5.764 -0.5258  0.5520 -2.1968
16498TIP3    H270910   0.322   5.051   5.829  0.1951 -0.4793  0.4321
16499TIP3   OH270911   5.973   2.956  12.962  0.1127  0.0961  0.2641
16499TIP3    H170912   5.976   2.980  12.869 -1.6992 -0.2919  0.0795
16499TIP3    H270913   5.893   2.904  12.971  1.4734 -1.9117  1.5833
16500TIP3   OH270914   2.202   5.305  12.772 -0.0586 -0.5096  0.1541
16500TIP3    H170915   2.202   5.221  12.725  1.8985 -0.5782  0.2091
16500TIP3    H270916   2.162   5.366  12.710 -0.1862 -1.1956 -0.4636
16501TIP3   OH270917   3.905   2.587  15.551 -0.2130 -1.1608 -0.8234
16501TIP3    H170918   3.822   2.556  15.589  0.8390 -0.3583  2.4139
16501TIP3    H270919   3.967   2.517  15.570  0.5459 -0.3353 -0.2338
16502TIP3   OH270920   1.270   0.280   2.975  0.1927 -0.1800 -0.2722
16502TIP3    H170921   1.241   0.221   3.045 -1.2931  0.7314 -0.0787
16502TIP3    H270922   1.324   0.346   3.020  1.9419 -1.3803 -0.5034
16503TIP3   OH270923   0.703   3.534  15.233 -0.1523  0.0586 -0.8395
16503TIP3    H170924   0.774   3.520  15.296  1.0002  2.0168 -1.6116
16503TIP3    H270925   0.742   3.518  15.148 -1.1833 -0.7113 -1.1849
16504TIP3   OH270926   0.406   1.619  14.484 -0.2639  0.0337  0.3247
16504TIP3    H170927   0.436   1.540  14.438 -1.1068 -1.6499  2.5351
16504TIP3    H270928   0.486   1.670  14.497  0.3073 -0.4383 -1.1065
16505TIP3   OH270929   3.884   1.045   2.991  0.0827 -0.3250  0.5358
16505TIP3    H170930   3.811   0.988   3.015 -1.2418  0.7618 -0.6641
16505TIP3    H270931   3.907   1.018   2.902  0.2062  0.2266  0.3962
16506TIP3   OH270932   0.836   0.887  15.618 -0.7486  0.4361 -0.3112
16506TIP3    H170933   0.928   0.913  15.609 -0.2288 -1.4670 -1.0843
16506TIP3    H270934   0.786   0.963  15.588  0.6484  0.5681 -2.5026
16507TIP3   OH270935   4.360   5.335   4.388 -0.7019  0.1310  0.1775
16507TIP3    H170936   4.353   5.406   4.323 -1.4939  1.2516  1.4198
16507TIP3    H270937   4.421   5.369   4.454 -0.2864 -0.7848  0.2798
16508TIP3   OH270938   1.730   5.870  14.896  0.3002  0.9624 -0.4076
16508TIP3    H170939   1.823   5.850  14.897  0.1266 -0.5224 -3.2302
16508TIP3    H270940   1.690   5.801  14.949  0.6303  0.1165 -1.2366
16509TIP3   OH270941   4.695   5.945   3.320 -0.7276 -0.3761  0.3351
16509TIP3    H170942   4.688   6.029   3.365 -1.2923 -1.6851  2.8694
16509TIP3    H270943   4.629   5.890   3.362  1.4848 -2.9165  0.7341
16510TIP3   OH270944   0.086   5.322  15.653  0.0137 -0.5982 -0.1769
16510TIP3    H170945   0.026   5.284  15.717 -1.1826 -1.1808 -1.5744
16510TIP3    H270946   0.165   5.341  15.702  0.1156 -3.4269  0.9729
16511TIP3   OH270947   1.936   4.013   5.005 -0.5080 -0.2657 -0.2066
16511TIP3    H170948   1.860   3.965   5.038 -0.2823 -0.5595 -0.1226
16511TIP3    H270949   2.002   4.006   5.074  0.0298 -1.0413 -0.7842
16512TIP3   OH270950   3.128   0.498  14.439  0.2874 -0.7710 -0.0928
16512TIP3    H170951   3.165   0.578  14.475 -2.6223  0.8432 -0.4198
16512TIP3    H270952   3.078   0.460  14.512 -1.2833 -0.3152 -0.8935
16513TIP3   OH270953   6.485   5.659   1.034 -0.0643  0.1673  0.2823
16513TIP3    H170954   6.427   5.723   1.077 -2.2486 -1.4729 -0.0361
16513TIP3    H270955   6.431   5.581   1.025  2.5896 -1.8856  0.9305
16514TIP3   OH270956   2.095   0.040  16.525  0.0599  0.1466  0.2580
16514TIP3    H170957   2.177   0.087  16.541 -0.7764  1.2059  1.6544
16514TIP3    H270958   2.101  -0.038  16.581 -0.2431  0.7050  1.1046
16515TIP3   OH270959   0.134   5.643   0.478  0.7126  0.5387 -0.0431
16515TIP3    H170960   0.053   5.665   0.432  1.3549  0.1615 -1.4214
16515TIP3    H270961   0.149   5.717   0.537  0.7503  1.9424 -1.7082
16516TIP3   OH270962   5.679   4.110  12.300  0.7340 -0.1278  0.8534
16516TIP3    H170963   5.586   4.133  12.298  1.5626  3.9172 -0.1255
16516TIP3    H270964   5.707   4.119  12.209  2.1987 -0.8720  1.2040
16517TIP3   OH270965   6.527   6.431   2.454  0.4732  0.4810  0.3956
16517TIP3    H170966   6.517   6.346   2.410  0.2000  0.2873  0.8169
16517TIP3    H270967   6.438   6.465   2.459  0.7062  1.2816 -0.7048
16518TIP3   OH270968   0.204   2.602   1.674  0.1960 -0.7000 -0.4235
16518TIP3    H170969   0.223   2.531   1.735 -0.6031 -0.8989 -0.3942
16518TIP3    H270970   0.210   2.682   1.728 -1.6226 -0.9485  0.2211
16519TIP3   OH270971   1.310   2.015   0.955  0.1381  0.0132  1.0085
16519TIP3    H170972   1.363   1.953   0.905  0.5938  0.8635  0.4180
16519TIP3    H270973   1.220   2.002   0.923  0.0046 -1.2249  1.8032
16520TIP3   OH270974   2.679   6.158  12.047  0.1684 -0.4527  0.1822
16520TIP3    H170975   2.647   6.093  11.985 -3.7920 -0.1049  1.6172
16520TIP3    H270976   2.759   6.119  12.082 -1.0890 -3.7956 -0.2539
16521TIP3   OH270977   6.110   5.896  16.082  0.3824 -0.0751  0.5198
16521TIP3    H170978   6.053   5.869  16.155  0.7746  0.0054  0.8574
16521TIP3    H270979   6.083   5.985  16.062  0.8933  0.2361  1.1807
16522TIP3   OH270980   3.327   4.522   3.716  1.0005 -0.1341 -0.5983
16522TIP3    H170981   3.286   4.488   3.637  1.0673 -1.3503 -0.1297
16522TIP3    H270982   3.416   4.487   3.715  0.7808 -0.7463  0.3580
16523TIP3   OH270983   3.390   1.136  14.449  0.3897  0.9332  0.2053
16523TIP3    H170984   3.411   1.044  14.435  0.7553  0.9505  0.6055
16523TIP3    H270985   3.312   1.151  14.396 -1.2396 -0.2846  2.0643
16524TIP3   OH270986   2.444   0.541  12.619  0.0602 -0.1655 -0.2498
16524TIP3    H170987   2.495   0.580  12.690  0.0708  0.6455 -0.6977
16524TIP3    H270988   2.504   0.480  12.576 -0.1100 -1.0920  0.7668
16525TIP3   OH270989   3.915   3.825   0.648 -0.2307  0.0439 -0.4390
16525TIP3    H170990   3.865   3.790   0.574  0.0958  1.4407 -1.3466
16525TIP3    H270991   3.856   3.888   0.689 -1.8864 -3.2464  2.8613
16526TIP3   OH270992   0.756   4.914   3.277 -0.3587  0.0935  0.0155
16526TIP3    H170993   0.786   4.865   3.201 -2.2797 -0.0159 -0.7295
16526TIP3    H270994   0.720   4.995   3.241 -0.5799  0.3881  0.8768
16527TIP3   OH270995   3.839   5.941  16.416 -0.0719 -0.4331 -0.0299
16527TIP3    H170996   3.910   5.880  16.396 -0.9334 -1.1476 -0.9900
16527TIP3    H270997   3.838   5.946  16.512  0.5993 -1.2056  0.0257
16528TIP3   OH270998   0.714   1.988   5.830 -0.1757 -0.0079 -0.1165
16528TIP3    H170999   0.789   1.932   5.851 -0.5697 -1.1090 -1.5098
16528TIP3    H271000   0.751   2.076   5.824  1.2285 -0.6470 -1.7036
16529TIP3   OH271001   6.157   3.957  14.820  0.4745 -0.1729 -0.6228
16529TIP3    H171002   6.094   4.016  14.779  1.1490 -0.3238 -1.9314
16529TIP3    H271003   6.243   3.990  14.792  1.0147  0.2012  1.3624
16530TIP3   OH271004   6.175   2.096   1.867  0.2892 -0.2136 -0.3997
16530TIP3    H171005   6.262   2.069   1.839  0.7246 -0.3073  0.9456
16530TIP3    H271006   6.139   2.019   1.911 -0.6042 -0.2714 -1.2058
16531TIP3   OH271007   4.558   3.073  15.453 -0.0289 -0.6260 -0.0696
16531TIP3    H171008   4.509   2.991  15.446  0.9506 -1.4574  1.9827
16531TIP3    H271009   4.650   3.047  15.456  0.4460  0.7219 -1.3376
16532TIP3   OH271010   3.778   5.682  13.291 -0.3630 -0.1199 -0.5931
16532TIP3    H171011   3.786   5.717  13.202  0.8266  2.9243  0.5791
16532TIP3    H271012   3.685   5.687  13.310 -0.3431  1.6587 -0.8214
16533TIP3   OH271013   6.708   4.351  15.595 -0.1422  0.4512 -0.0815
16533TIP3    H171014   6.768   4.336  15.522 -0.3649 -1.6670  0.1005
16533TIP3    H271015   6.762   4.392  15.662  0.1105  2.2650 -1.3178
16534TIP3   OH271016   0.789   6.085  13.866  0.0609  0.0164  0.3388
16534TIP3    H171017   0.853   6.036  13.814  0.5008  0.5154  0.4014
16534TIP3    H271018   0.825   6.084  13.955 -0.7554 -0.9493  0.6805
16535TIP3   OH271019   6.340   1.853   4.231  0.4611 -0.3650 -0.3049
16535TIP3    H171020   6.254   1.882   4.261  1.2148 -0.2278  1.8975
16535TIP3    H271021   6.351   1.767   4.271  1.3568 -0.3719 -0.5453
16536TIP3   OH271022   6.125   1.904  13.751 -0.3558  0.5219  0.0568
16536TIP3    H171023   6.146   1.998  13.751  1.6783  0.1579  1.8895
16536TIP3    H271024   6.031   1.900  13.771  0.0161  2.1706  2.4903
16537TIP3   OH271025   3.797   6.535   1.959 -0.2678 -0.0829  0.2442
16537TIP3    H171026   3.748   6.616   1.940 -1.0581 -0.7204 -0.4912
16537TIP3    H271027   3.852   6.522   1.882 -1.7041 -1.3721 -0.6089
16538TIP3   OH271028   5.946   2.207   2.864 -0.0277  0.3492  1.0409
16538TIP3    H171029   5.942   2.136   2.799  1.7820 -0.3806  1.6705
16538TIP3    H271030   5.907   2.282   2.819  1.7974  0.0601 -1.1942
16539TIP3   OH271031   6.696   2.747  11.919  0.6300 -0.2241 -0.4347
16539TIP3    H171032   6.689   2.727  12.012  0.4353  0.1998 -0.3528
16539TIP3    H271033   6.713   2.842  11.916 -0.4502 -0.0236 -0.8581
16540TIP3   OH271034   6.648   1.383   0.949 -0.1574 -0.0440 -0.1122
16540TIP3    H171035   6.737   1.418   0.940 -0.4742  1.4582  1.9761
16540TIP3    H271036   6.654   1.321   1.021 -0.6848 -0.4051 -0.3743
16541TIP3   OH271037   2.545   2.884   5.824  0.6624 -0.1864  0.3957
16541TIP3    H171038   2.557   2.801   5.777 -0.9324 -0.3343  0.2041
16541TIP3    H271039   2.538   2.859   5.916  1.1836 -0.1479  0.4520
16542TIP3   OH271040   5.978   1.049  12.802  0.1352 -0.3271  0.0085
16542TIP3    H171041   6.056   1.020  12.849 -0.0157  1.9230  1.8071
16542TIP3    H271042   6.011   1.091  12.723  0.5885 -1.2856 -0.3237
16543TIP3   OH271043   4.224   6.254  15.665 -0.0228  0.0767  0.1377
16543TIP3    H171044   4.160   6.209  15.720  0.4248 -1.7821 -0.7722
16543TIP3    H271045   4.305   6.203  15.676  0.3805  0.3674 -1.2999
16544TIP3   OH271046   3.717   3.507  14.227  0.7372 -0.2979 -0.7198
16544TIP3    H171047   3.643   3.527  14.284  0.5250  0.2534 -1.1786
16544TIP3    H271048   3.750   3.423  14.259 -1.2073 -1.4846 -1.6239
16545TIP3   OH271049   2.748   2.446  15.923  0.2233  0.1069  0.0666
16545TIP3    H171050   2.713   2.496  15.997  0.8627  1.2261 -0.3563
16545TIP3    H271051   2.683   2.379  15.906 -0.0429 -0.0144  1.4962
16546TIP3   OH271052   3.690   5.972   4.703 -0.8484  0.1752 -0.4124
16546TIP3    H171053   3.730   6.040   4.649  0.0591  0.0273  0.0520
16546TIP3    H271054   3.626   5.930   4.645 -0.8429  0.8822 -0.9508
16547TIP3   OH271055   1.793   5.365   2.704  0.0436  0.3060  0.6983
16547TIP3    H171056   1.786   5.309   2.627 -0.5039  1.1633  0.1057
16547TIP3    H271057   1.772   5.453   2.671  2.4996  1.1743  1.2317
16548TIP3   OH271058   3.308   4.855   5.001 -0.5691  0.2659  0.2885
16548TIP3    H171059   3.321   4.800   4.924 -2.2818  0.6089 -0.2834
16548TIP3    H271060   3.316   4.794   5.075  1.5199  0.0150 -0.0969
16549TIP3   OH271061   5.688   0.144  12.840  0.1978 -0.1979  0.8975
16549TIP3    H171062   5.728   0.216  12.792 -0.1624 -1.5470 -1.5448
16549TIP3    H271063   5.760   0.103  12.888  1.4993 -1.4703 -1.9737
16550TIP3   OH271064   5.977   3.187  15.246  0.2220  0.1447  0.0638
16550TIP3    H171065   6.007   3.237  15.169  0.7005  0.4001  0.4115
16550TIP3    H271066   6.029   3.222  15.318  0.1333 -0.4520  0.4158
16551TIP3   OH271067   0.897   1.389  15.394  0.1653 -0.0833  0.2680
16551TIP3    H171068   0.852   1.329  15.335  0.2077  0.7910 -0.6899
16551TIP3    H271069   0.927   1.460  15.337  0.6040  0.5667  1.2814
16552TIP3   OH271070   2.708   6.446  14.411 -0.2607 -0.1683  0.1646
16552TIP3    H171071   2.710   6.368  14.356 -0.2941 -1.9568  2.5674
16552TIP3    H271072   2.633   6.496  14.379 -1.6518 -2.2584 -0.0144
16553TIP3   OH271073   4.457   3.843   1.090 -0.1510 -0.1862 -0.3683
16553TIP3    H171074   4.535   3.847   1.034  0.7676  0.4917  0.9046
16553TIP3    H271075   4.390   3.804   1.035  0.5623  0.9564 -2.1179
16554TIP3   OH271076   1.933   2.675   0.635 -0.0960  0.2670  0.3037
16554TIP3    H171077   2.018   2.717   0.640  0.2214 -0.3903  0.6682
16554TIP3    H271078   1.871   2.743   0.662  0.2929  0.7939 -0.1145
16555TIP3   OH271079   5.977   6.328  17.082 -0.2685  0.0807  0.3076
16555TIP3    H171080   5.905   6.326  17.144  0.0477 -0.4046  0.6591
16555TIP3    H271081   5.980   6.240  17.045  0.1922  0.0747  0.3510
16556TIP3   OH271082   6.601   3.235   2.977  0.3275 -0.4954  0.1284
16556TIP3    H171083   6.680   3.210   2.928  0.4268 -0.8386  0.4596
16556TIP3    H271084   6.625   3.317   3.020  0.0651  0.0896 -0.8059
16557TIP3   OH271085   6.057   6.333   4.228  0.1177 -0.1138 -0.1169
16557TIP3    H171086   6.131   6.309   4.172  1.2295  0.2729  1.1518
16557TIP3    H271087   6.045   6.257   4.286 -1.3222 -0.7024 -1.1105
16558TIP3   OH271088   0.042   4.754   4.486 -0.4330 -0.0903 -0.9387
16558TIP3    H171089  -0.013   4.821   4.527 -0.5500 -0.2317 -0.8633
16558TIP3    H271090   0.099   4.724   4.557 -1.7611 -1.5221 -0.4355
16559TIP3   OH271091   4.942   3.254   5.410 -0.3191 -0.0633  0.3269
16559TIP3    H171092   4.911   3.338   5.376 -0.3860 -0.1611  0.1454
16559TIP3    H271093   4.864   3.199   5.411  0.2258 -0.9567 -2.0776
16560TIP3   OH271094   1.549   6.173  13.377  1.0227 -0.3167  0.3230
16560TIP3    H171095   1.475   6.209  13.328  1.4996 -1.2844 -1.1752
16560TIP3    H271096   1.540   6.211  13.465 -0.8181  0.1564 -0.0219
16561TIP3   OH271097   3.020   4.797   4.716 -0.2834 -0.1941  0.3182
16561TIP3    H171098   3.011   4.889   4.691  1.8121  0.1473  0.6146
16561TIP3    H271099   2.931   4.768   4.736 -1.3723  0.9726 -2.4113
16562TIP3   OH271100   2.483   4.291   4.147  0.1489 -0.3655 -0.4233
16562TIP3    H171101   2.394   4.321   4.165  1.0542  1.4059  1.6331
16562TIP3    H271102   2.494   4.213   4.201  0.1155 -0.0865 -0.0128
16563TIP3   OH271103   2.702   0.939  13.020 -0.6070  0.1616 -0.2679
16563TIP3    H171104   2.699   0.843  13.026  0.4229  0.1398  0.0370
16563TIP3    H271105   2.700   0.956  12.925  0.2067 -0.2067 -0.3569
16564TIP3   OH271106   0.333   1.418  14.165  0.5167  0.0976 -0.1917
16564TIP3    H171107   0.293   1.367  14.095  1.0088 -0.6116  0.0321
16564TIP3    H271108   0.325   1.362  14.243  1.5730  0.1107 -0.0586
16565TIP3   OH271109   5.592   0.581  16.836 -0.4768  0.3007  0.4586
16565TIP3    H171110   5.560   0.667  16.808  0.3747  0.4768 -0.0064
16565TIP3    H271111   5.670   0.600  16.889  0.0611 -0.2000 -0.1371
16566TIP3   OH271112   2.244   1.700  14.647  0.6046 -0.1213  0.6663
16566TIP3    H171113   2.236   1.795  14.660  0.1758  0.1815 -1.4780
16566TIP3    H271114   2.277   1.690  14.558  0.5932 -2.0137  0.8256
16567TIP3   OH271115   3.874   4.892  16.546  0.2950  0.1482  0.1290
16567TIP3    H171116   3.923   4.866  16.468  0.1459 -0.1995  0.1512
16567TIP3    H271117   3.806   4.951  16.514 -1.5525 -2.1434 -0.4060
16568TIP3   OH271118   3.671   2.919  12.911 -0.3564  0.2512 -0.0477
16568TIP3    H171119   3.588   2.881  12.938 -1.5191  0.7944 -2.5427
16568TIP3    H271120   3.734   2.847  12.920 -1.2735 -0.4601  0.9637
16569TIP3   OH271121   2.080   6.484  16.587 -0.5455  0.5391 -0.3927
16569TIP3    H171122   2.037   6.444  16.662  0.7347 -0.8945 -0.3696
16569TIP3    H271123   2.038   6.444  16.511 -0.5941  0.6249 -0.4104
16570TIP3   OH271124   5.644   4.200   1.723  0.3525 -0.2444  0.8724
16570TIP3    H171125   5.638   4.287   1.684  0.4523  0.1075  1.6382
16570TIP3    H271126   5.680   4.214   1.810 -2.7377 -0.6366  2.3839
16571TIP3   OH271127   0.995   4.662  16.728 -0.5157 -0.4655 -0.4536
16571TIP3    H171128   0.995   4.608  16.807 -0.8678 -0.6180 -0.5579
16571TIP3    H271129   1.085   4.695  16.722 -0.0755 -1.7065 -0.8540
16572TIP3   OH271130   1.377   4.023   2.868 -0.7086 -0.0300  0.1240
16572TIP3    H171131   1.457   4.017   2.816 -0.6020 -0.6572  0.3503
16572TIP3    H271132   1.345   4.112   2.853 -0.5564 -0.1244 -0.8220
16573TIP3   OH271133   1.144   2.855   0.536  0.4325  0.3011 -0.1677
16573TIP3    H171134   1.226   2.890   0.569  0.1828  1.5024 -0.7719
16573TIP3    H271135   1.169   2.773   0.492  1.2403  0.4455  0.0132
16574TIP3   OH271136   6.344   2.773  10.994  0.3380 -0.2166 -0.1771
16574TIP3    H171137   6.284   2.757  10.921  1.0129 -2.0164 -0.3960
16574TIP3    H271138   6.431   2.773  10.954  0.5671  1.5553  0.2515
16575TIP3   OH271139   1.760   2.019  14.205 -0.0458 -0.6927  0.5170
16575TIP3    H171140   1.745   1.941  14.151  0.5669 -1.0734  0.8924
16575TIP3    H271141   1.758   2.092  14.143  3.1753 -1.3190 -0.4719
16576TIP3   OH271142   1.427   3.906  13.205 -0.0060 -0.0509 -0.3496
16576TIP3    H171143   1.339   3.937  13.181 -0.1240  0.2299  0.4059
16576TIP3    H271144   1.464   3.979  13.255  0.0460 -0.7797  0.7037
16577TIP3   OH271145   2.484   5.287  15.432 -0.0730 -0.4462  0.0368
16577TIP3    H171146   2.460   5.209  15.382  0.2279 -0.8847  0.5657
16577TIP3    H271147   2.572   5.270  15.463  1.0344  1.1702 -1.9154
16578TIP3   OH271148   2.388   3.244   9.976  0.4166  0.0319 -0.4185
16578TIP3    H171149   2.361   3.170   9.921 -0.8079 -1.3067  1.8020
16578TIP3    H271150   2.469   3.215  10.017  0.6983  0.5290 -0.6161
16579TIP3   OH271151   0.227   5.826  11.662 -0.1266  0.0103  0.1044
16579TIP3    H171152   0.174   5.884  11.608  0.2848 -0.7979 -1.2139
16579TIP3    H271153   0.165   5.788  11.724 -0.4098  1.8018  0.9811
16580TIP3   OH271154   5.903   4.638   1.535 -0.1199 -0.0981 -0.4436
16580TIP3    H171155   5.885   4.727   1.504 -0.8063 -0.0997 -0.0649
16580TIP3    H271156   5.832   4.618   1.596 -0.5394 -1.2879 -1.2758
16581TIP3   OH271157   2.409   3.898  12.980  0.3131  0.4698  0.0666
16581TIP3    H171158   2.372   3.817  12.944 -0.2974  1.4100 -1.5015
16581TIP3    H271159   2.498   3.874  13.007  0.5763 -0.4663 -1.4949
16582TIP3   OH271160   1.130   6.567   5.381  0.4386  0.0261 -0.2877
16582TIP3    H171161   1.160   6.613   5.460  0.4610 -1.6182  0.7083
16582TIP3    H271162   1.046   6.609   5.360  0.8120  1.0115  0.1354
16583TIP3   OH271163   0.511   4.983  12.632 -0.0133 -0.1853 -0.7123
16583TIP3    H171164   0.561   4.958  12.554 -0.1185 -0.2164 -0.7699
16583TIP3    H271165   0.568   5.045  12.678  0.0742 -0.2129 -0.7828
16584TIP3   OH271166   6.068   5.227   5.046 -0.2083 -0.2915  0.4972
16584TIP3    H171167   6.123   5.155   5.015 -1.3130 -1.4980  1.2380
16584TIP3    H271168   6.072   5.222   5.141  0.4511  1.2639  0.5969
16585TIP3   OH271169   0.251   4.088   3.976  0.0815  0.2406 -0.0226
16585TIP3    H171170   0.301   4.161   4.014 -1.1442  2.3881 -2.2832
16585TIP3    H271171   0.174   4.081   4.032  0.6072  0.0873  0.6986
16586TIP3   OH271172   6.422   5.589  15.007 -0.6539 -0.0093 -0.3426
16586TIP3    H171173   6.345   5.548  15.046 -0.5666  1.0294  1.0205
16586TIP3    H271174   6.417   5.567  14.914 -1.4577 -1.6994  0.0612
16587TIP3   OH271175   3.229   5.548  11.747 -0.1940 -0.7131  0.3356
16587TIP3    H171176   3.146   5.564  11.792  0.0115 -1.0716  0.8427
16587TIP3    H271177   3.220   5.595  11.664 -1.3786 -1.7470 -0.1545
16588TIP3   OH271178   1.685   5.163  14.514 -0.3665 -0.2918  0.1423
16588TIP3    H171179   1.593   5.187  14.523 -0.5060 -0.4866 -0.6685
16588TIP3    H271180   1.734   5.241  14.541 -0.7677 -0.1404  0.4359
16589TIP3   OH271181   6.234   2.562   4.628 -0.2077 -0.2291  0.6239
16589TIP3    H171182   6.242   2.614   4.549 -1.4346 -0.0156  0.6117
16589TIP3    H271183   6.210   2.625   4.696 -0.8115 -0.6336  0.8005
16590TIP3   OH271184   3.364   6.165   1.325  0.1529  0.4441  0.5288
16590TIP3    H171185   3.408   6.081   1.314  1.0351  0.6196  2.4308
16590TIP3    H271186   3.432   6.225   1.355 -0.3481  2.0080 -1.2472
16591TIP3   OH271187   1.882   3.055  13.109 -0.1544  0.3398  0.3459
16591TIP3    H171188   1.926   3.027  13.029 -2.5916 -0.4216 -0.8170
16591TIP3    H271189   1.893   2.981  13.169 -1.0445 -0.4623 -0.4462
16592TIP3   OH271190   4.037   4.812  14.077 -0.0888  0.0453 -0.2631
16592TIP3    H171191   4.016   4.772  14.162 -1.0797  2.0578  0.4828
16592TIP3    H271192   4.078   4.895  14.099  2.9351 -0.8967 -1.7816
16593TIP3   OH271193   2.163   0.608   4.868  0.2918  0.1962 -0.0584
16593TIP3    H171194   2.217   0.532   4.845 -0.1324 -0.4245  0.9460
16593TIP3    H271195   2.211   0.650   4.940  0.6716  1.0592 -0.7998
16594TIP3   OH271196   0.921   4.450  13.634 -0.1148 -0.4209 -0.6380
16594TIP3    H171197   0.968   4.522  13.592  0.2601  1.0182  2.0263
16594TIP3    H271198   0.828   4.467  13.615 -0.1523  1.6234  1.0403
16595TIP3   OH271199   2.316   4.894  15.057  0.0850 -0.2314 -0.4539
16595TIP3    H171200   2.383   4.846  15.008 -0.2468 -0.6285 -0.5149
16595TIP3    H271201   2.241   4.835  15.060 -0.7894  0.7925 -1.6396
16596TIP3   OH271202   4.305   0.373   1.276  0.7652 -0.1448 -0.2255
16596TIP3    H171203   4.216   0.361   1.246  0.7748  1.3044 -0.9055
16596TIP3    H271204   4.297   0.416   1.361  0.7999  1.0996 -0.8254
16597TIP3   OH271205   5.894   2.235  15.811 -0.3217 -0.1474  0.3209
16597TIP3    H171206   5.817   2.248  15.754  1.1077 -1.1685 -1.9918
16597TIP3    H271207   5.863   2.175  15.879 -1.9023  0.4410  0.1619
16598TIP3   OH271208   2.352   5.593  12.825  0.5793  0.8452 -0.5547
16598TIP3    H171209   2.318   5.503  12.829  1.2286  0.6437  1.7088
16598TIP3    H271210   2.282   5.644  12.785 -0.3631 -0.4353 -0.5920
16599TIP3   OH271211   1.253   6.613   1.606  0.0891 -0.8430  0.6788
16599TIP3    H171212   1.162   6.584   1.611 -0.1183 -0.7387 -1.4596
16599TIP3    H271213   1.305   6.532   1.614 -0.3321 -1.3323 -1.1684
16600TIP3   OH271214   1.099   3.730  11.187 -0.0497 -0.6923  0.0250
16600TIP3    H171215   1.072   3.803  11.244 -0.3774 -0.7846 -0.0072
16600TIP3    H271216   1.030   3.664  11.200 -0.2878 -0.5950 -0.7092
16601TIP3   OH271217   4.544   2.882   5.138 -0.1509 -0.2692 -0.1441
16601TIP3    H171218   4.503   2.968   5.150  0.9771  0.4313 -1.0290
16601TIP3    H271219   4.575   2.857   5.225 -0.2810  0.3364  0.0812
16602TIP3   OH271220   2.642   1.942   6.104 -0.0074  0.2035 -0.5664
16602TIP3    H171221   2.636   1.854   6.141 -0.4621  0.2195 -0.6055
16602TIP3    H271222   2.624   2.001   6.177 -0.5597  0.2433 -0.7320
16603TIP3   OH271223   2.104   5.011  16.314  0.2926  0.0049  0.0863
16603TIP3    H171224   2.154   5.064  16.252  0.0041  0.0826 -0.0799
16603TIP3    H271225   2.013   5.019  16.286  0.1914 -0.1976  0.3428
16604TIP3   OH271226   1.670   1.529  10.974 -0.7060  0.0013  0.0848
16604TIP3    H171227   1.723   1.454  11.002 -0.4767  0.5081  1.0420
16604TIP3    H271228   1.668   1.587  11.050 -0.7659  1.0342 -0.6834
16605TIP3   OH271229   3.266   1.198   6.091 -0.4198  0.6651  0.1920
16605TIP3    H171230   3.196   1.133   6.086  0.7417 -0.6240  0.3217
16605TIP3    H271231   3.345   1.148   6.110  0.4772  2.1427  0.5248
16606TIP3   OH271232   6.454   5.760   0.497 -0.2815 -0.1960  0.3435
16606TIP3    H171233   6.367   5.751   0.458  0.1311 -0.2346 -0.5919
16606TIP3    H271234   6.514   5.735   0.427  0.4336 -1.6563  1.4248
16607TIP3   OH271235   2.637   0.691  13.985 -0.2116  0.2597 -0.0897
16607TIP3    H171236   2.565   0.753  13.983 -0.3079  0.1269 -0.9825
16607TIP3    H271237   2.716   0.744  13.973 -0.3531  0.1439 -1.7960
16608TIP3   OH271238   3.970   3.227  16.561 -0.0001  0.5330 -1.1018
16608TIP3    H171239   3.993   3.320  16.568  1.2080  0.2071 -0.4967
16608TIP3    H271240   3.957   3.212  16.468  0.9669  1.0504 -1.3291
16609TIP3   OH271241   5.855   0.467  15.256 -0.0826  0.4884 -0.5004
16609TIP3    H171242   5.883   0.499  15.171  0.4226  0.3202 -0.3972
16609TIP3    H271243   5.935   0.461  15.308 -0.4106  0.8153  0.0630
16610TIP3   OH271244   3.342   1.960  11.530 -0.1400 -0.8046 -0.4802
16610TIP3    H171245   3.354   1.979  11.623 -2.4226  0.3054 -0.3397
16610TIP3    H271246   3.384   1.875  11.517  1.5296 -0.3102  1.1980
16611TIP3   OH271247   6.239   0.758  11.547  0.3528  0.1800 -0.1152
16611TIP3    H171248   6.150   0.786  11.568  1.1790  1.3572  2.0910
16611TIP3    H271249   6.235   0.735  11.454 -1.3517  3.9577 -1.1768
16612TIP3   OH271250   2.144   2.956  14.339 -0.2327  0.3146  0.0643
16612TIP3    H171251   2.194   3.023  14.293 -0.2258 -0.0332 -0.4368
16612TIP3    H271252   2.207   2.916  14.399 -0.2079  0.6702  0.2805
16613TIP3   OH271253   3.462   2.520   5.920 -0.3141  0.3570 -0.2322
16613TIP3    H171254   3.471   2.430   5.890 -1.7673  0.6368 -1.6833
16613TIP3    H271255   3.376   2.523   5.961  0.0333  0.9262  0.4737
16614TIP3   OH271256   5.113   1.033  15.051  0.7621 -0.4276  0.0810
16614TIP3    H171257   5.186   1.094  15.051 -0.8455  1.6204 -0.2983
16614TIP3    H271258   5.106   1.004  14.961  0.0245  0.8516 -0.3105
16615TIP3   OH271259   5.751   3.157  14.970  0.1048 -0.1432 -0.4371
16615TIP3    H171260   5.705   3.131  15.050  0.1752  1.9066  0.3264
16615TIP3    H271261   5.787   3.244  14.990  1.4588 -0.2477 -2.1715
16616TIP3   OH271262   4.324   3.748  10.496 -0.1365 -0.3238 -0.0520
16616TIP3    H171263   4.295   3.744  10.405 -1.8877  0.8442  0.3928
16616TIP3    H271264   4.415   3.777  10.492  0.5196 -2.3816 -1.4704
16617TIP3   OH271265   0.096   3.855   5.292  0.0706 -0.0782  0.6017
16617TIP3    H171266   0.155   3.859   5.368 -1.3862  0.3402  1.7574
16617TIP3    H271267   0.078   3.947   5.273  2.5018 -0.0115 -2.0144
16618TIP3   OH271268   2.407   1.890  16.940 -0.1285  0.2788 -0.3101
16618TIP3    H171269   2.441   1.804  16.963  0.3556  0.9547  1.7091
16618TIP3    H271270   2.315   1.887  16.966 -0.1746  0.3038 -0.4664
16619TIP3   OH271271   5.693   3.867   3.736  0.6297  0.0160  0.0765
16619TIP3    H171272   5.713   3.944   3.790  1.1032  1.1307 -1.6289
16619TIP3    H271273   5.609   3.836   3.770  1.7305 -0.4099  2.6094
16620TIP3   OH271274   6.049   6.584  13.574  0.2414 -0.1621 -0.0352
16620TIP3    H171275   6.013   6.499  13.549 -0.8670  1.2831 -4.1414
16620TIP3    H271276   5.973   6.642  13.578  1.2468  1.2321 -0.3366
16621TIP3   OH271277   2.078   0.472   3.229  0.1085  0.3351  0.3139
16621TIP3    H171278   2.029   0.455   3.310 -0.1445 -2.2842 -0.3104
16621TIP3    H271279   2.072   0.567   3.218 -1.9416  0.5033  2.0716
16622TIP3   OH271280   4.137   4.917  16.333  0.0587  0.4646 -0.1997
16622TIP3    H171281   4.146   5.007  16.367 -0.0024  0.6498 -0.6628
16622TIP3    H271282   4.058   4.920  16.279  0.8425  0.4950 -1.3632
16623TIP3   OH271283   4.500   5.741  13.003 -0.0897 -0.2156 -0.4448
16623TIP3    H171284   4.594   5.724  13.002 -0.2322 -1.1285  0.0983
16623TIP3    H271285   4.460   5.654  12.999 -0.8889  0.0944  0.3959
16624TIP3   OH271286   5.303   3.744  11.410  0.2037  0.1046 -0.2950
16624TIP3    H171287   5.286   3.654  11.385  0.3806 -0.0882  0.2568
16624TIP3    H271288   5.399   3.750  11.416  0.1564  0.0270  0.7103
16625TIP3   OH271289   2.272   5.437  15.118  0.5237 -0.1241  0.3917
16625TIP3    H171290   2.325   5.366  15.082 -0.3372 -0.1990 -0.8033
16625TIP3    H271291   2.334   5.508  15.132  1.2184 -0.7603  0.5958
16626TIP3   OH271292   5.477   3.417   3.921  0.3242  0.2469 -0.6842
16626TIP3    H171293   5.492   3.509   3.942  1.7311 -0.3233  1.1298
16626TIP3    H271294   5.431   3.382   3.997  0.6690 -0.7346 -0.9064
16627TIP3   OH271295   1.351   5.631   0.418 -0.0187 -0.0180  0.1496
16627TIP3    H171296   1.421   5.686   0.382  1.5297 -2.4272 -0.7898
16627TIP3    H271297   1.305   5.598   0.341 -0.3484 -0.7250  0.6414
16628TIP3   OH271298   0.642   2.488   4.562 -0.3931  0.7043  0.6798
16628TIP3    H171299   0.583   2.563   4.568 -1.5425 -0.1860  0.8034
16628TIP3    H271300   0.585   2.412   4.567  0.6800 -0.1896 -0.1683
16629TIP3   OH271301   0.992   3.899  10.939 -0.2951 -0.7924 -0.8908
16629TIP3    H171302   1.033   3.839  10.878  0.9561 -1.9561  0.9868
16629TIP3    H271303   1.057   3.969  10.951 -0.4329 -0.6887 -0.7454
16630TIP3   OH271304   3.835   2.335   4.348  0.3501 -0.0931 -0.0389
16630TIP3    H171305   3.739   2.336   4.351  0.1651  1.0791 -2.8299
16630TIP3    H271306   3.858   2.242   4.352 -1.2784 -0.8062 -3.3672
16631TIP3   OH271307   0.411   2.068   5.167 -0.0502  0.4749  0.1726
16631TIP3    H171308   0.480   2.055   5.102 -0.6323 -0.9075 -0.1910
16631TIP3    H271309   0.454   2.054   5.251  0.7302  2.3748  0.1501
16632TIP3   OH271310   1.230   2.881   4.100  0.0044 -0.1679  0.4935
16632TIP3    H171311   1.201   2.871   4.009  0.0514 -1.1154  0.5729
16632TIP3    H271312   1.166   2.941   4.139 -0.6225 -0.5789  0.1128
16633TIP3   OH271313   3.694   6.531  10.464 -0.2187  0.0281  0.0828
16633TIP3    H171314   3.614   6.482  10.443 -1.6771  1.9507  0.9050
16633TIP3    H271315   3.682   6.616  10.422  0.0567  1.3598  2.5130
16634TIP3   OH271316   3.948   1.381  11.022 -0.0754  0.1614 -0.2212
16634TIP3    H171317   4.028   1.370  11.074 -0.0439 -1.3168 -0.5403
16634TIP3    H271318   3.978   1.414  10.938  0.1944 -0.2699 -0.2970
16635TIP3   OH271319   6.595   4.646   1.155  0.0326  0.0913  0.2340
16635TIP3    H171320   6.596   4.741   1.144  0.3025 -0.0455 -1.0582
16635TIP3    H271321   6.507   4.620   1.128  0.0353 -0.0626  0.3688
16636TIP3   OH271322   1.991   0.233   3.453 -0.0027 -0.7921  0.2697
16636TIP3    H171323   1.964   0.147   3.419  0.0194 -0.1423 -1.4444
16636TIP3    H271324   2.065   0.213   3.510  1.6550 -1.7071 -2.0738
16637TIP3   OH271325   0.188   0.487   3.365 -0.4108  0.1809 -0.4206
16637TIP3    H171326   0.101   0.453   3.385  0.1309 -1.0374 -0.0585
16637TIP3    H271327   0.247   0.414   3.380  0.7635  1.1624 -0.0280
16638TIP3   OH271328   4.427   2.604   4.548  0.0673 -0.0272  0.2719
16638TIP3    H171329   4.506   2.624   4.497  0.0905  1.1314  0.7194
16638TIP3    H271330   4.449   2.630   4.637 -0.6721 -0.0896  0.4789
16639TIP3   OH271331   4.626   3.438  12.927 -0.3293 -0.7710  0.5429
16639TIP3    H171332   4.582   3.521  12.949  1.1826  0.4553 -0.8294
16639TIP3    H271333   4.693   3.462  12.864 -0.0350 -3.1248 -0.1457
16640TIP3   OH271334   1.892   4.910   4.160  0.0212  1.0029  0.5140
16640TIP3    H171335   1.866   5.001   4.173 -1.1818  0.8219 -0.4388
16640TIP3    H271336   1.966   4.914   4.099  0.4636  1.3756  1.0721
16641TIP3   OH271337   2.250   3.475  13.924 -0.1595 -0.1947  0.2907
16641TIP3    H171338   2.262   3.569  13.935  0.2798 -0.0664 -1.0338
16641TIP3    H271339   2.312   3.435  13.985  0.9510  0.4035 -0.4068
16642TIP3   OH271340   2.593   1.559  16.856  0.1664 -0.1159  0.1130
16642TIP3    H171341   2.666   1.614  16.886  0.5320  1.4176 -3.1580
16642TIP3    H271342   2.591   1.572  16.761 -3.8061 -0.8167 -0.0623
16643TIP3   OH271343   1.707   3.050   2.166 -0.7113  0.2418 -0.5633
16643TIP3    H171344   1.650   3.020   2.237  0.3939 -1.2978 -0.2838
16643TIP3    H271345   1.692   2.988   2.095 -2.1549  2.0370 -1.9223
16644TIP3   OH271346   3.501   5.934   4.519 -0.5774  0.1403 -0.4010
16644TIP3    H171347   3.434   6.002   4.504  0.1955  0.8571 -0.6745
16644TIP3    H271348   3.572   5.958   4.459  0.3792  0.0102  0.6634
16645TIP3   OH271349   5.401   3.833  13.837 -0.3440  0.4898  0.2102
16645TIP3    H171350   5.383   3.797  13.751  1.5882 -0.0612 -0.0178
16645TIP3    H271351   5.340   3.788  13.896 -0.1190 -0.8466 -0.5394
16646TIP3   OH271352   2.891   0.274  12.983 -0.1007 -0.0144 -0.0470
16646TIP3    H171353   2.887   0.270  13.078  0.5803  2.6126  0.1604
16646TIP3    H271354   2.806   0.309  12.956  0.2870  0.7784 -0.2645
16647TIP3   OH271355   2.789   5.743  13.760  0.3310  0.1806  0.7515
16647TIP3    H171356   2.864   5.793  13.792 -0.2570  1.8050 -0.3045
16647TIP3    H271357   2.816   5.711  13.674  0.5140 -0.9463  1.2038
16648TIP3   OH271358   5.377   5.528  13.963 -0.4081 -0.4526 -0.1311
16648TIP3    H171359   5.367   5.494  13.874  2.4202 -1.2949 -0.2261
16648TIP3    H271360   5.363   5.452  14.019 -0.1938 -0.3667  0.0362
16649TIP3   OH271361   0.968   0.079  15.006 -0.2279  0.3078  0.3557
16649TIP3    H171362   0.883   0.060  14.967  0.4065 -0.0717 -0.8839
16649TIP3    H271363   1.023   0.104  14.933  1.0807 -0.6703  0.9599
16650TIP3   OH271364   4.350   3.882   0.500 -0.3867  0.0395  0.3123
16650TIP3    H171365   4.374   3.931   0.421 -1.0794 -1.4507 -0.8687
16650TIP3    H271366   4.424   3.824   0.516  0.7297  1.8344  2.1020
16651TIP3   OH271367   6.037   2.287  17.404 -0.1127  0.2573 -0.0564
16651TIP3    H171368   6.131   2.300  17.391  0.0025  0.4427  0.9395
16651TIP3    H271369   6.026   2.192  17.402 -0.1088  0.2541 -1.4408
16652TIP3   OH271370   0.341   2.464   2.996  0.2242  0.1008 -0.2381
16652TIP3    H171371   0.250   2.463   2.964 -0.1559  3.1942  0.4243
16652TIP3    H271372   0.341   2.405   3.071 -1.8682  1.6646  1.1041
16653TIP3   OH271373   3.525   1.997  15.980 -0.6006 -0.5131  0.0932
16653TIP3    H171374   3.555   2.061  15.915 -0.0541 -0.0081  0.8419
16653TIP3    H271375   3.450   2.040  16.023  0.9725  0.4994  1.9737
16654TIP3   OH271376   5.830   1.339  15.779 -0.1357  0.0581 -0.2262
16654TIP3    H171377   5.843   1.429  15.807 -0.1083  0.8157 -2.4462
16654TIP3    H271378   5.741   1.317  15.808 -0.9105  1.5352 -1.3297
16655TIP3   OH271379   0.637   3.351  11.351 -0.7483  0.3474 -0.2793
16655TIP3    H171380   0.568   3.313  11.298 -2.6639 -0.7128  2.6930
16655TIP3    H271381   0.643   3.294  11.427  2.9468  0.8438 -0.0287
16656TIP3   OH271382   0.817   1.703   1.846  0.1987 -0.0736  0.5363
16656TIP3    H171383   0.722   1.702   1.845  0.1677 -2.2537 -0.2543
16656TIP3    H271384   0.841   1.628   1.900  1.3527 -2.2298 -2.6514
16657TIP3   OH271385   3.855   1.926   3.526  0.1590 -0.2668  0.6367
16657TIP3    H171386   3.811   1.843   3.545  0.3742 -0.3511  0.7684
16657TIP3    H271387   3.926   1.903   3.466 -0.6072  0.0205 -0.4069
16658TIP3   OH271388   5.108   2.411  17.074 -0.1942  0.0288 -0.5442
16658TIP3    H171389   5.059   2.492  17.087 -0.7467 -0.5752  1.5041
16658TIP3    H271390   5.055   2.361  17.012 -0.0792  1.0340 -1.4692
16659TIP3   OH271391   5.594   1.725  16.439  0.3423 -0.5116 -0.0191
16659TIP3    H171392   5.565   1.663  16.372 -0.1567  0.6624 -0.9274
16659TIP3    H271393   5.611   1.671  16.516 -0.1783 -1.7583 -0.7498
16660TIP3   OH271394   5.476   0.717  11.097  0.0017  0.3934 -0.0618
16660TIP3    H171395   5.467   0.682  11.186  0.1164  0.3689 -0.0602
16660TIP3    H271396   5.429   0.801  11.100 -0.9693 -0.1252 -0.2830
16661TIP3   OH271397   0.002   1.748   3.281  0.0047 -0.4936  0.0290
16661TIP3    H171398  -0.022   1.840   3.270 -0.6865 -0.3974  1.9271
16661TIP3    H271399  -0.049   1.719   3.357  0.9458 -2.1720  0.0662
16662TIP3   OH271400   6.520   0.985   3.409  0.4371 -0.3366  0.0622
16662TIP3    H171401   6.504   0.893   3.385 -3.1212  0.5665 -1.5565
16662TIP3    H271402   6.473   0.997   3.492  1.6005 -0.1106  0.7179
16663TIP3   OH271403   1.713   2.458  11.806  0.0241 -0.6617  0.0230
16663TIP3    H171404   1.697   2.367  11.831 -1.6467 -0.7485 -1.2235
16663TIP3    H271405   1.801   2.458  11.768  1.3304 -1.1184  2.7981
16664TIP3   OH271406   0.086   4.809   3.210  0.0284 -0.6186  0.0580
16664TIP3    H171407   0.171   4.849   3.226  0.1408 -0.1063 -1.5928
16664TIP3    H271408   0.023   4.875   3.236  0.2004  0.1201 -1.2763
16665TIP3   OH271409   5.242   6.540   0.506  0.6643 -0.4027  0.1360
16665TIP3    H171410   5.280   6.620   0.540  0.5699  0.6566 -2.0605
16665TIP3    H271411   5.316   6.493   0.466  0.2641  0.0283 -1.1535
16666TIP3   OH271412   2.013   6.308   0.339  0.1239 -0.0461  0.6084
16666TIP3    H171413   1.978   6.395   0.325 -1.7622 -0.9607 -0.8715
16666TIP3    H271414   2.031   6.304   0.433  0.7692  2.0655  0.6219
16667TIP3   OH271415   6.316   2.413   3.456 -0.1196 -0.2857 -0.4896
16667TIP3    H171416   6.407   2.414   3.426  0.2293 -0.8346  0.5013
16667TIP3    H271417   6.295   2.505   3.471 -1.0328  0.3266 -4.3662
16668TIP3   OH271418   5.975   0.043   2.496  0.2326  0.3908 -0.4326
16668TIP3    H171419   5.983   0.009   2.407 -1.3274 -1.1407 -0.0338
16668TIP3    H271420   5.934   0.129   2.485  2.7718  1.6018 -1.3399
16669TIP3   OH271421   1.680   6.222  10.988  0.2254 -0.4423  0.1253
16669TIP3    H171422   1.667   6.294  10.926 -0.9971 -0.4478  0.3547
16669TIP3    H271423   1.721   6.153  10.936 -0.8247 -0.4645 -0.7066
16670TIP3   OH271424   1.455   4.641   3.855 -0.9305 -0.2497 -0.0955
16670TIP3    H171425   1.441   4.720   3.907 -1.3659  0.1076 -0.7448
16670TIP3    H271426   1.449   4.569   3.919 -4.3171 -0.0589  0.0300
16671TIP3   OH271427   1.248   1.622  14.649 -0.1313  0.0219  0.1508
16671TIP3    H171428   1.291   1.550  14.696  0.0326 -0.0898 -0.1652
16671TIP3    H271429   1.271   1.607  14.557  0.9394  1.1786  0.2006
16672TIP3   OH271430   0.018   2.175   5.439  0.0819 -0.0991 -0.4563
16672TIP3    H171431  -0.012   2.223   5.516  2.5813  0.8569  0.0368
16672TIP3    H271432   0.050   2.243   5.380  0.8938 -0.9853 -1.0644
16673TIP3   OH271433   3.765   3.977  13.971  0.2715  0.3214  0.0846
16673TIP3    H171434   3.796   3.904  14.025 -0.9853  0.4569  1.0340
16673TIP3    H271435   3.735   3.937  13.890  0.2066 -0.1283  0.3323
16674TIP3   OH271436   4.181   5.787  10.855 -0.2274 -0.2437  0.3508
16674TIP3    H171437   4.256   5.742  10.815  0.0552  0.0993  0.4867
16674TIP3    H271438   4.113   5.720  10.860 -0.2684 -0.2873 -0.7067
16675TIP3   OH271439   3.952   4.430  15.472 -0.2811  0.3062 -0.2932
16675TIP3    H171440   3.947   4.388  15.558 -0.8338 -0.3173 -0.6173
16675TIP3    H271441   4.038   4.405  15.439 -0.5668 -0.5250 -0.4447
16676TIP3   OH271442   2.866   6.133  14.517 -0.0731  0.0083 -0.2604
16676TIP3    H171443   2.947   6.098  14.553 -0.2437  0.4024  0.5318
16676TIP3    H271444   2.895   6.197  14.451  0.2326 -1.2699 -1.4132
16677TIP3   OH271445   6.624   0.255   5.006  0.1743  0.0224  0.5561
16677TIP3    H171446   6.535   0.277   4.977  0.8314  3.6718  0.7611
16677TIP3    H271447   6.675   0.252   4.926  0.1627 -0.3136  0.5626
16678TIP3   OH271448   5.050   3.377   4.350 -0.0640  0.4678  0.2589
16678TIP3    H171449   5.030   3.440   4.281 -1.1049  0.3150  0.4016
16678TIP3    H271450   5.043   3.292   4.308 -0.0205  0.4023  0.3838
16679TIP3   OH271451   0.037   2.526  12.352 -0.6186  0.5567 -0.3145
16679TIP3    H171452  -0.007   2.443  12.369  0.3856  0.5301  2.9769
16679TIP3    H271453   0.130   2.504  12.349 -0.2514  1.5827  1.5829
16680TIP3   OH271454   0.759   4.341  16.946 -1.0854  0.2957 -0.4037
16680TIP3    H171455   0.704   4.409  16.985  0.3682  0.5204  1.3512
16680TIP3    H271456   0.839   4.386  16.919  0.0547 -0.7172  1.1148
16681TIP3   OH271457   3.314   5.261  15.093 -0.5215  0.1123 -0.3305
16681TIP3    H171458   3.345   5.211  15.018 -2.3084  0.6260 -1.4871
16681TIP3    H271459   3.393   5.283  15.142  0.4419 -2.6389 -0.4852
16682TIP3   OH271460   5.696   4.578  13.038 -0.0218 -0.2024  0.3607
16682TIP3    H171461   5.763   4.554  13.102 -0.3467 -0.7954  0.4812
16682TIP3    H271462   5.683   4.500  12.984  0.2451  0.2883 -0.4366
16683TIP3   OH271463   6.221   3.018  13.417 -0.1613  0.3974 -0.1013
16683TIP3    H171464   6.204   2.976  13.332  1.4396  1.3511 -0.9530
16683TIP3    H271465   6.307   2.985  13.443 -1.0882 -0.7032  1.7223
16684TIP3   OH271466   6.674   5.188  15.836  0.2583 -0.1725 -0.7060
16684TIP3    H171467   6.732   5.113  15.829 -0.1140 -0.4117 -1.2712
16684TIP3    H271468   6.610   5.163  15.903  0.3985 -0.1815 -0.5764
16685TIP3   OH271469   2.275   4.870   4.578 -0.2064 -0.2051  0.2504
16685TIP3    H171470   2.314   4.943   4.628  0.1712  0.9439 -1.6182
16685TIP3    H271471   2.349   4.832   4.531 -0.2556 -2.4021  1.8205
16686TIP3   OH271472   6.467   1.941   3.461 -0.4513  0.0302  0.5627
16686TIP3    H171473   6.405   1.960   3.531  1.4853  1.4481  2.0414
16686TIP3    H271474   6.426   1.975   3.381 -1.6142  0.7986  1.4663
16687TIP3   OH271475   4.523   5.848   0.604  0.0945  0.0984  0.7041
16687TIP3    H171476   4.446   5.870   0.656  0.5698  1.5251  0.8285
16687TIP3    H271477   4.573   5.788   0.661  1.3379  2.7556  2.6045
16688TIP3   OH271478   0.185   1.355   1.012  0.1584  0.3852  0.3041
16688TIP3    H171479   0.263   1.393   0.970 -0.1006 -0.4006 -0.9406
16688TIP3    H271480   0.213   1.268   1.040 -0.4291 -0.1787 -0.7760
16689TIP3   OH271481   4.086   1.652   1.583 -0.1937 -0.1590 -0.1477
16689TIP3    H171482   4.084   1.617   1.672 -0.9592  0.5597  0.1324
16689TIP3    H271483   3.998   1.633   1.548 -1.8346  4.0011  1.0725
16690TIP3   OH271484   2.955   1.789  15.195 -0.0377 -0.1316  0.2227
16690TIP3    H171485   2.864   1.812  15.218  0.5865  0.5262  2.2050
16690TIP3    H271486   3.002   1.872  15.201  0.8337 -0.5988 -0.1166
16691TIP3   OH271487   5.068   5.801  12.593  0.0136 -0.0462  0.0216
16691TIP3    H171488   5.136   5.764  12.536 -0.9634 -0.9950 -0.5584
16691TIP3    H271489   4.986   5.782  12.547 -0.6893  0.5082  1.0280
16692TIP3   OH271490   3.769   0.746  16.293 -0.0164 -0.1363 -0.1749
16692TIP3    H171491   3.796   0.760  16.202  1.1236 -0.2073  0.1424
16692TIP3    H271492   3.739   0.655  16.295  2.7693 -1.1261  0.1498
16693TIP3   OH271493   5.231   1.870  13.207  0.6902  0.4793 -0.2567
16693TIP3    H171494   5.309   1.828  13.170  0.2058 -1.1791  0.5184
16693TIP3    H271495   5.197   1.923  13.135  0.6938 -1.3686 -1.7201
16694TIP3   OH271496   1.364   4.830   2.865  0.2073  0.8062  0.4745
16694TIP3    H171497   1.293   4.888   2.891  0.3650  0.2804  2.2080
16694TIP3    H271498   1.359   4.756   2.927  0.6049 -0.5604 -1.0485
16695TIP3   OH271499   0.096   5.299   6.094  0.2921  0.7779 -0.4607
16695TIP3    H171500   0.061   5.274   6.179 -1.5841  1.4197 -0.9899
16695TIP3    H271501   0.143   5.380   6.110 -1.2499  1.6754 -0.2104
16696TIP3   OH271502   4.956   2.856   0.830  0.2417 -0.5734  0.3767
16696TIP3    H171503   4.955   2.845   0.925 -2.6087  1.2689  0.6678
16696TIP3    H271504   4.870   2.826   0.802  0.6317 -0.0497 -1.4943
16697TIP3   OH271505   1.533   3.913  14.560 -0.5913  0.5432  0.2695
16697TIP3    H171506   1.597   3.864  14.611 -1.1366 -1.6795 -1.0439
16697TIP3    H271507   1.584   3.983  14.519  0.5470  0.1704  1.0000
16698TIP3   OH271508   0.228   6.168   5.957  0.3550 -0.4598 -0.5448
16698TIP3    H171509   0.151   6.223   5.970 -0.8652 -2.0581 -0.7381
16698TIP3    H271510   0.273   6.170   6.041 -1.2178 -1.4375  0.3562
16699TIP3   OH271511   1.965   4.616  15.421 -0.4931 -0.2071  0.5334
16699TIP3    H171512   1.945   4.550  15.487 -1.0478 -0.0819  0.4969
16699TIP3    H271513   1.997   4.691  15.472  2.7564 -1.3495  0.4526
16700TIP3   OH271514   4.785   5.447   0.702  0.1894 -0.4855 -0.0097
16700TIP3    H171515   4.879   5.438   0.714  0.0231 -4.3508 -0.2515
16700TIP3    H271516   4.774   5.463   0.609  0.5911  0.9544  0.1716
16701TIP3   OH271517   5.108   6.009   0.744  0.3438  0.5336 -0.0873
16701TIP3    H171518   5.153   5.979   0.823 -0.5857  0.6425  0.5131
16701TIP3    H271519   5.020   6.032   0.775  0.0245  0.7609 -1.1282
16702TIP3   OH271520   6.162   4.026   1.621 -0.3909  0.6403 -0.2146
16702TIP3    H171521   6.119   3.950   1.583 -0.5401  0.5992  0.0306
16702TIP3    H271522   6.090   4.084   1.646 -0.2983  3.0676 -4.6941
16703TIP3   OH271523   5.037   5.581   3.996 -0.1356 -0.3613 -0.0910
16703TIP3    H171524   5.060   5.611   3.908 -0.0027  1.6620  0.5712
16703TIP3    H271525   4.947   5.609   4.009 -0.5447 -1.6830  0.0097
16704TIP3   OH271526   2.970   2.014   5.515  0.0843  0.4325 -0.1631
16704TIP3    H171527   3.038   1.999   5.448  0.3015  1.7085 -0.2587
16704TIP3    H271528   3.017   2.012   5.598  0.2405  1.2004 -0.2219
16705TIP3   OH271529   3.102   5.955   4.118 -0.5997  0.2207  0.5184
16705TIP3    H171530   3.172   5.999   4.166 -2.0922  2.5543  0.6756
16705TIP3    H271531   3.082   6.014   4.045 -3.0621  0.1383  1.0530
16706TIP3   OH271532   5.529   2.899  16.072 -0.1746 -0.3988  0.3333
16706TIP3    H171533   5.571   2.895  16.157 -2.1823 -0.9691  1.3571
16706TIP3    H271534   5.491   2.987  16.068  1.2734  0.2301 -0.7179
16707TIP3   OH271535   6.476   6.493   5.843  0.0797  0.3043 -0.4709
16707TIP3    H171536   6.565   6.472   5.814 -0.8444 -0.8333 -2.7270
16707TIP3    H271537   6.430   6.409   5.841 -1.1278  0.9185  0.4287
16708TIP3   OH271538   6.394   1.059  16.009  0.4609 -0.6314  0.0116
16708TIP3    H171539   6.462   1.097  16.065 -3.0825  3.2023  2.3138
16708TIP3    H271540   6.366   1.132  15.954 -1.9379 -1.9248 -0.5810
16709TIP3   OH271541   6.300   2.518   2.332 -0.1971 -0.1036 -0.6031
16709TIP3    H171542   6.393   2.511   2.355 -0.4914 -0.5539  0.5028
16709TIP3    H271543   6.271   2.601   2.369 -1.2600 -1.8966  3.0176
16710TIP3   OH271544   2.657   5.518  13.527 -0.1570  0.2334  0.0128
16710TIP3    H171545   2.607   5.472  13.459 -2.3594  1.2141  0.8822
16710TIP3    H271546   2.720   5.572  13.479  1.4991 -2.4548 -1.0702
16711TIP3   OH271547   0.712   0.506  11.323  0.2431  0.5587 -0.3954
16711TIP3    H171548   0.684   0.510  11.415  2.4733 -2.4340  0.5933
16711TIP3    H271549   0.804   0.533  11.326  0.5952 -0.4508 -1.5727
16712TIP3   OH271550   3.170   1.237  16.806 -0.2453 -0.0528 -0.1188
16712TIP3    H171551   3.163   1.163  16.746 -2.8372  1.1896 -1.5034
16712TIP3    H271552   3.176   1.314  16.750  0.4003  0.9681  1.2731
16713TIP3   OH271553   0.982   1.962  16.914 -0.1443  0.4798 -0.2612
16713TIP3    H171554   0.994   1.995  17.003 -0.0952  0.5035 -0.2776
16713TIP3    H271555   1.056   1.997  16.865  0.4381 -0.4326 -0.0605
16714TIP3   OH271556   2.596   2.516   1.622  0.3064  0.1318 -0.2778
16714TIP3    H171557   2.603   2.605   1.588 -1.0309  0.7983  1.0119
16714TIP3    H271558   2.506   2.489   1.601  0.0764 -0.1587  0.9568
16715TIP3   OH271559   1.732   6.591   0.916  0.4074  0.9314  0.3423
16715TIP3    H171560   1.647   6.574   0.958  1.3962 -1.9339  1.4246
16715TIP3    H271561   1.796   6.553   0.975  2.0968 -1.0816 -2.5400
16716TIP3   OH271562   6.156   3.235  13.791  0.1512  0.4444 -0.2459
16716TIP3    H171563   6.086   3.282  13.838 -0.0740 -0.1322 -0.0043
16716TIP3    H271564   6.204   3.305  13.746 -0.7571  0.8280 -0.6516
16717TIP3   OH271565   0.147   5.981   4.525  0.1974  0.0235 -0.7497
16717TIP3    H171566   0.195   6.064   4.535 -1.6785  1.2145 -1.1508
16717TIP3    H271567   0.135   5.972   4.431  1.1438 -1.1991 -0.7754
16718TIP3   OH271568   0.756   5.968   0.181 -0.0055  0.1238  0.4266
16718TIP3    H171569   0.839   6.014   0.172 -1.3571  2.3864 -1.5893
16718TIP3    H271570   0.692   6.037   0.199 -1.8740 -1.1637 -0.9266
16719TIP3   OH271571   6.643   5.298  17.362 -0.2432  0.3436  0.0902
16719TIP3    H171572   6.594   5.371  17.324  0.0653 -0.2593 -1.5364
16719TIP3    H271573   6.686   5.256  17.287  2.1614  0.3938  1.3211
16720TIP3   OH271574   3.266   4.582   2.958  0.3318 -0.0412  0.1658
16720TIP3    H171575   3.175   4.589   2.930  0.4458 -0.6529 -0.3738
16720TIP3    H271576   3.282   4.488   2.966  0.9721  0.0535  0.0457
16721TIP3   OH271577   6.231   1.282  12.174  0.2541 -0.1167  0.0704
16721TIP3    H171578   6.215   1.267  12.081 -1.6440 -0.9861  0.4982
16721TIP3    H271579   6.320   1.249  12.188  0.2179 -0.8640 -1.2468
16722TIP3   OH271580   3.569   5.153   1.876  0.3511 -0.2612  0.3524
16722TIP3    H171581   3.493   5.102   1.848 -0.6932  1.9116 -1.1429
16722TIP3    H271582   3.638   5.126   1.816 -0.2251  0.1327 -0.5167
16723TIP3   OH271583   3.158   3.973  14.384  0.2188  0.3490  0.2153
16723TIP3    H171584   3.238   3.922  14.394 -1.0810 -1.9335 -0.5384
16723TIP3    H271585   3.169   4.018  14.300  1.4008  1.4990  0.9253
16724TIP3   OH271586   6.600   3.226  15.735 -0.3406  0.3441 -0.3463
16724TIP3    H171587   6.566   3.201  15.649 -1.0548 -0.1106  0.0593
16724TIP3    H271588   6.569   3.157  15.794  1.8200 -0.4263 -0.0490
16725TIP3   OH271589   3.494   0.751  16.956  0.4673  0.1011  0.2919
16725TIP3    H171590   3.408   0.783  16.928  0.3087 -1.4776 -1.1599
16725TIP3    H271591   3.535   0.827  16.999 -0.1875  2.0272 -2.2415
16726TIP3   OH271592   6.031   0.261  12.449 -0.4293 -0.6782 -0.1946
16726TIP3    H171593   6.004   0.304  12.368  1.4133  0.4580 -0.2598
16726TIP3    H271594   6.112   0.305  12.475 -0.0374 -2.1577  1.3494
16727TIP3   OH271595   0.659   2.123   1.208  0.5186  0.0304 -0.5183
16727TIP3    H171596   0.567   2.114   1.182 -0.0644  0.6370  1.2082
16727TIP3    H271597   0.686   2.206   1.168  0.0808  0.2387 -0.3891
16728TIP3   OH271598   6.559   4.652  12.408  0.7209 -0.2033  0.1872
16728TIP3    H171599   6.605   4.615  12.483 -0.7942  0.2610  1.3912
16728TIP3    H271600   6.479   4.600  12.401 -0.9105  2.0246  1.2229
16729TIP3   OH271601   5.347   2.801   2.040  0.1615 -0.4216  0.1477
16729TIP3    H171602   5.319   2.884   2.001 -2.8150 -1.7660 -0.8878
16729TIP3    H271603   5.376   2.748   1.966 -2.7539 -1.9649 -0.0508
16730TIP3   OH271604   4.326   3.336  16.325 -0.1411  0.7401 -0.3583
16730TIP3    H171605   4.311   3.245  16.351 -0.4361  0.9033  0.0625
16730TIP3    H271606   4.398   3.332  16.262  0.2208  0.2767  0.0768
16731TIP3   OH271607   0.946   5.537  12.745 -0.5634  0.3695  0.1608
16731TIP3    H171608   0.860   5.502  12.720 -0.4205  0.3398 -0.2892
16731TIP3    H271609   0.992   5.463  12.784 -1.2131  0.6933  1.6152
16732TIP3   OH271610   4.406   3.372  12.792  0.1606  0.1713  0.4010
16732TIP3    H171611   4.335   3.400  12.849 -0.0257 -0.9937  0.7690
16732TIP3    H271612   4.484   3.371  12.848  0.0593 -0.5539  0.5437
16733TIP3   OH271613   1.578   4.680  15.888 -0.5988 -0.4906 -0.4556
16733TIP3    H171614   1.501   4.651  15.839 -1.8736  0.3686  0.9466
16733TIP3    H271615   1.545   4.746  15.949  0.8586 -1.5780  1.6426
16734TIP3   OH271616   2.372   6.360   2.642 -0.7276  0.1131  0.1482
16734TIP3    H171617   2.300   6.413   2.675 -2.1260 -1.0050 -1.0028
16734TIP3    H271618   2.451   6.408   2.670 -1.8505  0.9546  2.1155
16735TIP3   OH271619   4.371   3.131  14.917  0.1393 -0.1496  0.2894
16735TIP3    H171620   4.280   3.133  14.885  0.1125 -0.1763  0.3632
16735TIP3    H271621   4.417   3.077  14.853  0.1489  0.0430  0.1348
16736TIP3   OH271622   5.023   6.272  15.485 -0.6297 -0.6829 -0.2634
16736TIP3    H171623   5.022   6.187  15.530 -0.9101  0.6240  2.4001
16736TIP3    H271624   4.964   6.327  15.537  1.2720  1.7887 -0.5357
16737TIP3   OH271625   2.638   1.994  13.312 -0.0736  0.4601  0.1186
16737TIP3    H171626   2.628   2.078  13.267  0.1480 -0.3237 -1.4566
16737TIP3    H271627   2.572   1.937  13.272 -1.0299  0.1783  1.9919
16738TIP3   OH271628   2.231   0.303  15.693  0.7810 -0.0258 -0.0939
16738TIP3    H171629   2.211   0.254  15.613  1.0139 -1.8454  0.9034
16738TIP3    H271630   2.187   0.387  15.681 -0.5015 -0.8416 -1.4709
16739TIP3   OH271631   2.804   6.112   5.419  0.3544  0.6860  0.3158
16739TIP3    H171632   2.734   6.134   5.481 -0.6644 -0.7559 -0.2615
16739TIP3    H271633   2.884   6.135   5.465 -0.4109  0.4746  1.8368
16740TIP3   OH271634   5.136   6.682  11.516  0.1619  0.2789 -0.3414
16740TIP3    H171635   5.181   6.675  11.601 -1.9063 -1.3450  0.7059
16740TIP3    H271636   5.046   6.702  11.538 -0.6524 -1.1989 -2.0755
16741TIP3   OH271637   5.879   3.807   2.473  0.5543 -0.1561 -0.0594
16741TIP3    H171638   5.958   3.768   2.436 -0.3689 -0.9389 -1.2854
16741TIP3    H271639   5.835   3.734   2.516 -0.5331 -0.2336 -1.2328
16742TIP3   OH271640   1.037   5.671   2.268  0.6526 -0.2165 -0.0525
16742TIP3    H171641   0.946   5.680   2.242  0.6135 -1.5232 -0.4354
16742TIP3    H271642   1.080   5.750   2.235 -0.4644  0.7535  0.7596
16743TIP3   OH271643   1.424   5.184   0.319  0.2347  0.0297  0.3470
16743TIP3    H171644   1.385   5.100   0.343  1.1591  0.1075  2.3559
16743TIP3    H271645   1.351   5.236   0.285 -1.3963 -0.0477  3.3607
16744TIP3   OH271646   1.103   2.140  12.882  0.1167  0.0683 -0.0852
16744TIP3    H171647   1.021   2.129  12.835 -0.3480  1.5437  0.3469
16744TIP3    H271648   1.083   2.112  12.971 -0.1035  1.0231  0.1720
16745TIP3   OH271649   5.482   2.341   1.820 -0.0457  0.1938 -0.0878
16745TIP3    H171650   5.460   2.410   1.883  0.4748  0.7967 -0.5571
16745TIP3    H271651   5.466   2.381   1.735 -0.7391 -0.6182 -0.3509
16746TIP3   OH271652   1.511   2.489  16.756 -0.5054 -0.0060  0.3343
16746TIP3    H171653   1.452   2.416  16.776 -0.5540 -0.1841 -0.4577
16746TIP3    H271654   1.587   2.448  16.716 -0.9433  0.4455 -1.0214
16747TIP3   OH271655   5.464   3.139   3.105 -0.6736 -0.0708 -0.2376
16747TIP3    H171656   5.393   3.158   3.166  2.3860 -0.0517  3.7037
16747TIP3    H271657   5.489   3.049   3.126  1.5830  0.5245 -0.1814
16748TIP3   OH271658   5.698   1.863   0.777  0.0200  0.2525 -0.1746
16748TIP3    H171659   5.626   1.897   0.829 -0.5281  0.4561 -1.0469
16748TIP3    H271660   5.750   1.940   0.755  0.3556  0.1428  0.2161
16749TIP3   OH271661   1.494   4.652   1.352 -0.4992 -0.3754 -0.3004
16749TIP3    H171662   1.410   4.611   1.372 -1.2959  0.4350 -1.7689
16749TIP3    H271663   1.557   4.580   1.353 -0.6720 -0.6751  3.2523
16750TIP3   OH271664   1.115   3.650  11.539 -0.2047 -0.0039 -0.0850
16750TIP3    H171665   1.085   3.722  11.593  1.3730  1.9341 -1.6398
16750TIP3    H271666   1.039   3.625  11.487 -0.2553  2.0154 -1.0417
16751TIP3   OH271667   5.277   1.435  11.940  0.0783  0.4422 -0.0858
16751TIP3    H171668   5.301   1.501  12.004  1.2156  2.2401 -2.2206
16751TIP3    H271669   5.194   1.399  11.972  0.0533  2.0323  1.7918
16752TIP3   OH271670   6.572   0.999  14.786 -0.7942  0.6307  0.1045
16752TIP3    H171671   6.527   0.937  14.843  0.0615  1.2012  1.4629
16752TIP3    H271672   6.600   1.069  14.845  0.6992  0.9311 -0.9128
16753TIP3   OH271673   2.117   2.638  17.269  0.3239  0.5182  0.7402
16753TIP3    H171674   2.061   2.699  17.316  0.9529  0.3469  1.7261
16753TIP3    H271675   2.060   2.564  17.249  0.1234  0.4714  1.4754
16754TIP3   OH271676   3.212   2.692   5.611  0.2869  0.3780  0.0403
16754TIP3    H171677   3.227   2.689   5.517 -0.3483 -1.5895 -0.0443
16754TIP3    H271678   3.299   2.680   5.650  0.1822 -2.5760 -0.3834
16755TIP3   OH271679   0.254   5.653  14.839  0.2951 -0.6549  0.2801
16755TIP3    H171680   0.310   5.595  14.892  0.8408  0.0881  0.5254
16755TIP3    H271681   0.172   5.656  14.888  0.8819  0.2397  1.2688
16756TIP3   OH271682   5.312   1.881  13.496  0.1724 -0.6595 -0.0002
16756TIP3    H171683   5.325   1.787  13.485  0.8713 -0.5815  0.1240
16756TIP3    H271684   5.268   1.909  13.415 -0.5087 -1.1714  0.1805
16757TIP3   OH271685   6.182   4.054   4.690  0.3570 -0.2268  0.1118
16757TIP3    H171686   6.213   4.000   4.763  0.7760 -0.5997 -0.3389
16757TIP3    H271687   6.090   4.031   4.680  0.6914 -1.3531 -0.5043
16758TIP3   OH271688   5.036   3.018  12.173  0.5409  0.8072  0.2654
16758TIP3    H171689   5.049   3.106  12.208 -0.0632  0.6180  1.0064
16758TIP3    H271690   4.943   2.999  12.191  0.6393  0.0627  0.0239
16759TIP3   OH271691   5.761   3.018  10.544 -0.6312  0.2731 -0.6225
16759TIP3    H171692   5.774   2.923  10.543  0.8249  0.4210  0.9059
16759TIP3    H271693   5.707   3.034  10.621 -0.1697  0.7711 -0.4019
16760TIP3   OH271694   6.528   3.035   1.439  0.6535  0.2539 -0.4420
16760TIP3    H171695   6.602   2.994   1.394  1.2125  1.3024 -0.5122
16760TIP3    H271696   6.567   3.107   1.489 -0.0634 -0.3785  1.0997
16761TIP3   OH271697   0.580   0.239   1.179  0.2197 -0.2173  0.0623
16761TIP3    H171698   0.511   0.194   1.229  0.2483 -1.2241 -0.7590
16761TIP3    H271699   0.533   0.280   1.106  0.1260  1.5624  1.0560
16762TIP3   OH271700   5.605   3.863   2.833 -0.2067 -0.0653 -0.1792
16762TIP3    H171701   5.654   3.901   2.760  2.9232 -0.7097  1.3665
16762TIP3    H271702   5.617   3.926   2.904 -1.8632 -0.1873  0.2437
16763TIP3   OH271703   1.553   3.777   1.822  0.3740 -0.1794 -0.0969
16763TIP3    H171704   1.619   3.759   1.888  0.4216 -0.2199 -0.1550
16763TIP3    H271705   1.553   3.699   1.766  0.8617  0.1675 -0.5875
16764TIP3   OH271706   4.134   3.894   4.579  0.1662 -0.2279  0.3057
16764TIP3    H171707   4.222   3.874   4.613  0.4901  0.8769  0.1601
16764TIP3    H271708   4.077   3.829   4.621  0.9711 -0.6520  0.7837
16765TIP3   OH271709   1.988   2.497   5.210  0.0812 -0.1994  0.4241
16765TIP3    H171710   1.954   2.456   5.290 -2.4876  0.3080 -0.3241
16765TIP3    H271711   1.974   2.431   5.142 -0.8571  0.6071 -0.1777
16766TIP3   OH271712   1.575   1.997  12.777  0.1618  0.3837  0.1552
16766TIP3    H171713   1.482   2.002  12.798  0.1164  0.9548 -0.1657
16766TIP3    H271714   1.615   1.960  12.856 -0.3097  0.3205  0.3698
16767TIP3   OH271715   6.036   5.801   5.037  0.1375 -0.1709 -0.0555
16767TIP3    H171716   6.109   5.759   4.992 -0.2752 -0.8773 -0.0871
16767TIP3    H271717   5.959   5.749   5.012 -0.0094 -1.0463  1.9984
16768TIP3   OH271718   4.093   2.880   0.283  0.0272  0.1700 -0.0452
16768TIP3    H171719   4.155   2.945   0.314  0.5425 -0.2977 -0.0730
16768TIP3    H271720   4.142   2.829   0.218  0.1543 -1.2484  1.0977
16769TIP3   OH271721   4.718   4.586  13.471 -0.1454 -0.1723  0.2832
16769TIP3    H171722   4.664   4.538  13.533  0.6915 -1.1636  0.2667
16769TIP3    H271723   4.805   4.587  13.512  0.4422 -0.9428 -0.9117
16770TIP3   OH271724   0.163   3.611  14.327  0.3842  0.0051  0.5024
16770TIP3    H171725   0.198   3.522  14.325 -3.4212 -1.6486 -1.1143
16770TIP3    H271726   0.234   3.664  14.291  2.4473 -2.4326  0.6042
16771TIP3   OH271727   0.893   0.183   0.913 -0.0772 -0.1225 -0.2668
16771TIP3    H171728   0.969   0.183   0.972 -0.8805 -0.4003  0.8026
16771TIP3    H271729   0.931   0.174   0.826  1.1597  0.3786  0.1891
16772TIP3   OH271730   5.833   2.819  11.617 -0.5806  0.1084  0.2024
16772TIP3    H171731   5.811   2.900  11.664 -0.3461  1.8359 -2.5007
16772TIP3    H271732   5.909   2.842  11.564  0.1371 -2.2404  0.1180
16773TIP3   OH271733   0.330   4.628  15.211 -0.8876  0.3024  0.1201
16773TIP3    H171734   0.252   4.683  15.208 -1.2069 -0.1001  0.8504
16773TIP3    H271735   0.298   4.539  15.198 -0.4410  0.2223 -0.4677
16774TIP3   OH271736   5.267   2.106  12.499 -0.3329  0.5129 -0.1153
16774TIP3    H171737   5.216   2.186  12.515 -1.4426 -0.2519  0.2853
16774TIP3    H271738   5.314   2.125  12.417  0.8827  2.2526  0.9078
16775TIP3   OH271739   3.027   4.691   2.583 -0.3608 -0.2737 -0.0630
16775TIP3    H171740   3.062   4.608   2.616 -0.7709 -0.0359  1.0172
16775TIP3    H271741   3.065   4.758   2.641  2.3661  0.6767 -2.6818
16776TIP3   OH271742   0.064   6.400   0.334  0.4920  0.1185 -0.1914
16776TIP3    H171743   0.048   6.494   0.335 -1.4000 -0.1588 -0.0704
16776TIP3    H271744   0.124   6.386   0.261 -1.9939  1.0605 -2.5716
16777TIP3   OH271745   1.267   4.274  12.190 -0.1009 -0.2541  0.1091
16777TIP3    H171746   1.322   4.293  12.114 -0.7350  0.6120 -0.1480
16777TIP3    H271747   1.326   4.285  12.265 -0.2801  2.3192 -0.0484
16778TIP3   OH271748   0.871   2.611  14.398  0.3154  0.3007  0.2385
16778TIP3    H171749   0.889   2.700  14.428  1.2844  0.2977 -0.2848
16778TIP3    H271750   0.820   2.571  14.468  0.6384  0.9874  0.8691
16779TIP3   OH271751   0.390   2.643  16.310  0.3522  0.2497 -0.3109
16779TIP3    H171752   0.301   2.613  16.293 -0.0143  1.1099  0.0462
16779TIP3    H271753   0.392   2.661  16.404  0.9871 -0.0166 -0.2658
16780TIP3   OH271754   1.099   6.562   6.021 -0.2205 -0.2577  0.3098
16780TIP3    H171755   1.135   6.568   5.933  0.8590 -0.4646  0.7121
16780TIP3    H271756   1.080   6.469   6.034  1.1301 -0.4994  0.8269
16781TIP3   OH271757   0.517   0.986   5.772  0.7155  0.0869  0.3017
16781TIP3    H171758   0.593   1.034   5.805 -0.5970  2.4648  0.1034
16781TIP3    H271759   0.490   1.034   5.694  0.8195 -2.5483 -1.4971
16782TIP3   OH271760   6.311   5.336   1.277 -1.0637 -0.6460  0.5179
16782TIP3    H171761   6.394   5.304   1.243 -1.1941 -0.3896 -0.0598
16782TIP3    H271762   6.278   5.394   1.208 -1.9422 -1.1071  0.5341
16783TIP3   OH271763   0.310   2.362  12.010  0.3406 -0.1157  0.8323
16783TIP3    H171764   0.218   2.389  12.004  0.4967  0.1947 -1.2136
16783TIP3    H271765   0.354   2.438  12.047 -0.0737  0.1700  0.7564
16784TIP3   OH271766   0.374   2.822   3.368 -0.3811 -0.3532 -0.0024
16784TIP3    H171767   0.339   2.905   3.338  1.8863  0.6552 -0.0571
16784TIP3    H271768   0.318   2.797   3.442 -1.3393  1.0071 -0.2410
16785TIP3   OH271769   3.162   1.238  11.106  0.0881  0.2485  0.0590
16785TIP3    H171770   3.252   1.270  11.099  0.2609  0.0183  1.0690
16785TIP3    H271771   3.117   1.275  11.029  1.4419 -1.0466 -1.4362
16786TIP3   OH271772   5.906   0.343   3.181 -0.1705 -0.3312  0.1138
16786TIP3    H171773   5.821   0.386   3.180 -0.1831 -0.3703 -0.8863
16786TIP3    H271774   5.949   0.371   3.101  0.8673 -0.1125  0.7248
16787TIP3   OH271775   4.256   1.540  16.774 -0.2965  0.3843 -0.0077
16787TIP3    H171776   4.253   1.559  16.680  2.2377  1.7104  0.0831
16787TIP3    H271777   4.251   1.445  16.780 -0.2949  0.2663 -1.5131
16788TIP3   OH271778   3.623   1.218  11.930 -0.6344  0.1675  0.1735
16788TIP3    H171779   3.678   1.183  11.859  0.9211 -0.3942  1.5956
16788TIP3    H271780   3.572   1.142  11.959  0.9084 -0.3794  1.5877
16789TIP3   OH271781   1.182   5.297  12.179 -0.4560 -0.1111 -0.1940
16789TIP3    H171782   1.147   5.233  12.241  0.4531 -0.0154  0.4332
16789TIP3    H271783   1.265   5.260  12.149  0.3622  1.0031  0.6004
16790TIP3   OH271784   0.011   2.172   6.053 -0.2004  0.5200  0.3006
16790TIP3    H171785  -0.000   2.229   6.129 -0.7442  0.4636  0.2647
16790TIP3    H271786  -0.066   2.115   6.054  0.8449 -0.9444  0.9558
16791TIP3   OH271787   0.356   4.382   2.579 -1.1158 -0.0805  0.7524
16791TIP3    H171788   0.273   4.339   2.596 -1.1350 -0.4255 -0.1479
16791TIP3    H271789   0.356   4.398   2.484  0.2350 -0.9362  0.5789
16792TIP3   OH271790   2.438   3.037   4.077  0.2852 -0.2220 -0.6437
16792TIP3    H171791   2.441   3.131   4.090  0.3151 -0.1945 -0.8408
16792TIP3    H271792   2.408   3.026   3.987 -0.2289 -0.4076 -0.4542
16793TIP3   OH271793   0.003   5.957   1.967  0.2920  0.1205  0.3510
16793TIP3    H171794   0.077   5.933   1.910 -0.2551 -0.3854 -0.1625
16793TIP3    H271795   0.044   5.991   2.046  1.0689  1.4936 -0.6077
16794TIP3   OH271796   3.226   0.590  10.364 -0.4456  0.3022  0.3391
16794TIP3    H171797   3.276   0.551  10.436 -0.3600 -1.0030 -0.4014
16794TIP3    H271798   3.280   0.664  10.336 -0.0900  0.3438  1.0942
16795TIP3   OH271799   4.468   5.507   3.189 -0.1005  0.4029  0.8780
16795TIP3    H171800   4.398   5.547   3.240 -0.5344  1.8707 -0.7629
16795TIP3    H271801   4.425   5.478   3.108  1.0906  0.8992  0.0470
16796TIP3   OH271802   1.516   5.543   1.184 -0.5324  0.4956 -0.1195
16796TIP3    H171803   1.488   5.531   1.275 -2.7499 -0.1245 -0.8461
16796TIP3    H271804   1.487   5.631   1.161 -2.6353 -0.3947 -1.0857
16797TIP3   OH271805   0.831   1.593   0.125 -0.2143 -0.2276  0.4409
16797TIP3    H171806   0.913   1.548   0.147 -0.0588  0.9035  2.4634
16797TIP3    H271807   0.812   1.565   0.036  0.0726 -3.9745  1.3726
16798TIP3   OH271808   5.617   1.913  15.753  0.4804  0.4485 -0.2509
16798TIP3    H171809   5.633   1.819  15.741  0.3903  0.4144 -0.1029
16798TIP3    H271810   5.560   1.918  15.829 -0.2636  0.5600 -0.8054
16799TIP3   OH271811   2.877   3.397   3.471  0.2150 -0.1865  0.4945
16799TIP3    H171812   2.905   3.478   3.429 -0.6807  0.1735  0.5579
16799TIP3    H271813   2.810   3.424   3.534  0.7593 -0.8420  1.3855
16800TIP3   OH271814   4.503   4.600   3.446  0.2490  0.2442  0.1917
16800TIP3    H171815   4.455   4.519   3.465  1.1877 -0.1521  0.9846
16800TIP3    H271816   4.555   4.579   3.368  0.9456 -0.1444  0.7397
16801TIP3   OH271817   5.024   5.721  11.200  0.4708 -0.0958  0.2489
16801TIP3    H171818   4.990   5.700  11.113  2.2587 -0.0524 -0.5149
16801TIP3    H271819   4.982   5.803  11.224 -0.2691 -0.2630 -0.4373
16802TIP3   OH271820   3.677   0.712  11.223  0.3532 -0.0707 -0.4577
16802TIP3    H171821   3.750   0.767  11.195 -0.8876  1.4313 -0.8710
16802TIP3    H271822   3.647   0.751  11.305 -0.9129  0.2245 -1.0512
16803TIP3   OH271823   5.383   1.603  17.172  0.1254  0.1650  0.0152
16803TIP3    H171824   5.370   1.652  17.253 -1.2755  0.2769 -0.2503
16803TIP3    H271825   5.295   1.579  17.144  0.6497 -0.7150 -0.9662
16804TIP3   OH271826   1.291   6.517  15.903 -0.1196 -0.1159  0.2881
16804TIP3    H171827   1.292   6.434  15.950 -0.9904  0.1320  0.7881
16804TIP3    H271828   1.354   6.572  15.949  1.1360 -0.7743 -0.6064
16805TIP3   OH271829   4.729   1.470   1.176 -0.1117 -0.2846 -0.4432
16805TIP3    H171830   4.740   1.495   1.268  1.4666 -0.6824 -0.4913
16805TIP3    H271831   4.634   1.474   1.161 -0.4034 -0.2703  1.2067
16806TIP3   OH271832   1.074   1.479   6.114  0.0246 -0.3714 -0.4102
16806TIP3    H171833   0.999   1.459   6.057 -0.4594 -0.1673  0.1456
16806TIP3    H271834   1.148   1.487   6.054 -0.9359  2.4953 -1.3931
16807TIP3   OH271835   4.146   1.626  12.845  0.1529 -0.4195 -0.0191
16807TIP3    H171836   4.134   1.721  12.844  1.0123 -0.2950  0.3185
16807TIP3    H271837   4.075   1.592  12.791  0.7878  0.5290 -1.5109
16808TIP3   OH271838   1.055   6.282   1.769 -0.3454 -0.1176  1.4510
16808TIP3    H171839   1.000   6.300   1.693  0.9557 -0.3742  0.3979
16808TIP3    H271840   1.059   6.366   1.815 -0.7334  0.1839  0.9498
16809TIP3   OH271841   4.468   5.881  14.142 -0.0032 -0.1382  0.1014
16809TIP3    H171842   4.434   5.867  14.053 -1.1639 -1.5071  0.7174
16809TIP3    H271843   4.563   5.870  14.133 -0.1549 -0.7731 -0.8838
16810TIP3   OH271844   6.490   3.281   4.033  0.1384  0.6189  0.0873
16810TIP3    H171845   6.452   3.308   4.117  0.4069 -2.0232  1.1579
16810TIP3    H271846   6.433   3.320   3.967 -1.8203  0.4328  1.5748
16811TIP3   OH271847   4.940   6.619  12.155  0.0157 -0.1974  0.1427
16811TIP3    H171848   4.963   6.698  12.106 -0.5422  1.3976  2.2849
16811TIP3    H271849   4.998   6.621  12.232  1.5000 -3.0809 -0.7403
16812TIP3   OH271850   6.496   0.528   1.970  0.2695 -0.4800 -0.8155
16812TIP3    H171851   6.564   0.480   1.922  1.4434  0.3464 -0.0319
16812TIP3    H271852   6.545   0.585   2.029 -1.1057  0.9442 -0.9984
16813TIP3   OH271853   5.638   4.574  12.174  0.0275  0.1140  0.2842
16813TIP3    H171854   5.642   4.625  12.093 -0.3323 -1.3220 -0.6854
16813TIP3    H271855   5.545   4.564  12.192  0.1082  0.5147  0.9496
16814TIP3   OH271856   0.642   0.481  15.361  0.0774 -0.1696 -0.2357
16814TIP3    H171857   0.626   0.511  15.272  0.3403  1.1760  0.1446
16814TIP3    H271858   0.737   0.489  15.372  0.1314 -1.0236 -0.0728
16815TIP3   OH271859   2.861   5.612   5.611  0.2755  0.0862  0.2421
16815TIP3    H171860   2.779   5.606   5.661 -0.2205  0.2237 -0.5234
16815TIP3    H271861   2.839   5.672   5.539  1.3063  0.8015  0.5100
16816TIP3   OH271862   5.284   2.695   5.493  0.0661  0.4247 -0.3238
16816TIP3    H171863   5.305   2.712   5.402 -0.0716  0.6193 -0.3221
16816TIP3    H271864   5.368   2.691   5.538  0.1964 -0.8819 -0.6545
16817TIP3   OH271865   4.250   4.792  14.473 -0.2735  0.9314 -0.3578
16817TIP3    H171866   4.228   4.866  14.530  0.3468 -0.7323  2.2556
16817TIP3    H271867   4.289   4.728  14.533 -3.5620 -2.8046 -1.8192
16818TIP3   OH271868   5.032   2.730  15.441 -0.0095 -0.1814 -0.2506
16818TIP3    H171869   4.954   2.782  15.422 -0.8482 -1.3066  0.0311
16818TIP3    H271870   5.026   2.655  15.383  1.9735  0.7030 -1.7450
16819TIP3   OH271871   0.193   2.543  12.723 -0.1388 -0.0850 -0.2329
16819TIP3    H171872   0.246   2.602  12.777 -1.7856 -0.7403  2.2560
16819TIP3    H271873   0.136   2.499  12.785 -0.0953 -3.1600 -2.1851
16820TIP3   OH271874   3.877   2.344   4.635  0.3648  0.3426  0.1362
16820TIP3    H171875   3.936   2.408   4.676  1.2806 -0.4339  0.0555
16820TIP3    H271876   3.894   2.354   4.541 -0.1148  0.5656  0.0702
16821TIP3   OH271877   6.734   0.694   6.723  0.2797  0.1347 -0.5992
16821TIP3    H171878   6.760   0.704   6.632 -2.4201  0.1379 -1.4597
16821TIP3    H271879   6.798   0.746   6.772  2.1625 -0.3760 -2.3819
16822TIP3   OH271880   1.483   4.209   1.523  0.2254  0.0773  0.0822
16822TIP3    H171881   1.476   4.121   1.485  0.5608 -0.7653  1.8722
16822TIP3    H271882   1.577   4.219   1.542 -0.0144  0.2061  1.2533
16823TIP3   OH271883   1.221   4.655   0.861  0.7095 -0.5315  0.5638
16823TIP3    H171884   1.166   4.590   0.904 -0.9160  1.2973  1.4174
16823TIP3    H271885   1.268   4.697   0.933  1.2950 -0.3702  0.0913
16824TIP3   OH271886   4.289   5.974   6.130  0.4239  0.6929 -0.2498
16824TIP3    H171887   4.199   5.964   6.100  1.0186 -0.3935 -1.7762
16824TIP3    H271888   4.285   6.046   6.194 -1.5492  0.4758 -0.0719
16825TIP3   OH271889   2.993   5.829  12.503 -0.1908 -0.7332  0.2847
16825TIP3    H171890   3.012   5.816  12.596 -2.6682 -0.6765  0.8929
16825TIP3    H271891   2.909   5.785  12.490  0.1087 -0.7438 -1.9490
16826TIP3   OH271892   3.425   6.492  15.863 -0.2212 -0.5331 -0.4131
16826TIP3    H171893   3.512   6.474  15.827  0.1436 -3.3823  1.5627
16826TIP3    H271894   3.366   6.436  15.812 -0.3877 -0.9708  0.2402
16827TIP3   OH271895   3.495   2.491  13.268  0.3842 -0.0304 -0.8963
16827TIP3    H171896   3.544   2.514  13.188  0.3077  0.9853 -0.6692
16827TIP3    H271897   3.422   2.439  13.236  1.2478 -1.0172 -1.3122
16828TIP3   OH271898   0.380   3.564  12.237 -0.2289 -0.5440 -0.2029
16828TIP3    H171899   0.407   3.481  12.276 -0.2582 -0.6302 -0.3644
16828TIP3    H271900   0.455   3.591  12.185 -0.4052 -0.7233 -0.5546
16829TIP3   OH271901   2.050   3.898   1.562 -0.0683  0.2344  0.0916
16829TIP3    H171902   2.028   3.807   1.579  0.2666 -0.0438 -0.9366
16829TIP3    H271903   2.001   3.947   1.629 -1.7412 -0.5475 -0.4870
16830TIP3   OH271904   5.704   2.584   1.798 -0.3043 -0.6891  0.2657
16830TIP3    H171905   5.787   2.608   1.757 -0.2436 -0.1575  0.6923
16830TIP3    H271906   5.704   2.488   1.798  0.4197 -0.6923  0.4779
16831TIP3   OH271907   6.219   1.367   2.746  0.7753  0.1000 -0.2160
16831TIP3    H171908   6.167   1.293   2.779  1.1080 -0.3491 -0.6814
16831TIP3    H271909   6.234   1.346   2.654  1.2288  0.5458 -0.2440
16832TIP3   OH271910   1.357   0.845  14.572 -0.5913 -0.6869 -0.2858
16832TIP3    H171911   1.329   0.754  14.580 -2.6793  0.0532  1.5700
16832TIP3    H271912   1.284   0.896  14.605  1.3351  1.5951  0.7455
16833TIP3   OH271913   4.744   6.238   1.664  0.2635 -0.1485 -0.4088
16833TIP3    H171914   4.828   6.284   1.668  1.2714 -1.9561 -0.1324
16833TIP3    H271915   4.692   6.292   1.604  1.9983  0.4318 -1.5019
16834TIP3   OH271916   2.417   5.762  10.825  0.4270  0.1242 -0.0788
16834TIP3    H171917   2.355   5.834  10.816  0.5150 -0.0162 -2.3821
16834TIP3    H271918   2.470   5.765  10.745  1.4644 -1.5388  0.4816
16835TIP3   OH271919   0.014   5.427  15.392  0.0808  0.4245 -0.0186
16835TIP3    H171920  -0.005   5.410  15.484  1.4381 -2.0141 -0.0918
16835TIP3    H271921   0.069   5.505  15.392 -1.3674  1.4808  1.0438
16836TIP3   OH271922   1.753   0.241   4.665 -0.3875 -0.1134  0.1503
16836TIP3    H171923   1.700   0.253   4.743  2.5704 -2.0593  2.6847
16836TIP3    H271924   1.786   0.152   4.672  1.0401  0.0698 -2.7257
16837TIP3   OH271925   1.870   1.421   4.304 -0.1447 -0.3131 -0.5794
16837TIP3    H171926   1.964   1.401   4.302 -0.1924 -0.5729 -0.2469
16837TIP3    H271927   1.866   1.516   4.292  0.2690  0.0123  1.4722
16838TIP3   OH271928   0.489   5.757   6.207 -0.0200  0.5235 -0.3947
16838TIP3    H171929   0.574   5.760   6.250 -0.0173 -0.3298 -0.3143
16838TIP3    H271930   0.426   5.753   6.279 -0.1428  1.3062 -0.4517
16839TIP3   OH271931   5.029   1.004   3.313  0.7240  0.1833  0.8273
16839TIP3    H171932   4.939   0.998   3.282  1.4257 -0.7499 -1.2181
16839TIP3    H271933   5.037   1.093   3.348 -0.7778  0.5129  0.3773
16840TIP3   OH271934   0.222   2.863   1.758  0.2630 -0.6011  0.1855
16840TIP3    H171935   0.238   2.918   1.835  1.7814 -1.0455  0.2037
16840TIP3    H271936   0.134   2.889   1.730  0.0896  0.3186  1.4384
16841TIP3   OH271937   0.944   6.743   5.355  0.2977  0.0551  0.4777
16841TIP3    H171938   0.887   6.798   5.408 -1.2944 -2.3302  1.4343
16841TIP3    H271939   0.900   6.737   5.270  2.2212  2.8806 -0.8455
16842TIP3   OH271940   0.076   0.063   0.881 -0.1343 -0.0849 -0.2451
16842TIP3    H171941   0.059  -0.029   0.901  1.9647 -0.6534 -0.8030
16842TIP3    H271942   0.016   0.083   0.809 -0.6869 -0.9893 -0.0482
16843TIP3   OH271943   1.135   0.198   5.773  0.0717 -0.1876  0.0033
16843TIP3    H171944   1.172   0.183   5.860  0.9889  0.3532 -0.2753
16843TIP3    H271945   1.100   0.287   5.776 -0.3515 -0.3521 -0.0270
16844TIP3   OH271946   5.006   3.910   4.816  0.2474  0.0235  0.1814
16844TIP3    H171947   5.018   3.975   4.885 -1.3544  0.0366  0.4933
16844TIP3    H271948   5.047   3.830   4.851 -0.7324 -0.0361  1.2861
16845TIP3   OH271949   1.962   3.360  15.973 -0.1957  0.2182  0.8188
16845TIP3    H171950   1.867   3.364  15.983 -0.2875  0.0007  0.0519
16845TIP3    H271951   1.989   3.293  16.036 -0.4674  0.7597  1.5236
16846TIP3   OH271952   4.838   1.997   3.307  0.0122  0.0424  0.3138
16846TIP3    H171953   4.871   1.964   3.223 -0.2856 -2.8643  1.2188
16846TIP3    H271954   4.850   2.092   3.302  1.2110 -0.1532 -2.4699
16847TIP3   OH271955   5.004   4.648  10.838  0.3381 -0.3291  0.1789
16847TIP3    H171956   5.054   4.721  10.800  0.6125 -1.3615 -1.5503
16847TIP3    H271957   5.059   4.571  10.822 -0.4996 -1.0964  0.8977
16848TIP3   OH271958   6.373   5.599   0.693  0.1057 -0.1106 -0.5758
16848TIP3    H171959   6.411   5.658   0.627  0.4414 -0.0583 -0.3371
16848TIP3    H271960   6.438   5.530   0.703  0.2806  0.1428  0.0654
16849TIP3   OH271961   2.132   6.408   2.225  0.2454  0.0417  0.3608
16849TIP3    H171962   2.215   6.394   2.270  1.0005 -0.5959 -1.1773
16849TIP3    H271963   2.107   6.321   2.193  0.0768  0.5835 -1.0345
16850TIP3   OH271964   0.581   3.213   1.386 -0.2753 -0.2215 -0.0958
16850TIP3    H171965   0.642   3.170   1.327  0.2904 -0.4710  0.6498
16850TIP3    H271966   0.494   3.188   1.355 -0.0260  0.5891 -1.5111
16851TIP3   OH271967   5.129   2.343   5.920  0.0156  0.0313  0.0334
16851TIP3    H171968   5.068   2.281   5.958 -0.2691 -0.5770 -1.3501
16851TIP3    H271969   5.204   2.343   5.979 -1.1812  0.5958  1.6198
16852TIP3   OH271970   4.351   0.274  15.496  0.5233  0.4263 -0.3777
16852TIP3    H171971   4.287   0.324  15.547  0.2663 -0.9845  0.7824
16852TIP3    H271972   4.299   0.225  15.433  0.6995  1.0710 -1.0258
16853TIP3   OH271973   2.484   4.681  11.995 -0.4794 -0.0508  0.8829
16853TIP3    H171974   2.451   4.680  11.905 -0.7717 -1.2731  0.9941
16853TIP3    H271975   2.483   4.774  12.019 -0.6084  0.2689 -0.2907
16854TIP3   OH271976   4.479   2.379  11.828  0.6652 -0.0737 -0.0484
16854TIP3    H171977   4.444   2.394  11.740  0.4487 -1.3034 -0.1799
16854TIP3    H271978   4.516   2.464  11.853  1.8843 -0.0154 -1.8384
16855TIP3   OH271979   3.243   1.650  13.751 -0.8241  0.0143  0.0339
16855TIP3    H171980   3.270   1.736  13.781 -0.3518  0.2431 -0.9948
16855TIP3    H271981   3.149   1.656  13.738 -1.0330 -0.0725  1.3460
16856TIP3   OH271982   0.325   0.400  16.278 -0.2105 -0.3962 -0.0456
16856TIP3    H171983   0.416   0.417  16.304  0.2255 -1.5237 -0.7666
16856TIP3    H271984   0.275   0.471  16.319  1.2716  1.5338 -1.3970
16857TIP3   OH271985   5.779   0.891  15.798  0.0596 -0.2295 -0.7329
16857TIP3    H171986   5.730   0.841  15.733 -1.8613  0.7237 -0.0724
16857TIP3    H271987   5.853   0.835  15.820 -0.7543 -1.7577 -1.7102
16858TIP3   OH271988   3.862   2.337  15.911  0.4919  0.2749 -0.1615
16858TIP3    H171989   3.913   2.379  15.841 -1.5241  1.0589 -1.2727
16858TIP3    H271990   3.884   2.244  15.904  1.5903  0.5571 -0.7341
16859TIP3   OH271991   4.627   2.234  17.384 -0.0380  0.7795  0.5039
16859TIP3    H171992   4.570   2.286  17.442  2.7145  4.7585  0.0933
16859TIP3    H271993   4.595   2.253  17.296  0.4847  1.1639  0.3908
16860TIP3   OH271994   4.233   3.178  11.946  0.1373 -0.3754  0.2807
16860TIP3    H171995   4.147   3.162  11.906  0.8809  1.2982 -2.2171
16860TIP3    H271996   4.295   3.137  11.885  1.1936 -0.9987  1.7218
16861TIP3   OH271997   3.723   2.585  15.966  0.8354  0.3185 -0.0633
16861TIP3    H171998   3.633   2.575  15.998  0.3674  0.9334 -1.1082
16861TIP3    H271999   3.755   2.495  15.957 -0.7801 -0.1150 -2.5964
16862TIP3   OH272000   6.091   0.466   0.915 -0.3549 -0.4382  0.1684
16862TIP3    H172001   6.172   0.482   0.963  0.9612  0.2222 -2.1247
16862TIP3    H272002   6.044   0.549   0.919 -1.1336 -0.9118  1.7664
16863TIP3   OH272003   4.085   3.983  12.001  0.5136 -0.1682 -0.1190
16863TIP3    H172004   4.154   3.991  12.067 -0.2457 -1.1097  0.8276
16863TIP3    H272005   4.122   4.023  11.922  2.5344 -1.5540  0.0504
16864TIP3   OH272006   5.799   1.444  16.391 -0.6144 -0.4077  0.5061
16864TIP3    H172007   5.735   1.372  16.381 -1.8512  0.8539 -1.3774
16864TIP3    H272008   5.773   1.508  16.324  2.3086  0.4380  0.0556
16865TIP3   OH272009   3.595   1.123   3.490 -0.6362 -0.0263  0.1834
16865TIP3    H172010   3.673   1.179   3.493  0.0560 -0.9721  0.4294
16865TIP3    H272011   3.521   1.183   3.498  0.0453  0.9557 -0.7984
16866TIP3   OH272012   5.491   5.420  15.320  0.2923  0.0830  0.2970
16866TIP3    H172013   5.499   5.356  15.391 -2.4502  0.6195  1.2109
16866TIP3    H272014   5.462   5.369  15.244  0.7687 -0.1415  0.2667
16867TIP3   OH272015   2.109   0.850   2.736  0.3710  0.9747 -0.1898
16867TIP3    H172016   2.099   0.756   2.730  0.1210  0.9278  0.7511
16867TIP3    H272017   2.140   0.865   2.826 -2.3663  1.9880  0.6956
16868TIP3   OH272018   0.681   3.275  16.130  0.8014 -0.3101  0.2027
16868TIP3    H172019   0.657   3.347  16.073  2.0075 -0.1378 -0.1203
16868TIP3    H272020   0.632   3.291  16.211 -0.9786 -0.6029 -0.7724
16869TIP3   OH272021   1.536   0.259  17.085  0.5212  0.1233  0.1153
16869TIP3    H172022   1.530   0.353  17.101 -0.8523  0.1178 -0.2757
16869TIP3    H272023   1.624   0.246  17.049  0.7135  1.2557  0.1473
16870TIP3   OH272024   2.352   2.471   4.199  0.0819  0.7787  0.2741
16870TIP3    H172025   2.381   2.563   4.207 -0.4052  0.8638  1.2064
16870TIP3    H272026   2.257   2.475   4.208  0.0297  0.2080 -0.0036
16871TIP3   OH272027   2.019   0.665  12.663  0.3457  0.1137  0.4014
16871TIP3    H172028   2.022   0.715  12.745  3.7426  1.4830 -0.3992
16871TIP3    H272029   2.086   0.598  12.674  1.9657  1.2728 -1.7142
16872TIP3   OH272030   4.708   5.392  11.028  0.1136 -0.0257  0.2019
16872TIP3    H172031   4.664   5.475  11.010  0.9810  0.2333 -0.8801
16872TIP3    H272032   4.724   5.392  11.122  0.1763  1.0726  0.1956
16873TIP3   OH272033   3.124   4.203  16.055  0.0614  1.1612 -0.5253
16873TIP3    H172034   3.080   4.188  15.971 -1.5170  0.1574  0.4236
16873TIP3    H272035   3.172   4.122  16.072  2.2934  2.2080 -1.4956
16874TIP3   OH272036   2.985   2.499   3.870  0.0946  0.0394 -0.4282
16874TIP3    H172037   3.026   2.563   3.929 -0.7538  2.0962 -1.9313
16874TIP3    H272038   2.982   2.418   3.921 -1.9438  2.0142  3.0051
16875TIP3   OH272039   4.647   5.292   3.644  0.1133 -0.4136  0.0923
16875TIP3    H172040   4.601   5.329   3.569 -1.0231  2.3427  1.9953
16875TIP3    H272041   4.593   5.219   3.671 -0.0504 -0.7484 -1.0702
16876TIP3   OH272042   2.352   4.175  11.697 -0.3592  0.3119  0.6762
16876TIP3    H172043   2.301   4.214  11.626  0.8120  0.1172 -0.2906
16876TIP3    H272044   2.366   4.085  11.670  0.2680  0.2924  1.0489
16877TIP3   OH272045   5.909   3.802  13.533  0.1711  0.0014  0.2108
16877TIP3    H172046   5.893   3.845  13.617  0.2336  1.1289 -0.3355
16877TIP3    H272047   5.940   3.872  13.476  1.2090 -0.9574 -0.4482
16878TIP3   OH272048   1.223   2.086   3.263  0.0935  0.5379 -0.2108
16878TIP3    H172049   1.238   2.114   3.173  0.6888 -0.9753 -0.5978
16878TIP3    H272050   1.268   2.153   3.316  1.0016  0.6369 -1.0835
16879TIP3   OH272051   4.023   6.120  13.865  0.2113  0.5551  0.2061
16879TIP3    H172052   4.068   6.055  13.810  2.9847  2.9245 -0.5255
16879TIP3    H272053   3.932   6.117  13.834  0.5006 -2.0044 -0.6760
16880TIP3   OH272054   4.006   5.551  11.706 -0.3598 -0.1699 -0.6329
16880TIP3    H172055   3.951   5.473  11.696 -0.4349 -0.2472  0.2465
16880TIP3    H272056   3.999   5.597  11.623 -3.0134  0.6324 -0.0562
16881TIP3   OH272057   2.396   0.920  10.634  0.1046  0.0254  0.1387
16881TIP3    H172058   2.422   0.990  10.574  0.8559 -0.4455 -0.1098
16881TIP3    H272059   2.308   0.943  10.663 -0.3844  0.1280 -1.3525
16882TIP3   OH272060   0.005   3.672   4.680 -0.1955  0.2936 -0.1918
16882TIP3    H172061  -0.055   3.735   4.718 -1.4812 -0.2935 -1.1424
16882TIP3    H272062   0.014   3.604   4.746  0.0118  0.7496  0.2500
16883TIP3   OH272063   4.347   5.567  11.144 -0.1829 -0.7182 -0.2167
16883TIP3    H172064   4.314   5.515  11.071 -2.5797 -0.5459  0.6561
16883TIP3    H272065   4.325   5.657  11.122  1.0469 -0.4119 -0.2510
16884TIP3   OH272066   1.410   5.418  12.695  0.5336  0.1817 -0.3688
16884TIP3    H172067   1.352   5.467  12.637  2.3813 -0.3079 -2.8111
16884TIP3    H272068   1.495   5.460  12.685  1.1083 -0.4767  1.3880
16885TIP3   OH272069   5.230   2.072  17.044 -0.1792  0.8884 -0.0987
16885TIP3    H172070   5.277   2.113  17.116 -1.2523 -0.1575  1.2745
16885TIP3    H272071   5.148   2.041  17.084 -1.8140  2.1819 -2.2585
16886TIP3   OH272072   5.126   6.179  12.986 -0.0134 -0.6041  0.0581
16886TIP3    H172073   5.058   6.115  13.006 -0.4283 -0.9325 -2.0937
16886TIP3    H272074   5.207   6.127  12.982 -0.0948 -0.7206 -0.0965
16887TIP3   OH272075   2.766   2.815  16.869 -0.1122  0.1465 -0.5924
16887TIP3    H172076   2.708   2.773  16.806  1.0892 -0.4414 -1.3514
16887TIP3    H272077   2.848   2.829  16.820  1.1760 -1.1590  1.0717
16888TIP3   OH272078   1.642   5.390  14.264  0.1698 -0.0708  0.7350
16888TIP3    H172079   1.668   5.347  14.183 -0.4530 -0.3479  0.6731
16888TIP3    H272080   1.584   5.327  14.307  0.0225  0.3141  1.1089
16889TIP3   OH272081   1.444   1.425  11.764  0.3614  0.3284  0.1309
16889TIP3    H172082   1.375   1.372  11.803  0.4089 -0.6011 -1.0172
16889TIP3    H272083   1.523   1.371  11.770  1.1632  1.5996  1.9464
16890TIP3   OH272084   4.040   0.470  13.408 -0.0079 -0.5537 -0.5237
16890TIP3    H172085   4.084   0.555  13.410 -2.8017  1.0210  2.2582
16890TIP3    H272086   3.949   0.491  13.384 -0.4963 -2.9659 -1.0339
16891TIP3   OH272087   4.707   5.149   5.396  0.3295 -0.2761  0.2132
16891TIP3    H172088   4.749   5.085   5.453 -0.3009 -0.2503  0.7226
16891TIP3    H272089   4.779   5.194   5.352  0.7927 -0.9131  0.3182
16892TIP3   OH272090   1.516   0.139   5.685  0.1256  0.0989 -0.0344
16892TIP3    H172091   1.474   0.053   5.687  0.8462 -0.3027 -1.2338
16892TIP3    H272092   1.473   0.185   5.613  2.0823 -0.5359 -1.6805
16893TIP3   OH272093   4.131   6.647   4.941 -0.3563 -0.3335 -0.4471
16893TIP3    H172094   4.202   6.601   4.986 -0.4386  0.5994  0.6670
16893TIP3    H272095   4.174   6.720   4.896 -0.7928  1.4980  1.9380
16894TIP3   OH272096   0.633   1.549  17.347 -0.3722  0.8412  0.2861
16894TIP3    H172097   0.647   1.581  17.258  3.1200 -1.5492 -0.2497
16894TIP3    H272098   0.574   1.474  17.337 -0.1161  0.6790 -0.0083
16895TIP3   OH272099   3.047   0.032  15.629  0.2357  0.0443  0.3918
16895TIP3    H172100   3.004   0.031  15.715  0.1966 -0.4476  0.3653
16895TIP3    H272101   2.988   0.084  15.574 -0.5363 -0.9689  0.2467
16896TIP3   OH272102   1.138   3.407   3.052 -0.3802  0.5777 -0.9360
16896TIP3    H172103   1.125   3.444   3.139 -0.5939 -1.5057 -0.0508
16896TIP3    H272104   1.091   3.468   2.994 -3.4390  0.0873  0.7986
16897TIP3   OH272105   5.028   0.728   1.860  0.3602  0.4862 -0.3481
16897TIP3    H172106   5.052   0.785   1.933  0.2970  0.6486 -0.4522
16897TIP3    H272107   4.984   0.787   1.798 -1.0047  0.0533  0.1834
16898TIP3   OH272108   3.742   5.403   5.191 -0.0445 -0.0496  0.3603
16898TIP3    H172109   3.719   5.494   5.209 -2.2081 -0.3680 -0.5696
16898TIP3    H272110   3.717   5.389   5.100  0.4674 -1.5162  0.4222
16899TIP3   OH272111   5.500   1.174   2.499 -0.3789  0.3074  0.5853
16899TIP3    H172112   5.565   1.225   2.450 -0.9038  0.8676  0.4593
16899TIP3    H272113   5.449   1.129   2.432 -1.5227  1.5909  0.5523
16900TIP3   OH272114   5.429   3.637   0.911 -0.0493 -0.0976  0.4383
16900TIP3    H172115   5.432   3.707   0.846 -0.1957 -0.8536 -0.3940
16900TIP3    H272116   5.504   3.582   0.889 -0.7337 -0.9527  0.2307
16901TIP3   OH272117   0.826   6.188   1.076 -0.2319 -0.0243  0.1157
16901TIP3    H172118   0.844   6.107   1.027 -0.2767 -0.2123  0.4042
16901TIP3    H272119   0.822   6.160   1.167  0.3518  0.4082  0.2768
16902TIP3   OH272120   1.478   1.839   1.134 -0.1227 -0.1068  0.3504
16902TIP3    H172121   1.422   1.905   1.094  1.1090  0.4316 -0.5559
16902TIP3    H272122   1.436   1.756   1.115  0.1634  0.1732 -1.6736
16903TIP3   OH272123   3.520   1.142  11.479  0.2212  0.1317  0.3120
16903TIP3    H172124   3.489   1.192  11.554  1.1169  1.6370 -0.2704
16903TIP3    H272125   3.615   1.156  11.478  0.5225 -1.6291  0.1223
16904TIP3   OH272126   1.257   0.605   3.602 -0.0416 -0.1028  0.3045
16904TIP3    H172127   1.289   0.647   3.522 -0.4893 -0.2352  0.0555
16904TIP3    H272128   1.327   0.544   3.626 -0.0823 -0.3537 -0.2088
16905TIP3   OH272129   4.843   6.204   1.998 -0.5545  0.0510  0.3326
16905TIP3    H172130   4.862   6.298   1.995  0.9308 -0.2515 -0.8793
16905TIP3    H272131   4.868   6.177   2.087  1.4239  0.3609 -0.0956
16906TIP3   OH272132   5.992   0.577   1.825 -0.0707 -0.7518 -0.0011
16906TIP3    H172133   6.087   0.574   1.835 -0.0479 -1.5519 -0.4288
16906TIP3    H272134   5.975   0.539   1.739 -0.9683 -3.6407  1.3112
16907TIP3   OH272135   0.433   1.942   0.813  0.5194  0.5349 -0.4625
16907TIP3    H172136   0.420   1.848   0.829  2.8705  0.3658  0.8245
16907TIP3    H272137   0.348   1.981   0.832 -0.0500 -1.1282  0.6639
16908TIP3   OH272138   3.883   3.709  16.132 -0.3080 -0.2341 -0.2300
16908TIP3    H172139   3.932   3.783  16.098  0.3748 -0.2457  0.6717
16908TIP3    H272140   3.935   3.632  16.108  0.7051 -0.1845  1.5782
16909TIP3   OH272141   3.941   4.520   2.485  0.1316 -0.5608  0.1274
16909TIP3    H172142   3.982   4.438   2.513  0.0103 -0.8656 -0.5655
16909TIP3    H272143   3.905   4.558   2.565  0.1417 -1.2117  0.4469
16910TIP3   OH272144   1.872   3.587   5.243 -0.5571  0.4363 -0.4974
16910TIP3    H172145   1.807   3.517   5.242 -0.8898  0.6776 -3.0064
16910TIP3    H272146   1.822   3.667   5.223  0.2189  0.9260 -0.5377
16911TIP3   OH272147   5.121   0.499   1.221 -0.1647 -0.5878  0.8526
16911TIP3    H172148   5.163   0.491   1.306 -0.5427 -1.2317  0.9859
16911TIP3    H272149   5.086   0.588   1.220  0.0091 -0.5131  1.2916
16912TIP3   OH272150   3.212   5.531  15.519 -0.3021  0.2307  0.0777
16912TIP3    H172151   3.193   5.440  15.542 -0.1402 -0.1808 -1.3126
16912TIP3    H272152   3.135   5.560  15.470 -0.0707  0.6138 -0.0634
16913TIP3   OH272153   3.629   5.114   5.422 -0.7261 -0.4246 -0.0592
16913TIP3    H172154   3.641   5.053   5.496  0.3717  1.0276  1.0141
16913TIP3    H272155   3.545   5.156   5.440 -0.5722 -0.2428  0.2475
16914TIP3   OH272156   0.120   2.561  16.268 -0.0524 -0.4451 -0.1799
16914TIP3    H172157   0.093   2.514  16.189 -0.5392 -1.9740  0.8321
16914TIP3    H272158   0.038   2.593  16.306  0.1863  0.3692 -0.3468
16915TIP3   OH272159   0.193   0.150   0.396  0.0209  0.0346 -0.2319
16915TIP3    H172160   0.215   0.215   0.463 -0.3754  1.9510 -1.8789
16915TIP3    H272161   0.271   0.144   0.342  0.2358 -1.2902  0.1829
16916TIP3   OH272162   0.935   0.178   2.652  0.0730 -0.3786  0.0093
16916TIP3    H172163   0.975   0.264   2.640 -1.1320  0.0128 -1.4937
16916TIP3    H272164   0.935   0.165   2.747  0.6923  1.0688  0.2325
16917TIP3   OH272165   1.099   0.312   1.881 -0.1838  0.1179  0.1620
16917TIP3    H172166   1.019   0.265   1.907 -1.5390  3.2426  2.3060
16917TIP3    H272167   1.067   0.392   1.839  1.8429  0.9673  0.1247
16918TIP3   OH272168   1.077   5.417   0.017  0.3662 -0.4866 -0.1509
16918TIP3    H172169   1.030   5.497   0.042  0.2477 -0.8355  0.7888
16918TIP3    H272170   1.141   5.446  -0.049  1.4992  0.7289  1.3969
16919TIP3   OH272171   2.075   3.358   3.683 -0.1987 -0.0949 -0.0092
16919TIP3    H172172   2.097   3.355   3.776 -0.6137  0.0320  0.0966
16919TIP3    H272173   1.979   3.350   3.681 -0.4382  2.2380 -0.2880
16920TIP3   OH272174   4.630   0.476   4.541  0.2944 -0.1736 -0.0824
16920TIP3    H172175   4.710   0.522   4.568  0.5579 -0.8823  0.3638
16920TIP3    H272176   4.631   0.480   4.445 -0.9526  2.9070 -0.1065
16921TIP3   OH272177   1.434   4.796  13.424  0.1397  0.8433  0.3910
16921TIP3    H172178   1.345   4.779  13.457  0.3735  1.6881  1.4949
16921TIP3    H272179   1.471   4.708  13.412 -0.3425  0.4930  1.3331
16922TIP3   OH272180   4.817   3.536  15.667 -0.2854  0.3426 -0.6940
16922TIP3    H172181   4.889   3.567  15.723 -0.7188  0.1138 -0.0010
16922TIP3    H272182   4.853   3.459  15.622  0.8747  1.8843 -2.5834
16923TIP3   OH272183   6.329   4.131  12.380  0.1020 -0.0074 -0.0567
16923TIP3    H172184   6.319   4.064  12.312  0.0835  1.1311 -1.2239
16923TIP3    H272185   6.240   4.143  12.414 -0.7630  2.2567 -2.7169
16924TIP3   OH272186   6.741   0.194   2.164  0.4430  0.0909  0.5407
16924TIP3    H172187   6.704   0.237   2.241  0.1705 -0.9224  0.9901
16924TIP3    H272188   6.703   0.106   2.165 -0.3075  0.3437 -1.2795
16925TIP3   OH272189   1.830   4.813   4.428  0.2909 -0.2673  0.4167
16925TIP3    H172190   1.879   4.850   4.355  0.1197  0.4301  0.6493
16925TIP3    H272191   1.745   4.857   4.424 -0.0959 -0.9993  0.4012
16926TIP3   OH272192   6.723   4.089  16.340  0.3093 -0.0301  0.5668
16926TIP3    H172193   6.696   4.029  16.271  0.9725 -0.8164  0.9661
16926TIP3    H272194   6.819   4.090  16.335  0.3790 -0.2489  1.5796
16927TIP3   OH272195   3.331   5.453   2.221 -0.1901 -0.4210 -0.6991
16927TIP3    H172196   3.376   5.535   2.242  0.6087 -1.0064 -0.0360
16927TIP3    H272197   3.375   5.387   2.275  0.2036 -1.5459 -2.3074
16928TIP3   OH272198   4.652   0.937  14.840  0.5919  0.1227 -0.2153
16928TIP3    H172199   4.651   0.848  14.805 -0.8965  0.9743 -2.5564
16928TIP3    H272200   4.722   0.982  14.792  0.8010  0.4429  0.3706
16929TIP3   OH272201   6.222   1.150  14.406  0.1852 -0.8016 -0.0353
16929TIP3    H172202   6.154   1.212  14.432  0.0338 -1.1208  0.3377
16929TIP3    H272203   6.192   1.117  14.321  0.5269  0.0121 -0.4891
16930TIP3   OH272204   3.402   5.901   1.246 -0.3878  0.2087 -0.3210
16930TIP3    H172205   3.463   5.856   1.305  0.0282 -0.7186 -1.4150
16930TIP3    H272206   3.389   5.839   1.174  0.1921  1.8440 -1.8914
16931TIP3   OH272207   2.872   3.700  13.785 -0.3065  0.9216  0.4374
16931TIP3    H172208   2.962   3.733  13.795  0.7032 -1.4464  0.0126
16931TIP3    H272209   2.820   3.754  13.844  1.4094  2.3118  0.7861
16932TIP3   OH272210   5.885   3.627  12.203 -0.3247 -0.0066 -0.0677
16932TIP3    H172211   5.957   3.661  12.150  0.5627 -0.9165  0.5107
16932TIP3    H272212   5.808   3.633  12.145  0.1567  1.1426 -0.6354
16933TIP3   OH272213   4.335   5.376  10.942  1.0690  0.1757 -0.2370
16933TIP3    H172214   4.331   5.293  10.895 -1.7841 -0.1450  0.4150
16933TIP3    H272215   4.315   5.442  10.875  2.1454  0.2574 -0.4992
16934TIP3   OH272216   0.680   3.364  13.539 -1.2130  0.4589  0.4108
16934TIP3    H172217   0.707   3.455  13.533 -1.0140  0.5398  2.2191
16934TIP3    H272218   0.707   3.326  13.455 -0.1835  1.7555  0.1207
16935TIP3   OH272219   3.932   6.704   5.412 -0.1366  0.0910  0.0995
16935TIP3    H172220   3.892   6.788   5.391  0.8223  0.5496  0.0474
16935TIP3    H272221   3.941   6.660   5.328 -1.7305 -0.5899  0.2514
16936TIP3   OH272222   2.423   1.289   0.802  0.1280 -0.3863 -0.3863
16936TIP3    H172223   2.477   1.349   0.852  1.1243 -0.8550 -0.8704
16936TIP3    H272224   2.333   1.313   0.824  0.5312  0.1891  0.6851
16937TIP3   OH272225   6.295   5.864   1.108 -0.8359  0.2753 -0.0949
16937TIP3    H172226   6.253   5.929   1.052  1.3660  1.4672 -0.4881
16937TIP3    H272227   6.267   5.888   1.196 -1.2035  0.8689 -0.3601
16938TIP3   OH272228   1.697   2.995   4.406  0.4009  0.1338 -0.2443
16938TIP3    H172229   1.730   3.068   4.458 -0.3307 -0.4253  1.0600
16938TIP3    H272230   1.638   3.035   4.342  0.8252  0.7721 -0.2446
16939TIP3   OH272231   6.062   2.981   1.080 -0.2580 -0.1914  0.0612
16939TIP3    H172232   5.973   3.013   1.089 -0.7641 -1.9044  2.2176
16939TIP3    H272233   6.069   2.911   1.146  2.7602  0.0915  0.1921
16940TIP3   OH272234   0.399   2.665   4.787  0.5902  0.3196 -0.4338
16940TIP3    H172235   0.412   2.753   4.753  1.1174  0.4929  0.1814
16940TIP3    H272236   0.324   2.672   4.845  0.3454  0.2576 -0.7409
16941TIP3   OH272237   5.754   0.457   1.891  0.0758 -0.0388 -0.6887
16941TIP3    H172238   5.826   0.521   1.889 -0.3499  0.5283  0.7712
16941TIP3    H272239   5.679   0.506   1.857  0.2330 -0.4450 -1.6364
16942TIP3   OH272240   5.331   0.259  16.442  0.4784  0.4874 -0.4271
16942TIP3    H172241   5.276   0.212  16.380 -0.2455 -1.1832  1.3626
16942TIP3    H272242   5.349   0.343  16.401  0.4908 -0.7358 -3.0935
16943TIP3   OH272243   0.504   5.050  13.253  0.2658  0.1626  0.5450
16943TIP3    H172244   0.419   5.090  13.274 -0.2683 -1.3918  1.5146
16943TIP3    H272245   0.516   5.067  13.160  1.0751  4.3249  1.1644
16944TIP3   OH272246   4.384   1.970   5.307 -0.3275  0.0400 -0.2527
16944TIP3    H172247   4.459   1.911   5.300  0.0566  0.4981 -0.0091
16944TIP3    H272248   4.421   2.058   5.302 -0.5139  0.3640  2.4729
16945TIP3   OH272249   4.826   3.197   2.244  0.1911 -0.1139 -0.3498
16945TIP3    H172250   4.857   3.268   2.187 -0.5047  1.9037  1.6444
16945TIP3    H272251   4.833   3.232   2.332 -1.6290 -1.9875  0.6292
16946TIP3   OH272252   4.751   6.501  13.374 -1.1214  0.2738 -0.1842
16946TIP3    H172253   4.695   6.562  13.423  1.3433  2.1818  0.4755
16946TIP3    H272254   4.707   6.417  13.382 -3.1010  1.3624  1.5656
16947TIP3   OH272255   3.157   2.928  10.275 -0.8822 -0.4912  0.6172
16947TIP3    H172256   3.101   2.920  10.352 -0.5421 -2.1326  0.7324
16947TIP3    H272257   3.112   2.992  10.220 -2.1001 -0.6660  1.3648
16948TIP3   OH272258   3.808   3.834   3.108 -0.0509 -0.1742  0.0892
16948TIP3    H172259   3.855   3.917   3.115  0.4444 -0.4533  0.0866
16948TIP3    H272260   3.725   3.850   3.153  0.5275 -0.0388  1.1541
16949TIP3   OH272261   1.965   2.085   1.929 -0.0393  0.0020 -0.3692
16949TIP3    H172262   2.036   2.091   1.992 -0.7095  0.0769  0.4033
16949TIP3    H272263   1.917   2.168   1.939  0.0510  0.1735 -1.2352
16950TIP3   OH272264   4.843   0.494   1.441  0.1484 -0.1449  0.0912
16950TIP3    H172265   4.922   0.439   1.437 -0.9452 -2.0713  2.5025
16950TIP3    H272266   4.773   0.436   1.410 -0.8148  0.3864  1.2225
16951TIP3   OH272267   2.372   0.030   3.963  0.3554  0.2028  0.2010
16951TIP3    H172268   2.280   0.033   3.938  0.4136  1.0825  0.0625
16951TIP3    H272269   2.381   0.097   4.031  1.8124  3.6515 -3.0081
16952TIP3   OH272270   0.392   4.963   2.606 -1.3335 -0.2795  0.3427
16952TIP3    H172271   0.352   4.877   2.597 -0.5154 -0.6151 -0.1271
16952TIP3    H272272   0.389   5.001   2.518  2.1735 -1.5761 -0.4781
16953TIP3   OH272273   5.777   5.579  17.022 -0.4375 -0.3110  0.3835
16953TIP3    H172274   5.858   5.629  17.038 -0.1085 -0.9236  0.6823
16953TIP3    H272275   5.802   5.488  17.039 -1.4273 -0.4138  1.3601
16954TIP3   OH272276   6.131   2.083  10.553  0.0714  0.1575 -0.4103
16954TIP3    H172277   6.059   2.025  10.581  0.2399  0.3700  0.4942
16954TIP3    H272278   6.087   2.164  10.528 -0.3684 -0.8999 -3.4876
16955TIP3   OH272279   5.326   5.488  12.730  0.1365 -0.5123 -0.6105
16955TIP3    H172280   5.366   5.475  12.816  1.2115  0.6998 -0.9010
16955TIP3    H272281   5.270   5.565  12.741  0.4204 -0.2433 -1.0317
16956TIP3   OH272282   2.650   4.639   3.126 -0.8585 -0.3394  0.5311
16956TIP3    H172283   2.744   4.658   3.117 -0.4630 -1.0021  2.6994
16956TIP3    H272284   2.608   4.725   3.129 -0.3597 -0.0391 -0.5217
16957TIP3   OH272285   0.348   1.180   0.771  0.1304 -0.2748 -0.3514
16957TIP3    H172286   0.374   1.271   0.771  0.6507 -0.4237 -1.0224
16957TIP3    H272287   0.260   1.180   0.734  0.2222 -0.0767 -0.5645
16958TIP3   OH272288   5.346   5.967  13.213 -0.2424  0.5800  0.1975
16958TIP3    H172289   5.333   5.926  13.298  0.8174  0.1951  0.1950
16958TIP3    H272290   5.376   5.896  13.156 -0.0023  1.0246 -0.2425
16959TIP3   OH272291   4.401   6.744   6.144  0.0307  0.2159 -0.2312
16959TIP3    H172292   4.471   6.680   6.156  0.1912 -0.8052 -4.7828
16959TIP3    H272293   4.444   6.829   6.152  0.7207 -0.2349  1.4788
16960TIP3   OH272294   0.063   4.249   1.705  0.2826  0.1265  0.1788
16960TIP3    H172295   0.080   4.300   1.784  0.2623 -0.4211  0.5417
16960TIP3    H272296   0.081   4.158   1.731  0.9973  0.0214 -0.6509
16961TIP3   OH272297   4.701   2.942   1.860  0.5855 -0.2168 -0.4334
16961TIP3    H172298   4.743   2.859   1.881 -0.8300 -0.4409  1.7693
16961TIP3    H272299   4.635   2.919   1.794  1.8612 -0.3436 -1.7298
16962TIP3   OH272300   2.104   6.671   3.866 -0.4864 -0.5932 -0.5609
16962TIP3    H172301   2.183   6.618   3.867 -1.6329 -2.5646  2.8944
16962TIP3    H272302   2.045   6.627   3.804 -0.2632 -1.5070 -0.1413
16963TIP3   OH272303   4.618   6.553   6.099 -0.1829  0.8559 -0.3091
16963TIP3    H172304   4.586   6.468   6.066  0.2624  1.3720 -2.2231
16963TIP3    H272305   4.679   6.530   6.169  2.1366 -0.6613 -2.6268
16964TIP3   OH272306   6.443   2.651   5.871  0.2958  0.1988  0.4583
16964TIP3    H172307   6.427   2.649   5.966  0.8925  1.3658  0.6026
16964TIP3    H272308   6.513   2.587   5.858  0.8401  0.6743  0.9534
16965TIP3   OH272309   4.518   0.853   3.864 -0.1313  0.0774  0.5428
16965TIP3    H172310   4.547   0.769   3.830 -1.2629 -0.7784  1.6036
16965TIP3    H272311   4.563   0.862   3.948 -0.6365  0.1623  0.8047
16966TIP3   OH272312   0.266   6.598  15.769 -0.1030  0.0464  0.4969
16966TIP3    H172313   0.257   6.622  15.861 -0.8458 -2.1303  1.0559
16966TIP3    H272314   0.349   6.552  15.763 -0.3951 -0.4627  0.2445
16967TIP3   OH272315   2.043   1.633   1.381 -0.2475  0.1114 -0.2883
16967TIP3    H172316   2.130   1.649   1.419 -1.3656  4.1372  1.1267
16967TIP3    H272317   1.983   1.635   1.456 -1.7660 -0.8294 -1.4102
16968TIP3   OH272318   1.243   6.735   6.154 -0.0836 -0.0317  0.2156
16968TIP3    H172319   1.183   6.676   6.110  0.8746 -0.4161 -0.5977
16968TIP3    H272320   1.231   6.717   6.247 -0.2305 -1.0780 -0.0041
16969TIP3   OH272321   2.122   3.398   4.521  0.5359 -0.2147  0.0807
16969TIP3    H172322   2.027   3.396   4.531  0.4691 -1.8835 -0.6089
16969TIP3    H272323   2.140   3.336   4.451  1.9607  1.8333 -1.4791
16970TIP3   OH272324   5.548   6.517  11.827  0.1702 -0.5989  0.0643
16970TIP3    H172325   5.476   6.459  11.801  0.7439 -0.9719 -0.7445
16970TIP3    H272326   5.523   6.602  11.792 -0.1549 -0.5945  0.2988
16971TIP3   OH272327   4.295   4.156  14.320 -0.0741  0.0179 -0.4787
16971TIP3    H172328   4.356   4.107  14.374 -0.3855  1.0029  0.7979
16971TIP3    H272329   4.251   4.089  14.267  1.8008 -0.7375 -1.1622
16972TIP3   OH272330   1.060   2.637   1.646  0.1029  0.6451 -0.4262
16972TIP3    H172331   1.047   2.731   1.652  0.8149  0.7491 -0.4389
16972TIP3    H272332   0.972   2.600   1.650 -0.1289  1.2611  0.4345
16973TIP3   OH272333   0.931   3.473  16.256 -0.1329 -0.0741  0.4106
16973TIP3    H172334   0.927   3.392  16.205 -1.9283  0.2124  0.0065
16973TIP3    H272335   0.968   3.537  16.196  2.4150 -0.7796  1.0976
16974TIP3   OH272336   3.434   0.171  15.530  0.2973  0.2607  0.7307
16974TIP3    H172337   3.408   0.079  15.544 -0.8863  0.7749  2.2527
16974TIP3    H272338   3.529   0.168  15.521  0.3482 -1.0680  1.4011
16975TIP3   OH272339   5.535   3.004  14.827  0.3001  0.1997 -0.1876
16975TIP3    H172340   5.504   2.938  14.889  0.2518  1.8196  1.6246
16975TIP3    H272341   5.625   3.021  14.854  0.4613  0.5428 -0.9245
16976TIP3   OH272342   1.516   2.671  16.540  0.1916 -0.2607  0.0756
16976TIP3    H172343   1.511   2.620  16.621 -0.9282 -1.9861 -1.0038
16976TIP3    H272344   1.509   2.606  16.470 -0.1982  1.2872 -1.4089
16977TIP3   OH272345   3.874   0.209   5.079 -0.1590 -0.2422  0.6751
16977TIP3    H172346   3.960   0.218   5.120 -0.2058  1.4974  0.4254
16977TIP3    H272347   3.812   0.224   5.151 -0.4099 -4.2546  1.5522
16978TIP3   OH272348   5.437   6.327   1.851 -0.1984 -0.8476  0.0050
16978TIP3    H172349   5.460   6.235   1.839  1.4181 -0.4526 -0.1709
16978TIP3    H272350   5.439   6.364   1.763 -0.9804 -0.6505  0.0577
16979TIP3   OH272351   0.266   2.077   5.921  0.1937  0.1314  0.1874
16979TIP3    H172352   0.329   2.067   5.992 -0.1574 -1.9241  0.2914
16979TIP3    H272353   0.182   2.090   5.965  0.1559  0.0774  0.1322
16980TIP3   OH272354   4.339   5.822   4.479  0.3402 -0.3530 -0.0965
16980TIP3    H172355   4.329   5.854   4.569 -1.4393 -0.5844 -0.1743
16980TIP3    H272356   4.317   5.898   4.424 -1.0678 -0.8781 -0.2964
16981TIP3   OH272357   0.501   2.430  15.573 -0.4039 -0.4547  0.2468
16981TIP3    H172358   0.555   2.401  15.499 -1.2808 -1.9871  0.1630
16981TIP3    H272359   0.563   2.468  15.635  0.3763  0.6961 -1.1759
16982TIP3   OH272360   4.124   2.462  14.308 -0.5264 -0.3552 -0.6642
16982TIP3    H172361   4.204   2.410  14.312  1.4636  2.4621 -1.5026
16982TIP3    H272362   4.098   2.459  14.216  0.7879  1.7145 -1.1492
16983TIP3   OH272363   3.674   6.426  15.790  0.4404 -0.6560 -0.1763
16983TIP3    H172364   3.727   6.379  15.855 -0.5997 -1.3943  0.1554
16983TIP3    H272365   3.738   6.475  15.738  1.2620  0.8079  2.0618
16984TIP3   OH272366   0.481   3.224  10.528  0.3156  0.2166 -0.3835
16984TIP3    H172367   0.571   3.256  10.519  0.8141 -1.3567 -1.5442
16984TIP3    H272368   0.438   3.288  10.584  2.2717  0.7929  0.5574
16985TIP3   OH272369   6.400   2.770   1.874 -0.0900  0.1396 -0.0668
16985TIP3    H172370   6.353   2.791   1.794  1.8509 -0.2112 -1.3754
16985TIP3    H272371   6.337   2.722   1.928 -1.5178  0.6203 -1.2534
16986TIP3   OH272372   1.206   6.733   5.588 -0.1649 -0.3378 -0.0093
16986TIP3    H172373   1.192   6.817   5.632 -2.0810  0.3938 -1.8045
16986TIP3    H272374   1.126   6.684   5.605 -0.3068 -0.6125 -1.3338
16987TIP3   OH272375   0.128   3.483   1.067 -0.6157  0.7815 -0.2483
16987TIP3    H172376   0.129   3.396   1.028 -0.0621  1.2619 -1.3434
16987TIP3    H272377   0.203   3.528   1.029 -1.6643  2.1874 -0.7697
16988TIP3   OH272378   0.980   4.655   5.790 -0.7413  0.2529  0.0882
16988TIP3    H172379   1.063   4.689   5.822 -0.9513  0.4499  0.4299
16988TIP3    H272380   0.947   4.723   5.731 -2.1623  1.6594  2.3587
16989TIP3   OH272381   1.265   5.179   0.832 -0.5676  0.1735 -0.3649
16989TIP3    H172382   1.269   5.179   0.927 -2.4432  0.0699 -0.2512
16989TIP3    H272383   1.300   5.094   0.806 -1.3410 -0.3679  0.3238
16990TIP3   OH272384   6.246   2.758   2.445  0.2172 -0.1126  0.3215
16990TIP3    H172385   6.308   2.822   2.410 -0.5844  0.5980  0.1706
16990TIP3    H272386   6.160   2.799   2.433 -0.3064 -1.2017  0.2612
16991TIP3   OH272387   3.182   5.039   4.293 -0.4985 -0.0601 -0.6754
16991TIP3    H172388   3.168   4.944   4.302  1.2931 -0.4047 -0.9976
16991TIP3    H272389   3.098   5.078   4.315 -0.9952 -1.6777  0.5295
16992TIP3   OH272390   5.680   1.048   4.964 -0.1176 -0.0569 -0.7370
16992TIP3    H172391   5.611   1.018   5.022  0.5137  1.0721  0.6753
16992TIP3    H272392   5.745   1.089   5.022 -1.1498  4.5984 -2.3638
16993TIP3   OH272393   2.178   4.510   5.680 -0.1451 -0.0611  0.4103
16993TIP3    H172394   2.106   4.508   5.743 -0.0213  0.8939  0.5998
16993TIP3    H272395   2.237   4.440   5.709  0.1829  0.7190  1.7054
16994TIP3   OH272396   4.137   1.030  13.280 -0.5539  0.4504  0.2374
16994TIP3    H172397   4.174   0.959  13.226 -0.1111  1.8287 -1.3805
16994TIP3    H272398   4.075   1.074  13.221  1.0506  2.9354  0.2820
16995TIP3   OH272399   4.757   3.953  14.721  0.4807  0.2108 -0.4946
16995TIP3    H172400   4.811   3.904  14.660 -0.8161 -1.6656 -0.2257
16995TIP3    H272401   4.807   3.955  14.803 -0.0519 -2.0738 -0.0540
16996TIP3   OH272402   6.240   4.800   5.232  0.1116  0.1327  0.9296
16996TIP3    H172403   6.290   4.808   5.313  0.8389  1.4346  0.3731
16996TIP3    H272404   6.151   4.780   5.261  0.7020 -1.1745  1.9702
16997TIP3   OH272405   5.090   3.630  12.448  0.0753 -0.3049  0.1467
16997TIP3    H172406   4.998   3.655  12.440 -0.3428 -1.5836  0.6868
16997TIP3    H272407   5.088   3.542  12.487  1.5048 -0.5874 -0.3435
16998TIP3   OH272408   4.607   0.134   5.015  0.2894 -0.0892 -0.1216
16998TIP3    H172409   4.693   0.137   5.057 -0.3951  2.8151  1.3031
16998TIP3    H272410   4.626   0.122   4.921  2.2785  1.0652  0.0906
16999TIP3   OH272411   1.600   3.599  12.970  0.3250  0.2527  0.2044
16999TIP3    H172412   1.657   3.572  13.042  0.0082 -2.2211 -0.3882
16999TIP3    H272413   1.657   3.650  12.912  1.7952 -1.5514 -0.0216
17000TIP3   OH272414   3.509   0.437  11.410  0.0666  0.1995  0.1575
17000TIP3    H172415   3.480   0.356  11.368 -0.9190  0.4752  0.2763
17000TIP3    H272416   3.549   0.488  11.339  0.3538 -0.2290  0.0082
17001TIP3   OH272417   3.269   1.311  17.347 -0.0724 -0.0583  0.1530
17001TIP3    H172418   3.258   1.343  17.436 -0.7455  1.4096 -0.4169
17001TIP3    H272419   3.187   1.268  17.326  0.1833 -0.6402  0.3134
17002TIP3   OH272420   4.549   2.424  14.139  0.2044  0.2507 -0.2936
17002TIP3    H172421   4.622   2.410  14.079  0.9237 -0.8493  0.7910
17002TIP3    H272422   4.491   2.350  14.125  1.0091 -0.7159  1.2118
17003TIP3   OH272423   0.791   2.800  16.009  0.0433 -0.2068  0.2154
17003TIP3    H172424   0.730   2.794  16.083 -1.5370 -3.6358 -1.1095
17003TIP3    H272425   0.736   2.825  15.935  0.7331 -0.8651 -0.5402
17004TIP3   OH272426   6.082   0.894  12.227 -0.2970  0.5688  0.2275
17004TIP3    H172427   6.003   0.945  12.248  0.2976  1.7279 -0.2461
17004TIP3    H272428   6.151   0.933  12.281 -0.0225 -0.3988  0.5952
17005TIP3   OH272429   1.766   5.019  13.772  0.4843 -0.2122  0.6524
17005TIP3    H172430   1.708   5.055  13.704  0.3609  0.1052  0.9286
17005TIP3    H272431   1.842   5.077  13.772  0.0302  0.3959  1.4976
17006TIP3   OH272432   4.368   2.976   9.886  0.4317  0.8568 -0.5433
17006TIP3    H172433   4.452   3.017   9.906  0.2891  0.3141  1.4742
17006TIP3    H272434   4.311   3.049   9.863  1.2644  1.3059 -1.2609
17007TIP3   OH272435   1.543   3.268  11.364 -0.2287 -0.1269  0.3829
17007TIP3    H172436   1.554   3.213  11.442  0.1571 -1.0396 -0.2925
17007TIP3    H272437   1.508   3.350  11.397  0.0365 -0.4609  1.5301
17008TIP3   OH272438   3.187   3.379  13.505  0.5461  0.2391 -0.0847
17008TIP3    H172439   3.132   3.443  13.459  1.3053  1.0168  0.0602
17008TIP3    H272440   3.170   3.396  13.598  1.0676  0.5400 -0.0365
17009TIP3   OH272441   5.561   1.139  16.954 -0.1639  0.0717 -0.2520
17009TIP3    H172442   5.635   1.199  16.964 -0.1369  0.0119 -0.0832
17009TIP3    H272443   5.599   1.052  16.965 -0.6330  0.1105  2.3277
17010TIP3   OH272444   1.093   6.422   0.430 -0.1208  0.4460 -0.3364
17010TIP3    H172445   1.162   6.466   0.379  0.7751 -1.3858 -0.7890
17010TIP3    H272446   1.016   6.426   0.374  0.5577 -0.5383 -1.3897
17011TIP3   OH272447   1.202   2.840  16.003  0.4131 -0.3986 -0.5866
17011TIP3    H172448   1.294   2.861  15.988  0.3421  0.7190  0.4083
17011TIP3    H272449   1.157   2.924  15.995  0.0576 -0.0837  3.0041
17012TIP3   OH272450   1.411   1.965  13.744 -0.1625 -0.1076 -0.5983
17012TIP3    H172451   1.414   1.936  13.835  0.8629  0.8991 -0.2960
17012TIP3    H272452   1.495   2.008  13.729 -1.7285  3.1089 -0.8817
17013TIP3   OH272453   5.259   6.237  15.784 -0.3829 -0.1957 -0.0298
17013TIP3    H172454   5.279   6.304  15.718  0.6096 -0.8338 -0.4005
17013TIP3    H272455   5.182   6.270  15.829 -1.4430  0.0112 -1.8938
17014TIP3   OH272456   0.822   1.466   3.812 -0.4755 -0.3018 -0.1057
17014TIP3    H172457   0.795   1.474   3.903  0.9216 -0.6285  0.3697
17014TIP3    H272458   0.844   1.373   3.802  0.5531 -0.0448 -0.4006
17015TIP3   OH272459   5.030   6.514  16.686  0.9707 -0.1426  0.5576
17015TIP3    H172460   5.122   6.535  16.669  0.7577  0.3530 -0.0455
17015TIP3    H272461   4.981   6.587  16.647  0.3394 -0.1209  1.3545
17016TIP3   OH272462   5.163   0.245   4.239 -0.2086  0.5245  0.5584
17016TIP3    H172463   5.129   0.156   4.248  0.5023  0.3090  1.2482
17016TIP3    H272464   5.215   0.258   4.318  3.3421 -0.0631 -1.4703
17017TIP3   OH272465   2.124   5.438  17.061 -0.5045 -0.1516  0.1579
17017TIP3    H172466   2.139   5.519  17.109  0.8023 -0.7275  0.7616
17017TIP3    H272467   2.030   5.438  17.043 -0.7271  0.9057  1.2030
17018TIP3   OH272468   0.222   0.461  17.163  0.3302  0.4017  0.2363
17018TIP3    H172469   0.316   0.457  17.145  0.0954  0.4079 -1.0749
17018TIP3    H272470   0.188   0.525  17.101 -0.4589  0.8289  1.0927
17019TIP3   OH272471   3.115   1.696   0.474 -0.0816  0.0894  0.1525
17019TIP3    H172472   3.100   1.788   0.452  1.6031  0.6638  1.2062
17019TIP3    H272473   3.168   1.699   0.553  1.5162 -1.7550 -0.7548
17020TIP3   OH272474   5.474   4.145  13.782  0.5415  0.1142 -0.2516
17020TIP3    H172475   5.494   4.235  13.755 -0.4958  0.4697  0.1067
17020TIP3    H272476   5.552   4.117  13.829  0.3917  1.3220  0.7859
17021TIP3   OH272477   2.644   0.363  11.484  0.0919 -0.4896 -0.1166
17021TIP3    H172478   2.610   0.379  11.572 -2.9961  0.3622 -1.3246
17021TIP3    H272479   2.637   0.448  11.440  0.1493 -1.2194 -1.5975
17022TIP3   OH272480   2.299   2.996  11.272 -0.2641  0.0453 -0.0335
17022TIP3    H172481   2.210   3.006  11.307  0.1274 -0.7969  1.3058
17022TIP3    H272482   2.316   3.078  11.224 -1.4352  0.5896  0.4471
17023TIP3   OH272483   4.644   0.579   3.489  0.3063 -0.1097  0.4085
17023TIP3    H172484   4.563   0.531   3.473  0.9102 -0.5154 -1.6674
17023TIP3    H272485   4.708   0.512   3.510  0.6241 -0.0279 -0.2645
17024TIP3   OH272486   0.430   3.710   0.291  0.2051  0.0696 -0.3853
17024TIP3    H172487   0.365   3.776   0.266  0.2839 -0.2227 -1.4410
17024TIP3    H272488   0.511   3.759   0.303 -0.2619  0.4779  1.2440
17025TIP3   OH272489   4.249   1.534  16.022  0.9916  0.4052 -0.5095
17025TIP3    H172490   4.241   1.623  15.990  0.5022  0.5242 -0.0692
17025TIP3    H272491   4.342   1.522  16.039  1.2565  0.3387 -1.9487
17026TIP3   OH272492   5.854   2.291  15.495  0.9604  0.0997 -0.0171
17026TIP3    H172493   5.812   2.207  15.510 -1.7373  1.5326  1.1926
17026TIP3    H272494   5.841   2.340  15.576  2.5689  1.6736 -0.6225
17027TIP3   OH272495   3.206   0.834  11.471  0.1924 -0.0053  0.0250
17027TIP3    H172496   3.182   0.896  11.402  0.2638  1.3722  1.1885
17027TIP3    H272497   3.258   0.886  11.532  2.8046 -1.9006 -0.3782
17028TIP3   OH272498   6.054   4.301  13.403  0.3242 -0.0749 -0.3594
17028TIP3    H172499   6.034   4.314  13.496 -0.6969  0.9277 -0.6907
17028TIP3    H272500   6.144   4.333  13.393  0.8331 -1.1930  0.4728
17029TIP3   OH272501   5.677   5.405   2.831  0.7881 -0.0042 -0.3883
17029TIP3    H172502   5.692   5.466   2.758 -1.1288  1.5151  0.3982
17029TIP3    H272503   5.755   5.415   2.886 -0.0686  2.9876  0.4974
17030TIP3   OH272504   0.023   5.313   0.895 -0.4311 -0.7088 -0.3249
17030TIP3    H172505  -0.016   5.263   0.968 -0.3363 -0.5706 -0.1795
17030TIP3    H272506  -0.043   5.380   0.874 -0.9875 -1.4850 -1.1577
17031TIP3   OH272507   2.158   2.996  16.357  0.2878  0.2943  0.1570
17031TIP3    H172508   2.204   3.032  16.433  0.2088 -0.3066  0.4959
17031TIP3    H272509   2.224   2.942  16.313 -0.1771 -0.9111  0.8767
17032TIP3   OH272510   6.229   2.747   0.618 -0.4260  0.3560  0.5597
17032TIP3    H172511   6.207   2.828   0.665  0.2434 -0.1335  1.7761
17032TIP3    H272512   6.146   2.701   0.610 -0.5330  0.3436  1.5328
17033TIP3   OH272513   5.836   3.786  15.091  0.2896 -0.3210  0.1533
17033TIP3    H172514   5.863   3.771  15.182 -1.3799  1.3819  1.0047
17033TIP3    H272515   5.748   3.748  15.086 -1.0197  2.4817  0.2950
17034TIP3   OH272516   6.670   4.967  17.254 -0.5466  0.0406  0.5232
17034TIP3    H172517   6.722   5.040  17.222 -0.9212 -0.8674 -2.3926
17034TIP3    H272518   6.735   4.902  17.283 -0.1897  0.7740  1.4123
17035TIP3   OH272519   2.703   4.538  12.378  0.2603 -0.2620  0.1800
17035TIP3    H172520   2.726   4.450  12.348 -0.6063 -0.9724  1.5080
17035TIP3    H272521   2.685   4.528  12.472 -0.9256  1.1159  0.1348
17036TIP3   OH272522   0.958   0.719  10.788  0.2028 -0.8596  0.0521
17036TIP3    H172523   0.908   0.801  10.788  1.9953  0.3032  0.1651
17036TIP3    H272524   0.895   0.652  10.764 -1.5473  0.4202  0.8740
17037TIP3   OH272525   6.690   6.237  13.533  0.0835  0.2255 -0.6321
17037TIP3    H172526   6.637   6.174  13.485  0.4896  0.5615 -1.5477
17037TIP3    H272527   6.693   6.314  13.476 -0.7861  1.2533  0.6665
17038TIP3   OH272528   4.445   5.972  14.872 -0.4626  0.3531  0.0477
17038TIP3    H172529   4.491   5.994  14.953 -0.6440 -1.3538  0.6373
17038TIP3    H272530   4.481   6.034  14.808  1.9242 -0.2095  0.7163
17039TIP3   OH272531   5.550   5.372  12.188 -0.8505  0.2750  0.1385
17039TIP3    H172532   5.627   5.416  12.151 -0.8527  0.3462  0.2181
17039TIP3    H272533   5.526   5.307  12.122 -0.1731 -0.3627  0.5147
17040TIP3   OH272534   3.941   5.165   1.479 -0.2423  0.2649 -0.1983
17040TIP3    H172535   3.972   5.116   1.555  0.4696  1.2143  0.1506
17040TIP3    H272536   4.013   5.225   1.458 -0.7466  0.5732 -1.1290
17041TIP3   OH272537   3.264   0.868  10.803  0.2746  0.4681 -0.0717
17041TIP3    H172538   3.295   0.892  10.716  1.4821  1.9918  0.7310
17041TIP3    H272539   3.305   0.932  10.862  0.3613 -1.1759  1.7552
17042TIP3   OH272540   0.506   4.022   5.377 -0.3635 -0.5460  0.3671
17042TIP3    H172541   0.519   3.951   5.314 -0.0446  0.0280 -0.2262
17042TIP3    H272542   0.454   3.982   5.447  0.3509 -1.5346  0.3551
17043TIP3   OH272543   0.582   5.753  13.095  0.1340 -0.5222 -0.0752
17043TIP3    H172544   0.496   5.730  13.059 -0.4504  1.3369  0.0258
17043TIP3    H272545   0.643   5.734  13.024 -0.6428  0.2162 -0.9716
17044TIP3   OH272546   5.947   4.743   5.363  0.0222 -0.0785  0.3731
17044TIP3    H172547   5.913   4.665   5.320 -1.3342  1.4390 -1.5045
17044TIP3    H272548   5.919   4.815   5.307 -0.1314  1.8994  2.8134
17045TIP3   OH272549   3.773   2.427  13.960  0.3462 -0.3377 -0.2136
17045TIP3    H172550   3.799   2.493  13.897 -0.3197  2.2203  1.9990
17045TIP3    H272551   3.852   2.410  14.011 -0.2063  1.4022  1.3566
17046TIP3   OH272552   6.461   5.880   6.239 -0.5150 -0.4486  0.3531
17046TIP3    H172553   6.516   5.844   6.309  0.5833  1.2323  0.4236
17046TIP3    H272554   6.380   5.905   6.283 -0.4108 -0.7680  0.7304
17047TIP3   OH272555   1.417   3.421   3.026  0.2123 -0.2624 -0.0724
17047TIP3    H172556   1.322   3.421   3.037 -0.0280  0.7091 -1.7203
17047TIP3    H272557   1.429   3.419   2.931  1.7399  3.2575 -0.1117
17048TIP3   OH272558   3.591   4.316   4.662 -0.4255  0.2646  0.1985
17048TIP3    H172559   3.552   4.230   4.649 -0.5251  0.0608  1.7085
17048TIP3    H272560   3.531   4.361   4.721 -1.0127  1.8451 -1.4919
17049TIP3   OH272561   6.480   5.756   0.029 -0.2863 -0.3705 -0.1319
17049TIP3    H172562   6.457   5.711   0.111 -0.4466  2.0343  1.2552
17049TIP3    H272563   6.421   5.719  -0.036 -1.9115 -0.6369  1.4040
17050TIP3   OH272564   3.827   5.039  14.735 -0.2338 -0.1215  0.2377
17050TIP3    H172565   3.897   4.995  14.687 -0.6717 -0.1141 -0.4262
17050TIP3    H272566   3.860   5.127  14.750  0.5265 -0.5672  1.3070
17051TIP3   OH272567   1.554   5.845   2.709 -0.5121 -0.2220 -0.4147
17051TIP3    H172568   1.590   5.928   2.676 -0.2510  0.3768  1.3116
17051TIP3    H272569   1.488   5.871   2.773 -0.8631 -1.3519 -0.2905
17052TIP3   OH272570   0.929   5.134  14.323 -0.4493 -0.0763  0.0261
17052TIP3    H172571   0.964   5.142  14.234 -0.0185  0.4686  0.2387
17052TIP3    H272572   0.834   5.139  14.312 -0.3633  1.0533 -0.3136
17053TIP3   OH272573   6.662   0.720   2.406 -0.4038 -0.0926  0.0335
17053TIP3    H172574   6.621   0.755   2.486  0.2922  1.1640 -0.1435
17053TIP3    H272575   6.752   0.751   2.410  0.3976 -2.2700  0.0790
17054TIP3   OH272576   3.037   4.163   1.818  0.0273 -0.1460  0.6469
17054TIP3    H172577   3.002   4.231   1.877 -1.0171  0.8194 -1.0169
17054TIP3    H272578   2.978   4.163   1.743  2.7338  0.5298 -1.6676
17055TIP3   OH272579   6.268   5.721   4.827  0.5238  0.3171 -0.0963
17055TIP3    H172580   6.178   5.720   4.795 -0.3072  0.5431  2.0422
17055TIP3    H272581   6.269   5.657   4.898  2.2342 -0.1308 -0.4811
17056TIP3   OH272582   0.494   3.717  13.048 -0.2457 -0.2306 -0.8180
17056TIP3    H172583   0.419   3.733  13.106 -0.5576  0.1188 -1.3121
17056TIP3    H272584   0.542   3.800  13.049 -0.2243 -0.2406 -1.0170
17057TIP3   OH272585   1.715   0.761   4.522 -0.0905  0.0953  0.0594
17057TIP3    H172586   1.729   0.802   4.607  0.3724  1.4632 -0.6520
17057TIP3    H272587   1.642   0.701   4.536 -1.5960  2.0138  0.8754
17058TIP3   OH272588   0.778   2.226   2.034  0.5854  0.2722 -0.3096
17058TIP3    H172589   0.744   2.181   2.111  2.7041  0.0152  0.5434
17058TIP3    H272590   0.728   2.190   1.961  0.6441 -1.8238  0.6011
17059TIP3   OH272591   0.045   5.303  14.575  0.4732 -0.1481 -0.0060
17059TIP3    H172592   0.001   5.228  14.614 -0.0491  0.1800  0.0449
17059TIP3    H272593   0.129   5.268  14.543  0.5838 -0.5752  0.7307
17060TIP3   OH272594   5.000   0.207  13.484  0.3125  0.2339  0.1667
17060TIP3    H172595   5.047   0.128  13.459  0.6118  0.6443 -0.6120
17060TIP3    H272596   5.016   0.216  13.578  0.8436 -0.2498  0.1255
17061TIP3   OH272597   5.009   4.009  14.273  0.0452  0.1750 -0.4085
17061TIP3    H172598   4.934   3.967  14.229 -0.3002  0.5936 -0.2254
17061TIP3    H272599   5.059   3.936  14.309 -1.5096 -0.0375  1.4577
17062TIP3   OH272600   5.384   3.727   1.753 -0.3783  0.8355 -0.2982
17062TIP3    H172601   5.338   3.808   1.778  2.9959  2.5946  0.8184
17062TIP3    H272602   5.360   3.664   1.822 -0.8781  1.7707  0.4149
17063TIP3   OH272603   4.273   3.071   3.728  0.8066 -0.4578 -0.2552
17063TIP3    H172604   4.277   3.059   3.823  0.9973  0.8286 -0.0742
17063TIP3    H272605   4.224   3.153   3.717 -0.2927 -1.2346 -1.3211
17064TIP3   OH272606   0.473   5.603  15.021 -0.3868  0.2510 -0.1620
17064TIP3    H172607   0.523   5.685  15.013  0.2220  0.0449  1.3154
17064TIP3    H272608   0.539   5.534  15.019 -0.7502 -0.1168  0.2740
17065TIP3   OH272609   1.620   1.571   0.805  0.3778  0.2988  0.1361
17065TIP3    H172610   1.524   1.574   0.798  0.4448  0.8034 -0.6864
17065TIP3    H272611   1.648   1.661   0.789  1.0408 -0.0254 -0.5894
17066TIP3   OH272612   4.257   2.610   4.126 -0.7350 -0.3422  0.3439
17066TIP3    H172613   4.168   2.576   4.121 -1.0288  0.5066 -0.6149
17066TIP3    H272614   4.255   2.672   4.198 -0.8026 -0.6321  0.5945
17067TIP3   OH272615   1.823   5.811   3.840 -0.9145  0.4052 -0.0652
17067TIP3    H172616   1.757   5.857   3.789  0.5460  3.1056  0.3078
17067TIP3    H272617   1.866   5.880   3.891  0.6879 -1.5594  1.3976
17068TIP3   OH272618   0.402   4.108   0.260  0.3778 -0.2041  0.0577
17068TIP3    H172619   0.330   4.058   0.222 -1.5093  1.1898  1.5661
17068TIP3    H272620   0.399   4.193   0.215  0.1727  0.3326  1.0373
17069TIP3   OH272621   1.400   0.688  12.322  0.7140  0.1050 -0.3368
17069TIP3    H172622   1.488   0.719  12.301  0.9003 -0.9032 -1.1565
17069TIP3    H272623   1.361   0.667  12.237  0.1732 -0.7256  0.0962
17070TIP3   OH272624   6.605   0.426  12.173  0.0805 -0.1356 -0.1737
17070TIP3    H172625   6.692   0.445  12.209 -0.2219  1.1376 -0.0601
17070TIP3    H272626   6.545   0.439  12.246 -0.2267 -0.9631 -0.2626
17071TIP3   OH272627   1.525   5.917   6.066  0.2872 -0.2736 -0.0738
17071TIP3    H172628   1.475   5.939   5.987 -0.1414 -1.5530 -0.1800
17071TIP3    H272629   1.459   5.905   6.134  0.3900 -2.0778 -0.2406
17072TIP3   OH272630   6.289   2.937  11.483 -0.0936 -0.3846 -0.2060
17072TIP3    H172631   6.316   2.886  11.407 -1.8572 -1.4845 -0.1408
17072TIP3    H272632   6.198   2.912  11.498  0.0121  0.2947  1.8883
17073TIP3   OH272633   6.744   2.727  12.593 -0.3404 -0.1008 -0.2992
17073TIP3    H172634   6.739   2.668  12.518 -0.1311 -0.2013 -0.2340
17073TIP3    H272635   6.785   2.674  12.662 -1.7005 -0.4450  0.2970
17074TIP3   OH272636   4.720   6.523   4.658 -0.0815  0.5772 -0.1184
17074TIP3    H172637   4.779   6.548   4.587  1.3572 -0.7316  0.5377
17074TIP3    H272638   4.765   6.450   4.701 -1.3373  0.7367  1.5642
17075TIP3   OH272639   5.911   3.948   4.744  0.0023 -0.1257 -0.2043
17075TIP3    H172640   5.893   3.935   4.837 -1.2406 -0.5249 -0.4849
17075TIP3    H272641   5.838   3.906   4.699 -1.1169  2.7286 -1.3070
17076TIP3   OH272642   3.637   5.359   4.397  0.1466  0.0218 -0.2430
17076TIP3    H172643   3.656   5.430   4.334 -0.1108  1.3385  1.1024
17076TIP3    H272644   3.687   5.383   4.475 -0.9346 -0.6038  0.6687
17077TIP3   OH272645   3.679   1.244  15.412 -0.7799 -0.3333  0.7719
17077TIP3    H172646   3.671   1.335  15.443 -2.6500 -0.4117  0.6719
17077TIP3    H272647   3.725   1.199  15.483  2.9993  1.2196 -0.4454
17078TIP3   OH272648   1.218   0.690  11.689 -0.1838 -0.0350  0.1959
17078TIP3    H172649   1.194   0.750  11.760  0.1449 -1.2270  1.3679
17078TIP3    H272650   1.235   0.746  11.614 -0.0106  1.3218  1.2144
17079TIP3   OH272651   2.785   5.282   5.455  0.2564  1.3673  0.2047
17079TIP3    H172652   2.691   5.281   5.471  0.1068  1.8245 -0.5706
17079TIP3    H272653   2.793   5.263   5.361  0.9551  1.0057  0.3319
17080TIP3   OH272654   6.046   5.049  12.291 -0.0642 -0.2623  0.2869
17080TIP3    H172655   5.958   5.018  12.312  0.4161 -1.8754  0.0668
17080TIP3    H272656   6.055   5.034  12.197 -0.4859  2.4495 -0.2748
17081TIP3   OH272657   1.913   1.880   0.375  0.2113 -0.1441 -0.2632
17081TIP3    H172658   1.900   1.973   0.358  2.2175  0.0895 -0.7423
17081TIP3    H272659   2.008   1.870   0.383 -0.0165 -2.0073  0.6531
17082TIP3   OH272660   3.468   2.217   6.113 -0.1325 -0.0754 -0.0520
17082TIP3    H172661   3.400   2.276   6.145 -1.1305 -0.7709 -0.8062
17082TIP3    H272662   3.505   2.178   6.193 -0.3089  0.6483  0.3912
17083TIP3   OH272663   6.126   0.003  13.984 -0.0632 -0.1635  0.3257
17083TIP3    H172664   6.162  -0.078  13.947 -0.0980 -0.7539  1.5186
17083TIP3    H272665   6.184   0.072  13.952  0.8171 -0.8348  0.4289
17084TIP3   OH272666   1.940   5.208   4.746 -0.2089  0.1712 -0.2924
17084TIP3    H172667   2.026   5.233   4.779 -0.7634 -1.8931  3.1368
17084TIP3    H272668   1.947   5.114   4.729 -1.3827  0.2681 -1.4728
17085TIP3   OH272669   1.822   3.631  13.380  0.0470 -0.0474 -0.3741
17085TIP3    H172670   1.875   3.688  13.436 -0.1452 -0.0357 -0.2011
17085TIP3    H272671   1.804   3.554  13.434  0.5420 -0.4017 -0.7080
17086TIP3   OH272672   3.161   3.515  13.898 -0.6315  0.0743  0.9268
17086TIP3    H172673   3.131   3.440  13.846  0.4880  1.0856 -1.3088
17086TIP3    H272674   3.083   3.545  13.944 -1.4576 -1.4547  0.6014
17087TIP3   OH272675   2.632   5.937  15.824 -0.2989 -0.1549 -0.5190
17087TIP3    H172676   2.564   5.912  15.761 -0.3543 -1.9439  0.2104
17087TIP3    H272677   2.584   5.965  15.902 -0.2431 -1.8796  0.1712
17088TIP3   OH272678   3.178   4.517  12.923  0.3629 -0.0852  0.5592
17088TIP3    H172679   3.234   4.535  12.848 -0.0317  1.7110  0.6417
17088TIP3    H272680   3.236   4.520  12.999  0.3033  1.0520  0.5772
17089TIP3   OH272681   5.258   4.240  13.378  0.3994 -0.0239  0.3473
17089TIP3    H172682   5.301   4.323  13.398 -1.4285  1.4490 -1.3983
17089TIP3    H272683   5.247   4.197  13.463 -0.0076  2.2488  1.5061
17090TIP3   OH272684   4.252   1.980  16.743 -0.1573  0.1515 -0.2918
17090TIP3    H172685   4.168   1.981  16.698 -0.0418  1.9709 -0.5445
17090TIP3    H272686   4.252   2.059  16.798  1.4013  0.2665 -0.3866
17091TIP3   OH272687   4.703   5.223  11.540 -0.6757 -0.1240  1.0229
17091TIP3    H172688   4.778   5.278  11.562  0.0925 -0.8389  0.2291
17091TIP3    H272689   4.702   5.156  11.609 -1.0799  0.3534  1.4887
17092TIP3   OH272690   6.101   0.644  14.498  0.2175 -0.2863 -0.2206
17092TIP3    H172691   6.101   0.735  14.529 -0.0601  0.2463 -1.7125
17092TIP3    H272692   6.016   0.610  14.525 -0.4140  0.4664 -1.2136
17093TIP3   OH272693   5.972   6.357   0.552  0.0618 -0.0584 -0.2724
17093TIP3    H172694   5.979   6.347   0.646 -1.2511 -0.9924 -0.2439
17093TIP3    H272695   6.019   6.438   0.532  4.0100 -1.9197  0.6189
17094TIP3   OH272696   5.390   0.882   0.621  0.4177 -0.0020  0.3123
17094TIP3    H172697   5.295   0.874   0.631  0.2771 -1.7477 -1.6079
17094TIP3    H272698   5.411   0.819   0.552  2.6452  2.0103 -0.9702
17095TIP3   OH272699   0.388   4.756   4.149 -0.2560 -0.4900 -0.5528
17095TIP3    H172700   0.306   4.723   4.186 -1.2597  1.6487 -0.7313
17095TIP3    H272701   0.375   4.752   4.054 -0.6212  0.9071 -0.5712
17096TIP3   OH272702   1.948   2.219   1.015 -0.5896 -0.3037  0.2564
17096TIP3    H172703   1.908   2.289   0.964  1.1279 -0.1785 -1.0289
17096TIP3    H272704   1.908   2.139   0.982 -0.9347 -0.0827  0.1327
17097TIP3   OH272705   6.692   1.096   1.063 -0.8126 -0.2191  0.0749
17097TIP3    H172706   6.618   1.050   1.023 -0.3819 -0.2032 -0.7687
17097TIP3    H272707   6.768   1.040   1.043 -0.6567 -0.5068  1.3769
17098TIP3   OH272708   5.767   4.502  10.328 -0.3443 -0.1551  0.5697
17098TIP3    H172709   5.674   4.479  10.324 -0.6165  1.0359 -0.4270
17098TIP3    H272710   5.769   4.597  10.318  1.1085 -0.3982 -2.4810
17099TIP3   OH272711   6.501   2.920  12.850  0.2581 -0.2761  0.1234
17099TIP3    H172712   6.459   2.879  12.774 -1.7523 -3.6557  2.7666
17099TIP3    H272713   6.445   2.994  12.871 -0.2172 -0.4230 -0.5850
17100TIP3   OH272714   3.080   4.120  16.556  0.3698  0.0383  0.0010
17100TIP3    H172715   3.106   4.096  16.645 -1.9553  0.9926  1.0152
17100TIP3    H272716   3.034   4.204  16.567 -3.4821 -1.6839 -1.4648
17101TIP3   OH272717   4.471   4.975   2.905 -0.2046 -0.2035  0.0942
17101TIP3    H172718   4.563   4.947   2.899 -0.0803  0.3116 -0.4142
17101TIP3    H272719   4.475   5.064   2.939 -0.4739  0.1112 -0.6888
17102TIP3   OH272720   4.664   3.506  12.451 -0.0619  0.1492  0.6375
17102TIP3    H172721   4.625   3.526  12.366 -0.4002 -1.3080  0.4269
17102TIP3    H272722   4.627   3.421  12.475  1.3140 -0.2510  1.4486
17103TIP3   OH272723   5.635   3.073  11.511  0.4308 -0.4585  0.5854
17103TIP3    H172724   5.686   3.072  11.592 -0.2634 -0.1519  1.0280
17103TIP3    H272725   5.627   3.166  11.488 -0.1197 -0.4875  0.6445
17104TIP3   OH272726   3.540   0.235  13.781  0.3636  0.1621 -0.1764
17104TIP3    H172727   3.474   0.172  13.810 -0.6047  1.6737  1.0752
17104TIP3    H272728   3.593   0.252  13.860  1.0315  0.4128 -0.6685
17105TIP3   OH272729   5.871   5.003   2.437  0.7465  0.3416 -0.2690
17105TIP3    H172730   5.953   4.979   2.394  1.8001  3.6665 -0.3720
17105TIP3    H272731   5.824   5.055   2.371 -0.4582  0.2946  0.5241
17106TIP3   OH272732   1.577   0.611  10.315 -0.7484  0.5593  0.2795
17106TIP3    H172733   1.484   0.601  10.297 -1.0619 -0.5329  2.2335
17106TIP3    H272734   1.621   0.565  10.243 -1.6282  2.0032 -1.2421
17107TIP3   OH272735   0.675   2.168  15.695 -0.6942  0.2397 -0.4194
17107TIP3    H172736   0.695   2.214  15.614 -1.0861  0.1607 -0.5643
17107TIP3    H272737   0.671   2.075  15.669  0.0183  0.1273 -0.1450
17108TIP3   OH272738   1.111   4.289  17.078  0.3015  0.2676  0.0875
17108TIP3    H172739   1.048   4.222  17.104  0.3767  0.0392 -0.3187
17108TIP3    H272740   1.160   4.307  17.158  2.0396 -2.0401 -0.3400
17109TIP3   OH272741   1.753   5.068  11.048 -0.4871 -0.1245  0.8698
17109TIP3    H172742   1.720   5.149  11.086 -1.1034  0.4902 -0.8587
17109TIP3    H272743   1.824   5.096  10.990  0.2823 -1.0027  1.3442
17110TIP3   OH272744   2.456   6.100   4.650 -0.0798  0.1015  0.9142
17110TIP3    H172745   2.541   6.094   4.695  0.0138  2.0542  1.0924
17110TIP3    H272746   2.431   6.009   4.634  2.3604 -0.5341  0.2702
17111TIP3   OH272747   6.120   0.971   2.909 -0.3790 -0.0295 -0.6605
17111TIP3    H172748   6.132   0.930   2.995  1.6672  0.7119 -0.5428
17111TIP3    H272749   6.079   1.055   2.928 -0.7534 -0.2466 -0.5002
17112TIP3   OH272750   5.338   1.383   1.628  0.1628  0.2603  0.1236
17112TIP3    H172751   5.254   1.390   1.672  0.6927  1.1527  1.0432
17112TIP3    H272752   5.368   1.294   1.648  1.1228  1.1237  3.0331
17113TIP3   OH272753   2.518   2.634  14.592 -0.2835 -0.4354  0.2623
17113TIP3    H172754   2.537   2.584  14.512 -0.6299 -1.6167  0.8832
17113TIP3    H272755   2.599   2.629  14.642 -1.0182 -2.4910  1.3759
17114TIP3   OH272756   6.230   5.545  12.336  0.2853  0.4230  0.0965
17114TIP3    H172757   6.213   5.499  12.418 -1.9436  0.2200 -0.4161
17114TIP3    H272758   6.291   5.488  12.289  0.3722 -0.2270  0.9792
17115TIP3   OH272759   3.968   6.073   5.368 -0.0024 -0.3689  0.2350
17115TIP3    H172760   3.895   6.108   5.318 -1.2228 -0.2605  1.9751
17115TIP3    H272761   4.017   6.150   5.397 -0.5261 -0.2957  0.9490
17116TIP3   OH272762   4.287   2.806   0.918  0.3376 -0.3092  0.0666
17116TIP3    H172763   4.268   2.846   0.833  0.4235  0.5767  0.4484
17116TIP3    H272764   4.235   2.726   0.919 -0.3688  0.1296 -0.4577
17117TIP3   OH272765   6.159   4.273   4.996  0.2510  0.0349  0.4534
17117TIP3    H172766   6.112   4.235   5.070 -2.7974  1.0613 -0.7973
17117TIP3    H272767   6.165   4.201   4.932 -0.7482  0.1915  0.1643
17118TIP3   OH272768   3.036   4.241  14.183  0.2897 -0.1623 -0.1447
17118TIP3    H172769   3.008   4.153  14.157 -0.3429  0.2859 -1.0455
17118TIP3    H272770   3.029   4.292  14.103  0.3340  0.7889  0.4520
17119TIP3   OH272771   6.554   5.881   2.474 -0.4252  0.4172 -0.1419
17119TIP3    H172772   6.589   5.802   2.431  0.1328  0.5749  0.0157
17119TIP3    H272773   6.538   5.942   2.402  0.9974  0.8726 -0.1126
17120TIP3   OH272774   2.662   0.381  12.562  0.8570  0.5943  0.3058
17120TIP3    H172775   2.659   0.293  12.601  1.4209  0.7792  0.7763
17120TIP3    H272776   2.743   0.381  12.511 -0.6191 -0.1904 -2.2322
17121TIP3   OH272777   5.873   0.074  12.227  0.0338 -0.2781 -0.0885
17121TIP3    H172778   5.873   0.169  12.222 -1.8864 -0.2405 -0.2780
17121TIP3    H272779   5.929   0.053  12.302  0.3625  0.9993  0.0372
17122TIP3   OH272780   2.614   0.591  12.031 -0.4096  0.3347 -0.3340
17122TIP3    H172781   2.686   0.648  12.057 -1.0925  1.4104 -0.7227
17122TIP3    H272782   2.536   0.636  12.063 -1.0086 -0.0714 -1.2055
17123TIP3   OH272783   6.243   0.696   3.413  0.2370  0.2926  0.4702
17123TIP3    H172784   6.172   0.651   3.366  0.2759 -1.3099  1.8571
17123TIP3    H272785   6.199   0.753   3.475  0.1029 -0.8375  1.4583
17124TIP3   OH272786   4.773   1.830  16.264  0.0386 -0.6403 -0.1361
17124TIP3    H172787   4.805   1.910  16.223 -0.2890 -0.6127 -0.3367
17124TIP3    H272788   4.684   1.819  16.231  0.0870 -1.0973 -0.1300
17125TIP3   OH272789   4.954   5.913   4.384  0.2053 -0.3020  0.0920
17125TIP3    H172790   4.930   5.906   4.292  2.6104 -0.6062 -0.5856
17125TIP3    H272791   4.874   5.940   4.428 -1.5235 -2.0739 -1.7677
17126TIP3   OH272792   2.645   2.898  10.792 -0.0386  0.5461  0.1989
17126TIP3    H172793   2.687   2.880  10.708  1.3180  1.5119  0.6372
17126TIP3    H272794   2.623   2.812  10.827  0.8826  0.0521 -0.4091
17127TIP3   OH272795   0.828   2.499   2.784  0.0081  0.0704 -0.4752
17127TIP3    H172796   0.883   2.496   2.706  1.7267 -1.1389  0.7108
17127TIP3    H272797   0.755   2.557   2.760 -0.1227 -1.1030 -3.3360
17128TIP3   OH272798   3.704   5.076   5.134 -0.0389 -0.5164 -0.0838
17128TIP3    H172799   3.621   5.090   5.089  0.2094 -0.5058 -0.5405
17128TIP3    H272800   3.702   5.137   5.208  0.8635  1.7684 -1.8176
17129TIP3   OH272801   4.987   2.271  17.321 -0.2493 -0.1640  0.3392
17129TIP3    H172802   4.921   2.311  17.377  1.2767 -0.1269  2.2076
17129TIP3    H272803   5.012   2.341  17.261 -0.5076  0.4174  0.8984
17130TIP3   OH272804   1.675   5.156   5.887 -0.6691 -0.2974 -0.2753
17130TIP3    H172805   1.596   5.130   5.934 -0.9762  0.5109 -0.3136
17130TIP3    H272806   1.698   5.080   5.834 -0.4870 -1.1111  0.9432
17131TIP3   OH272807   0.341   3.497   0.129  0.4485  0.2647  0.1866
17131TIP3    H172808   0.380   3.554   0.195  0.5170 -0.8212  1.1156
17131TIP3    H272809   0.339   3.410   0.170 -1.2214 -0.0820 -0.5219
17132TIP3   OH272810   0.772   3.031  12.852 -0.6738  0.0725  0.3964
17132TIP3    H172811   0.798   2.977  12.776  2.8618  1.8502  0.1429
17132TIP3    H272812   0.771   3.120  12.818  2.5188  1.1090  2.6019
17133TIP3   OH272813   0.436   3.162  12.927 -0.1192 -0.0842  0.4690
17133TIP3    H172814   0.445   3.217  12.849  1.7038 -0.9925 -0.0230
17133TIP3    H272815   0.510   3.188  12.983 -1.6031  0.8142  2.0978
17134TIP3   OH272816   5.195   3.429   0.589 -0.0461 -0.3387 -0.1226
17134TIP3    H172817   5.196   3.442   0.683 -3.5036  0.7936 -0.1314
17134TIP3    H272818   5.144   3.349   0.576 -0.7749  0.2554 -1.0404
17135TIP3   OH272819   1.481   5.529  12.025  0.6025  0.4788  0.0106
17135TIP3    H172820   1.576   5.527  12.021  0.6255  0.3029  0.5954
17135TIP3    H272821   1.455   5.438  12.007  0.5804  0.3551  0.6547
17136TIP3   OH272822   4.692   3.777   3.206 -0.4186  0.1474  0.0092
17136TIP3    H172823   4.704   3.870   3.224  0.3898  0.8434 -3.3889
17136TIP3    H272824   4.650   3.774   3.120  1.7036 -2.5538 -1.1083
17137TIP3   OH272825   0.345   4.808   2.977 -0.5809  0.0788  0.2022
17137TIP3    H172826   0.340   4.773   3.066  0.0081  1.5202  0.8285
17137TIP3    H272827   0.429   4.775   2.943 -0.7579 -0.3862  0.2085
17138TIP3   OH272828   0.384   4.195   1.357 -0.1734 -0.0561 -0.0047
17138TIP3    H172829   0.403   4.102   1.357  0.7791  0.1087 -1.5525
17138TIP3    H272830   0.369   4.217   1.449  4.0460 -0.8488  1.0482
17139TIP3   OH272831   6.411   2.407  11.193 -0.1273 -0.3126 -0.5906
17139TIP3    H172832   6.384   2.481  11.139 -1.1601 -0.4831 -0.3385
17139TIP3    H272833   6.342   2.399  11.259  0.3607 -1.0242 -0.1434
17140TIP3   OH272834   4.880   1.483  16.841 -0.3345  0.0522  0.2899
17140TIP3    H172835   4.960   1.489  16.788 -0.6921 -0.1236 -0.2716
17140TIP3    H272836   4.899   1.536  16.919  1.5711 -2.5594  1.7682
17141TIP3   OH272837   0.635   4.359   1.818  0.2715  1.4495  0.3291
17141TIP3    H172838   0.593   4.309   1.888 -0.7013  1.8216  0.0175
17141TIP3    H272839   0.605   4.449   1.830  0.1604  1.5356 -0.5131
17142TIP3   OH272840   4.727   5.192   0.587  0.7192  0.6385  0.6227
17142TIP3    H172841   4.715   5.280   0.623  0.0177  0.5840  0.5377
17142TIP3    H272842   4.820   5.187   0.567  0.5264  1.9324 -0.8021
17143TIP3   OH272843   6.708   6.145  15.568  0.6768  0.1404  0.0912
17143TIP3    H172844   6.640   6.102  15.618  1.8181 -1.9257 -0.0007
17143TIP3    H272845   6.662   6.191  15.498 -0.6681 -0.2451  0.7049
17144TIP3   OH272846   2.976   4.293   2.060  0.3503 -0.6008 -0.2572
17144TIP3    H172847   2.987   4.200   2.078  2.5806 -0.3667 -0.0341
17144TIP3    H272848   3.029   4.336   2.127 -3.4159  1.0895  1.9254
17145TIP3   OH272849   5.836   2.183  13.755  0.5926  0.2647  0.2580
17145TIP3    H172850   5.856   2.210  13.666 -0.8748  0.3404 -0.0832
17145TIP3    H272851   5.895   2.234  13.810 -0.4474  2.4225 -0.5162
17146TIP3   OH272852   4.560   1.066  11.997  0.1872 -0.7547 -0.0060
17146TIP3    H172853   4.637   1.102  11.954 -1.0274 -0.9935 -2.5491
17146TIP3    H272854   4.499   1.140  12.004  0.0605 -0.9066  0.5385
17147TIP3   OH272855   5.438   4.672  12.624 -0.6311  0.2969 -0.0852
17147TIP3    H172856   5.397   4.593  12.590 -0.9719  1.2564 -2.0230
17147TIP3    H272857   5.365   4.733  12.637 -0.2047  0.8414 -0.2221
17148TIP3   OH272858   5.384   5.561   5.740  0.5047 -0.2686 -0.0938
17148TIP3    H172859   5.330   5.632   5.776  3.0885  2.1692 -0.6227
17148TIP3    H272860   5.400   5.503   5.813 -0.7657  0.3110  0.6778
17149TIP3   OH272861   2.548   4.823  16.080 -0.6754 -0.0137  0.0848
17149TIP3    H172862   2.550   4.744  16.134  0.8515 -0.5275 -0.6759
17149TIP3    H272863   2.594   4.799  16.000  0.3792  1.8344  0.0850
17150TIP3   OH272864   1.944   1.959  10.196 -0.3020  0.2256 -0.5074
17150TIP3    H172865   2.035   1.975  10.169  0.1121  1.3210  1.3970
17150TIP3    H272866   1.911   1.897  10.130  0.8919  1.9753 -2.9074
17151TIP3   OH272867   2.220   4.711  13.470  0.0291  1.0123 -0.1050
17151TIP3    H172868   2.226   4.802  13.442 -0.5293  0.8637 -0.7336
17151TIP3    H272869   2.135   4.681  13.436  0.3817  0.1519 -0.2436
17152TIP3   OH272870   0.113   2.848   5.904  0.3055  0.2755 -0.0210
17152TIP3    H172871   0.070   2.769   5.936 -1.4735  0.4199 -1.8852
17152TIP3    H272872   0.128   2.900   5.982 -0.6187 -0.8920  0.9745
17153TIP3   OH272873   5.464   5.620   4.931  0.1834 -0.3763 -0.2768
17153TIP3    H172874   5.415   5.539   4.948 -2.4515  1.1977  0.3307
17153TIP3    H272875   5.503   5.642   5.015 -0.5927 -0.1269  0.0286
17154TIP3   OH272876   1.987   4.787  14.735 -0.9602 -0.4898 -0.3187
17154TIP3    H172877   2.053   4.728  14.771  0.2970  1.4015  0.6940
17154TIP3    H272878   2.013   4.800  14.644 -0.4972 -0.5262 -0.1943
17155TIP3   OH272879   5.639   1.042  14.795 -0.3651 -0.3024 -0.3879
17155TIP3    H172880   5.644   1.132  14.761  3.1809 -0.2976 -0.1521
17155TIP3    H272881   5.624   0.989  14.716 -2.9037  0.4014 -0.4879
17156TIP3   OH272882   1.325   6.299   4.580 -0.2460 -0.3575  0.4280
17156TIP3    H172883   1.414   6.318   4.610  0.8839 -3.2217 -0.7943
17156TIP3    H272884   1.316   6.348   4.499  0.0603  0.2241  0.7361
17157TIP3   OH272885   3.030   5.761  12.212 -0.0914  0.0925  0.1465
17157TIP3    H172886   3.021   5.811  12.293 -2.4613 -0.4878  0.2949
17157TIP3    H272887   2.987   5.815  12.146  1.6568  0.4731 -0.7394
17158TIP3   OH272888   0.946   4.871  14.479 -0.1451 -0.1758 -0.3553
17158TIP3    H172889   0.866   4.832  14.515  0.2552 -0.2837  0.4516
17158TIP3    H272890   0.917   4.920  14.402 -0.8699 -0.8447 -0.5145
17159TIP3   OH272891   6.321   1.991  11.663  0.2331 -0.3700  0.1899
17159TIP3    H172892   6.376   2.011  11.587  0.7614 -0.0508  0.6549
17159TIP3    H272893   6.343   2.058  11.727  0.6353 -1.2941  1.0532
17160TIP3   OH272894   0.039   0.845  17.120  0.1572 -0.6056 -0.0858
17160TIP3    H172895   0.055   0.937  17.096 -2.0834 -0.3301 -0.7459
17160TIP3    H272896  -0.007   0.850  17.204 -2.7231 -0.8679 -1.5324
17161TIP3   OH272897   5.584   2.458  12.408  0.0318  0.5478 -0.0579
17161TIP3    H172898   5.635   2.519  12.355 -0.0921  1.1989  0.5501
17161TIP3    H272899   5.578   2.379  12.355  0.2806  1.0299 -0.8237
17162TIP3   OH272900   1.782   0.015  16.750 -0.4703  0.2602 -0.1732
17162TIP3    H172901   1.876   0.008  16.768 -0.4205  1.1585 -0.0557
17162TIP3    H272902   1.747  -0.071  16.773 -0.1175  0.7380  2.5187
17163TIP3   OH272903   1.278   4.345  17.295  0.5855 -0.2634 -0.1309
17163TIP3    H172904   1.339   4.365  17.366  0.6181  0.4322 -0.3462
17163TIP3    H272905   1.308   4.399  17.222 -0.6263  0.5200 -0.0662
17164TIP3   OH272906   6.386   3.521   4.933 -0.4398 -0.5291  0.1989
17164TIP3    H172907   6.471   3.504   4.974  0.8272  0.9093 -1.6463
17164TIP3    H272908   6.399   3.496   4.842 -2.5330 -1.7028  0.1569
17165TIP3   OH272909   1.335   5.175  11.101  0.0024 -0.8780  0.6097
17165TIP3    H172910   1.345   5.097  11.155 -0.1853 -0.8011  0.7567
17165TIP3    H272911   1.256   5.217  11.133  0.7761  0.0391  1.3767
17166TIP3   OH272912   2.375   3.383   2.833  0.0315  0.2124  0.4905
17166TIP3    H172913   2.393   3.458   2.776 -0.4653  0.0028  0.0460
17166TIP3    H272914   2.455   3.371   2.883  0.2608  0.7842  0.2705
17167TIP3   OH272915   2.783   3.141  12.552  0.5817 -0.0842 -0.4369
17167TIP3    H172916   2.866   3.109  12.589  0.2149  1.0586  1.5434
17167TIP3    H272917   2.739   3.062  12.521  0.7458 -1.2598  2.0618
17168TIP3   OH272918   6.413   5.648  13.175  0.5443  0.1591  0.2074
17168TIP3    H172919   6.443   5.615  13.259 -0.1415 -2.5930 -0.5066
17168TIP3    H272920   6.319   5.630  13.175  0.8214 -1.7220 -1.8085
17169TIP3   OH272921   2.108   2.272   4.802  0.0812  0.0657 -0.7376
17169TIP3    H172922   2.089   2.178   4.800  0.4169  0.0127 -1.7290
17169TIP3    H272923   2.202   2.278   4.785  0.0265  0.5890 -0.8637
17170TIP3   OH272924   1.567   1.505  15.456 -0.2757 -0.4837  0.3091
17170TIP3    H172925   1.616   1.498  15.538 -0.5839  0.1910  0.5552
17170TIP3    H272926   1.623   1.559  15.400 -1.0847  0.9843  0.8748
17171TIP3   OH272927   0.742   6.725   3.839 -0.1884  0.0928 -0.2821
17171TIP3    H172928   0.742   6.694   3.748 -0.3868 -4.5659  1.0486
17171TIP3    H272929   0.830   6.704   3.871 -1.2734 -2.1563  1.5353
17172TIP3   OH272930   6.528   0.171   3.565  0.1668 -1.1548 -0.2702
17172TIP3    H172931   6.487   0.205   3.485 -0.0978 -0.3604  0.1916
17172TIP3    H272932   6.621   0.193   3.555 -0.2008  1.0823  0.6685
17173TIP3   OH272933   1.299   2.006  12.785  0.2497 -0.1806  0.0584
17173TIP3    H172934   1.255   1.930  12.748 -0.0292  0.0219 -0.0319
17173TIP3    H272935   1.228   2.067  12.806  0.4956  0.2175 -0.2529
17174TIP3   OH272936   4.310   0.341  17.087 -0.1457 -0.4049 -0.1361
17174TIP3    H172937   4.225   0.314  17.121  0.6410 -2.7351  0.1425
17174TIP3    H272938   4.354   0.381  17.162  0.2124 -2.2234  0.6635
17175TIP3   OH272939   0.167   1.787  11.849  0.2323  0.3512  0.2321
17175TIP3    H172940   0.209   1.859  11.802 -0.5656  0.5892 -0.1286
17175TIP3    H272941   0.194   1.799  11.941  0.8778  0.5430  0.0207
17176TIP3   OH272942   5.269   3.162  17.288  0.0069  0.1923 -0.0849
17176TIP3    H172943   5.264   3.102  17.214  2.1933 -0.4793  0.2236
17176TIP3    H272944   5.218   3.238  17.261 -1.7689 -1.2384 -1.0075
17177TIP3   OH272945   5.493   4.469  10.315 -0.2826  0.6678 -0.1451
17177TIP3    H172946   5.437   4.430  10.382 -0.0979  2.1681  0.9327
17177TIP3    H272947   5.435   4.487  10.241 -0.5617 -0.6656 -0.2749
17178TIP3   OH272948   2.497   2.551   1.920  0.9360 -0.7913  0.0209
17178TIP3    H172949   2.542   2.537   1.837 -0.1367 -0.9354 -0.5513
17178TIP3    H272950   2.407   2.570   1.896  0.9558  0.9048  1.0710
17179TIP3   OH272951   5.454   0.023   0.951 -0.0202  0.5472  0.3647
17179TIP3    H172952   5.362   0.007   0.974  0.0219 -0.5559 -0.1267
17179TIP3    H272953   5.450   0.071   0.868 -0.1778 -0.6312 -0.3385
17180TIP3   OH272954   2.270   5.084   2.269  0.2595  0.0418  0.4788
17180TIP3    H172955   2.226   5.168   2.267  1.1278  0.5305  1.1913
17180TIP3    H272956   2.230   5.037   2.342 -0.1010 -0.0882  0.1953
17181TIP3   OH272957   1.411   6.197  11.332  0.0851 -0.0399  0.1572
17181TIP3    H172958   1.391   6.280  11.289  1.3065  0.4725  0.5392
17181TIP3    H272959   1.501   6.177  11.305 -0.0592 -1.0458  0.3755
17182TIP3   OH272960   3.164   0.689  15.506 -0.2165  0.4730  1.0561
17182TIP3    H172961   3.210   0.763  15.545  2.0905 -0.6697  0.6901
17182TIP3    H272962   3.135   0.721  15.421  0.6825  0.9893  0.9353
17183TIP3   OH272963   5.595   6.450  16.064  0.2731  0.2887 -0.2363
17183TIP3    H172964   5.658   6.379  16.057  0.0391 -0.1171  1.3268
17183TIP3    H272965   5.640   6.516  16.117 -1.1686 -0.7943  2.5831
17184TIP3   OH272966   1.113   4.613  14.203  0.3043 -0.0168  0.1349
17184TIP3    H172967   1.198   4.575  14.180 -0.1254 -0.6887 -0.3698
17184TIP3    H272968   1.132   4.706  14.218  1.2360 -0.2795  0.6537
17185TIP3   OH272969   6.316   0.651  16.723  0.4105  0.1265  0.0149
17185TIP3    H172970   6.349   0.565  16.697  1.8760 -0.5130  3.4384
17185TIP3    H272971   6.381   0.713  16.688  0.0025 -0.2212 -1.4136
17186TIP3   OH272972   3.837   6.479   5.571  0.0519 -0.6610 -0.1354
17186TIP3    H172973   3.881   6.511   5.649  0.8893 -0.2474 -0.7508
17186TIP3    H272974   3.865   6.539   5.502 -1.0876 -0.7050 -0.6546
17187TIP3   OH272975   1.586   1.551   2.269 -0.4599  0.0549  0.0108
17187TIP3    H172976   1.565   1.457   2.270  0.3828 -0.1810  2.6470
17187TIP3    H272977   1.682   1.554   2.269 -0.4769  0.9464 -0.5528
17188TIP3   OH272978   0.962   5.711  14.895  0.5979 -0.1250  0.0936
17188TIP3    H172979   1.050   5.699  14.859  0.2250  1.1295 -1.3113
17188TIP3    H272980   0.906   5.660  14.837  0.5032 -2.3518  1.9656
17189TIP3   OH272981   4.098   1.917  10.099 -0.1871  0.1555 -0.4102
17189TIP3    H172982   4.166   1.983  10.100 -2.4977  2.7098  0.5344
17189TIP3    H272983   4.106   1.871  10.182  0.5473  0.1851 -0.4602
17190TIP3   OH272984   3.707   2.026  12.202  0.2012  0.4043  0.4327
17190TIP3    H172985   3.690   1.933  12.191  0.5202  0.2067  1.5271
17190TIP3    H272986   3.704   2.062  12.113 -0.4008 -0.5599  0.0513
17191TIP3   OH272987   4.231   0.819  14.297 -0.3172  0.3449 -0.4775
17191TIP3    H172988   4.177   0.765  14.239  0.0823  0.2455 -0.7557
17191TIP3    H272989   4.256   0.894  14.244 -1.0113  0.9009 -0.0418
17192TIP3   OH272990   5.063   3.821  13.179  0.0811 -0.2842  0.2588
17192TIP3    H172991   5.047   3.914  13.166 -0.6178 -0.6445 -1.7402
17192TIP3    H272992   4.976   3.782  13.184  0.3312 -1.0790 -1.1556
17193TIP3   OH272993   4.843   3.632  17.373 -0.2045 -0.1589  0.2084
17193TIP3    H172994   4.880   3.687  17.304  0.1895 -0.9806 -0.2549
17193TIP3    H272995   4.798   3.693  17.431  1.1080  0.7739  0.2834
17194TIP3   OH272996   6.749   6.477   3.337  0.3215  0.1895 -0.5449
17194TIP3    H172997   6.728   6.491   3.245 -0.2544 -2.4569 -0.8889
17194TIP3    H272998   6.832   6.523   3.349 -1.2397  3.5430 -1.3920
17195TIP3   OH272999   3.498   0.313  12.305 -0.2705 -0.1503 -0.5602
17195TIP3    H173000   3.583   0.268  12.306 -0.9804 -1.5156 -0.5575
17195TIP3    H273001   3.441   0.259  12.358 -1.4884  0.0868 -1.5938
17196TIP3   OH273002   6.637   1.641  13.049  0.2653  0.5387 -0.3050
17196TIP3    H173003   6.578   1.672  13.118 -0.5424  0.1367 -0.7945
17196TIP3    H273004   6.585   1.647  12.969  0.8228 -0.0184 -0.7139
17197TIP3   OH273005   1.951   0.251   0.497  0.1321 -0.0986  0.2023
17197TIP3    H173006   1.961   0.334   0.450 -2.2388  0.9379  1.3069
17197TIP3    H273007   1.906   0.194   0.435  1.7032 -0.5783 -0.5365
17198TIP3   OH273008   3.053   1.467   5.123  0.0880  0.1053 -0.1750
17198TIP3    H173009   3.124   1.511   5.076 -0.2371 -0.1445 -0.9176
17198TIP3    H273010   3.092   1.441   5.207  0.9541 -0.2881 -0.6900
17199TIP3   OH273011   5.476   1.479   5.604 -0.0045  0.2495 -0.1122
17199TIP3    H173012   5.560   1.524   5.603 -0.8253  1.8388  0.3330
17199TIP3    H273013   5.458   1.463   5.697  0.0279 -0.5473 -0.2331
17200TIP3   OH273014   5.846   5.289   4.119  0.6084 -0.0297  0.1687
17200TIP3    H173015   5.820   5.380   4.126  0.7889  0.1869 -1.4467
17200TIP3    H273016   5.774   5.240   4.157 -0.4554  0.7258 -0.8097
17201TIP3   OH273017   4.731   3.683  13.580  0.0572  0.0145  0.3393
17201TIP3    H173018   4.658   3.622  13.572 -0.0619  0.0965  0.7799
17201TIP3    H273019   4.690   3.768  13.595  0.2490 -0.0034  0.9930
17202TIP3   OH273020   3.878   1.210   3.669  0.2044 -0.0237 -0.3758
17202TIP3    H173021   3.951   1.208   3.731 -0.0058  1.4763 -0.0187
17202TIP3    H273022   3.894   1.287   3.615  0.4888 -1.4193 -2.3949
17203TIP3   OH273023   2.345   5.929  16.665 -0.7581 -0.1098  0.2846
17203TIP3    H173024   2.336   5.843  16.624 -0.4377  0.2810 -0.6141
17203TIP3    H273025   2.403   5.913  16.740 -1.9958 -0.9765  1.0952
17204TIP3   OH273026   0.012   4.533   1.393  1.0587 -0.2530  0.2727
17204TIP3    H173027   0.099   4.550   1.357  1.1132  0.4922  0.7335
17204TIP3    H273028  -0.048   4.561   1.323  1.1791 -1.0963 -0.1848
17205TIP3   OH273029   2.520   6.324  14.759 -0.2779  0.5738  0.0911
17205TIP3    H173030   2.548   6.252  14.702  0.1457  0.9318 -0.1518
17205TIP3    H273031   2.567   6.400  14.727 -1.7660  1.2619 -0.5364
17206TIP3   OH273032   1.432   5.253  11.992 -0.1277  0.5064 -0.0883
17206TIP3    H173033   1.401   5.170  12.029 -0.2186  1.6064  2.5243
17206TIP3    H273034   1.527   5.243  11.990 -0.1050  0.4634  0.6427
17207TIP3   OH273035   3.014   5.485  14.426  0.3515  0.3417 -0.0454
17207TIP3    H173036   3.049   5.439  14.350  0.0644  0.7622 -0.4294
17207TIP3    H273037   2.919   5.478  14.418  0.3157 -0.4839  0.8124
17208TIP3   OH273038   2.376   3.684  15.725  0.3908 -0.0187 -0.0612
17208TIP3    H173039   2.405   3.751  15.787  1.7738 -1.5204  1.0268
17208TIP3    H273040   2.445   3.618  15.729 -0.9282 -1.5159 -1.0583
17209TIP3   OH273041   2.928   5.496   2.854 -0.4835  0.2377 -0.2452
17209TIP3    H173042   2.932   5.435   2.780  0.1750  0.9515 -0.8137
17209TIP3    H273043   2.851   5.550   2.836 -0.3306  0.4032 -0.4074
17210TIP3   OH273044   5.671   5.782   4.732 -0.2689 -0.7337  0.3264
17210TIP3    H173045   5.683   5.741   4.647 -0.4686 -1.7362  0.7687
17210TIP3    H273046   5.584   5.820   4.728 -0.2630 -0.7456  0.0684
17211TIP3   OH273047   4.916   3.211  16.611  0.1875  0.6141 -0.1492
17211TIP3    H173048   4.895   3.265  16.535 -0.2525  2.0750  0.9712
17211TIP3    H273049   4.835   3.208  16.662 -0.2844 -2.3684 -0.8534
17212TIP3   OH273050   5.987   4.787  17.271  0.6593 -0.5347  0.1885
17212TIP3    H173051   6.031   4.871  17.284 -0.0548 -0.0509 -0.4055
17212TIP3    H273052   6.055   4.729  17.239  1.1485 -0.1572  0.5276
17213TIP3   OH273053   5.245   4.662   5.262  0.0072  0.0224 -0.1880
17213TIP3    H173054   5.201   4.640   5.180  0.3718  0.1129 -0.4106
17213TIP3    H273055   5.326   4.611   5.261  0.7759  1.2106 -0.6279
17214TIP3   OH273056   5.022   2.289   2.259 -0.2448  0.1899 -0.1541
17214TIP3    H173057   5.110   2.267   2.287  0.2468  2.6981  0.5767
17214TIP3    H273058   5.034   2.351   2.187 -1.4470 -0.8426 -1.2910
17215TIP3   OH273059   5.996   4.357   0.032 -0.7823  0.0169 -0.6171
17215TIP3    H173060   6.043   4.399  -0.039  0.0135 -0.3633 -0.3248
17215TIP3    H273061   6.002   4.263   0.012  1.2077 -0.2495  0.9871
17216TIP3   OH273062   4.100   4.043   2.190  0.2822 -0.0247 -0.4353
17216TIP3    H173063   4.157   3.972   2.218  0.3035 -0.0319 -0.4951
17216TIP3    H273064   4.016   4.000   2.171 -0.4042  0.2743  1.6708
17217TIP3   OH273065   0.159   1.017   5.011  0.0130  0.3002  0.0272
17217TIP3    H173066   0.104   1.048   4.939  0.7773  1.0894 -0.2348
17217TIP3    H273067   0.176   1.095   5.064  1.4347  0.2400 -0.2823
17218TIP3   OH273068   1.895   5.451   4.208  0.2153  0.0146  0.3029
17218TIP3    H173069   1.959   5.448   4.137  0.6025 -0.0433  0.6541
17218TIP3    H273070   1.934   5.508   4.273 -1.0168  1.7374 -0.3772
17219TIP3   OH273071   5.684   4.978   3.626  0.0554  0.4002  0.4750
17219TIP3    H173072   5.697   4.990   3.719 -0.0488 -2.5015  0.9694
17219TIP3    H273073   5.603   5.026   3.606  0.6191  1.8614  1.6373
17220TIP3   OH273074   3.169   6.544   0.813 -0.0106 -0.1217 -0.2229
17220TIP3    H173075   3.237   6.585   0.866  0.7899 -2.0342  0.2888
17220TIP3    H273076   3.087   6.580   0.847  0.6684  1.7964 -0.4864
17221TIP3   OH273077   5.035   4.685   0.757 -0.3769  0.7928 -0.1185
17221TIP3    H173078   5.067   4.768   0.724 -0.9127  1.4337  0.9199
17221TIP3    H273079   4.962   4.662   0.699 -0.4380  1.2103 -0.2095
17222TIP3   OH273080   0.961   1.210   6.049 -0.2200 -0.8424  0.4638
17222TIP3    H173081   0.917   1.295   6.050 -0.4995 -0.9473 -0.9814
17222TIP3    H273082   0.947   1.175   6.137  0.6646  0.9735  1.3861
17223TIP3   OH273083   1.292   0.353   6.651 -0.3747  0.0744  0.2734
17223TIP3    H173084   1.223   0.325   6.711  0.3363 -0.2191  0.9674
17223TIP3    H273085   1.348   0.411   6.704  0.2505 -0.1714 -0.1082
17224TIP3   OH273086   5.253   0.149  15.624  0.3783  0.0166 -0.4350
17224TIP3    H173087   5.292   0.161  15.711  1.2894  0.6957 -0.9275
17224TIP3    H273088   5.181   0.212  15.622 -0.3569 -0.7569  0.2111
17225TIP3   OH273089   0.422   0.105  16.520  0.2660  0.2864 -0.3587
17225TIP3    H173090   0.399   0.159  16.596 -0.7284 -0.9764  0.2759
17225TIP3    H273091   0.506   0.140  16.491 -0.5811  2.5568 -0.3535
17226TIP3   OH273092   3.432   5.812   6.023  0.3676  0.7222 -0.2317
17226TIP3    H173093   3.525   5.814   6.002  0.5256  0.3137  0.3986
17226TIP3    H273094   3.419   5.728   6.068 -0.3526  0.6603 -0.5403
17227TIP3   OH273095   4.110   3.289   9.926  0.4750 -0.3242  0.3505
17227TIP3    H173096   4.176   3.242   9.875 -1.2675 -1.6406 -0.8002
17227TIP3    H273097   4.152   3.303  10.011  2.6628 -0.0099 -0.7002
17228TIP3   OH273098   3.730   3.883  13.701  0.1150 -0.0344 -0.3629
17228TIP3    H173099   3.650   3.912  13.658  0.0501  0.0377 -0.1955
17228TIP3    H273100   3.767   3.818  13.642  0.1264  0.2029 -0.6174
17229TIP3   OH273101   1.938   5.147  13.537 -0.0748  0.4611  0.2162
17229TIP3    H173102   1.980   5.125  13.620  0.8165 -1.9949 -0.8108
17229TIP3    H273103   1.994   5.108  13.470 -1.2346  1.6148 -1.5225
17230TIP3   OH273104   0.736   2.843   3.478  0.4156  0.4370  0.2564
17230TIP3    H173105   0.757   2.892   3.399  0.3340 -0.2078 -0.1670
17230TIP3    H273106   0.806   2.778   3.485  0.0292  0.0248  0.3151
17231TIP3   OH273107   6.160   5.198   0.268  0.2899 -0.1451  0.1833
17231TIP3    H173108   6.085   5.140   0.284  0.1961  0.3527  1.7298
17231TIP3    H273109   6.220   5.146   0.214 -0.2793 -1.2846  0.6185
17232TIP3   OH273110   4.467   2.476   6.300  0.3695  0.0994 -0.0491
17232TIP3    H173111   4.435   2.550   6.352 -0.1434 -0.0637 -0.1223
17232TIP3    H273112   4.552   2.504   6.266  0.5611  0.3315  0.6107
17233TIP3   OH273113   1.364   5.980   0.245 -0.3151  0.4636  0.3620
17233TIP3    H173114   1.286   5.944   0.287  0.7763  0.8916  2.9373
17233TIP3    H273115   1.432   5.915   0.262  0.3058  0.9355 -0.2732
17234TIP3   OH273116   0.822   4.425  15.037 -0.0357  0.6151 -0.7567
17234TIP3    H173117   0.762   4.392  14.971  0.8184 -1.2941 -0.6532
17234TIP3    H273118   0.899   4.455  14.988  0.7665 -1.1723 -0.6876
17235TIP3   OH273119   3.752   2.431  14.253  0.5935  0.2119  0.3134
17235TIP3    H173120   3.727   2.429  14.161  2.0049  0.3450 -0.0944
17235TIP3    H273121   3.671   2.451  14.299 -0.0457  0.6156 -0.9375
17236TIP3   OH273122   0.376   3.262  16.954  0.4904 -0.0956 -0.1030
17236TIP3    H173123   0.294   3.248  17.002  0.2258  0.7907 -0.2764
17236TIP3    H273124   0.349   3.307  16.874  1.1929  0.6405  0.0577
17237TIP3   OH273125   4.550   6.322   2.812 -0.1383  0.4351 -0.8872
17237TIP3    H173126   4.488   6.252   2.792  1.6270 -1.2810 -0.6302
17237TIP3    H273127   4.617   6.315   2.744  0.5889  1.2427 -0.2742
17238TIP3   OH273128   2.260   6.168   1.437 -0.6562  0.2663 -0.3612
17238TIP3    H173129   2.264   6.258   1.468  0.8031  1.3932 -3.4151
17238TIP3    H273130   2.168   6.144   1.444 -1.2472  2.3390 -0.3418
17239TIP3   OH273131   2.727   1.401   5.184  0.4517 -0.3297  0.0164
17239TIP3    H173132   2.633   1.404   5.165  0.6986 -0.8962 -1.4013
17239TIP3    H273133   2.756   1.318   5.147  1.8736  0.7364 -1.4139
17240TIP3   OH273134   2.701   1.166  14.719  0.3549 -0.0303  0.2541
17240TIP3    H173135   2.775   1.193  14.665  1.2085 -1.2282  0.7815
17240TIP3    H273136   2.715   1.209  14.803  0.0598  0.3104  0.1304
17241TIP3   OH273137   3.835   6.222  16.744 -0.1695 -0.6335 -0.3873
17241TIP3    H173138   3.780   6.249  16.818 -0.7249 -1.7918 -0.3644
17241TIP3    H273139   3.877   6.303  16.716 -0.4068 -0.0626  0.8155
17242TIP3   OH273140   1.912   4.235  16.810 -0.1668 -0.5179  0.0432
17242TIP3    H173141   1.937   4.148  16.780  1.5843 -0.1985  0.4677
17242TIP3    H273142   1.846   4.264  16.746 -0.8482 -2.1634 -0.0468
17243TIP3   OH273143   5.628   3.051   6.067 -0.2242 -0.3091  0.1108
17243TIP3    H173144   5.561   3.034   6.133 -0.7678  1.3491  0.0468
17243TIP3    H273145   5.634   2.970   6.016 -1.5054 -0.8023  0.7035
17244TIP3   OH273146   4.380   5.070  14.602  0.4393 -0.7483 -0.2703
17244TIP3    H173147   4.320   5.061  14.675  0.7666 -0.5537  0.0304
17244TIP3    H273148   4.395   5.165  14.595 -0.7092 -0.6207 -1.5164
17245TIP3   OH273149   6.005   2.215   2.317 -0.5356  0.1369  0.4862
17245TIP3    H173150   6.018   2.289   2.258  0.6349  1.6729  2.5432
17245TIP3    H273151   5.971   2.146   2.261 -0.2941  1.7539 -1.8065
17246TIP3   OH273152   2.788   1.084   0.642  0.6057  0.2898 -0.4386
17246TIP3    H173153   2.693   1.080   0.633  0.3861 -0.2612  1.5453
17246TIP3    H273154   2.821   1.013   0.587 -0.3336 -1.0910  0.7059
17247TIP3   OH273155   4.772   4.970  14.497  0.3838  0.3777 -0.2807
17247TIP3    H173156   4.702   4.919  14.537 -0.4432 -0.3536 -2.5091
17247TIP3    H273157   4.769   5.054  14.541 -0.8131 -0.1880  0.7747
17248TIP3   OH273158   2.523   0.448   1.956  0.0461  0.1169  0.1875
17248TIP3    H173159   2.616   0.425   1.954 -0.4791 -2.4272  1.1846
17248TIP3    H273160   2.521   0.541   1.934  2.9568  0.6674  1.7125
17249TIP3   OH273161   1.913   1.619  13.290  0.2313  0.4790  0.1892
17249TIP3    H173162   1.968   1.578  13.223 -0.3999  0.4964 -0.3481
17249TIP3    H273163   1.827   1.579  13.278  0.0999  0.5217  0.9623
17250TIP3   OH273164   0.113   6.587   1.577 -0.6786  0.0629  0.6416
17250TIP3    H173165   0.046   6.616   1.516 -1.1574  0.0395  1.1495
17250TIP3    H273166   0.165   6.523   1.528 -0.6699  0.5157  0.0639
17251TIP3   OH273167   2.784   5.003  10.969  0.3136  0.1875  1.2924
17251TIP3    H173168   2.739   5.018  10.885  0.1155  1.8079  1.6476
17251TIP3    H273169   2.855   4.943  10.948  0.0348  0.2670  0.0383
17252TIP3   OH273170   4.973   6.014   3.005  0.1489  0.2448 -0.8756
17252TIP3    H173171   5.053   6.066   2.999  0.7183 -0.4793  0.2191
17252TIP3    H273172   5.002   5.928   3.035 -1.2743  0.7028  2.1894
17253TIP3   OH273173   5.074   0.456  14.129  0.0899 -0.4494 -0.3644
17253TIP3    H173174   5.017   0.425  14.059 -0.7165 -1.8932  0.8650
17253TIP3    H273175   5.161   0.424  14.105  0.1265  0.4886 -1.5125
17254TIP3   OH273176   1.179   0.162  12.946  0.1069 -0.3672 -0.3367
17254TIP3    H173177   1.099   0.169  12.893  0.8440  4.1912 -1.3078
17254TIP3    H273178   1.250   0.173  12.884  1.1383  1.7477  1.0797
17255TIP3   OH273179   5.156   3.499  14.935 -0.0749  0.1669  0.3379
17255TIP3    H173180   5.103   3.435  14.886  0.1775 -0.7518  1.2097
17255TIP3    H273181   5.092   3.562  14.968 -0.4191 -0.0060  0.0127
17256TIP3   OH273182   3.493   2.225  14.309 -0.2276 -0.0135 -0.0307
17256TIP3    H173183   3.580   2.194  14.286 -0.8083 -0.5696 -1.6494
17256TIP3    H273184   3.487   2.213  14.404  1.3921 -0.0903  0.0835
17257TIP3   OH273185   4.290   0.104   4.844  0.0035  0.0976  0.1061
17257TIP3    H173186   4.384   0.089   4.838 -0.0243 -1.0279  1.7129
17257TIP3    H273187   4.280   0.179   4.902 -0.0849 -0.3023  0.6212
17258TIP3   OH273188   3.675   0.468  14.999 -0.5151  0.0310 -0.4876
17258TIP3    H173189   3.651   0.431  15.084 -1.6786 -1.6574 -1.4878
17258TIP3    H273190   3.600   0.449  14.942 -0.0184  1.6481 -1.7615
17259TIP3   OH273191   6.733   0.793  16.492 -0.0044  0.1916  0.5480
17259TIP3    H173192   6.639   0.787  16.506  0.1207  0.7413  1.7035
17259TIP3    H273193   6.748   0.882  16.462  0.1920  0.2248  0.7414
17260TIP3   OH273194   0.074   0.760  16.736  0.2134 -0.6193 -0.2156
17260TIP3    H173195   0.118   0.844  16.745 -0.1714 -0.5560  1.3186
17260TIP3    H273196   0.057   0.752  16.642  1.7391  0.2281 -0.6001
17261TIP3   OH273197   4.194   6.076  14.669  0.0924  0.4114 -0.3246
17261TIP3    H173198   4.196   5.993  14.718  1.3440  0.8963  0.4930
17261TIP3    H273199   4.147   6.055  14.588  0.8025 -1.2249 -0.3534
17262TIP3   OH273200   3.271   4.761  10.899  0.4045  0.3995 -0.5046
17262TIP3    H173201   3.225   4.679  10.879  0.8692 -0.0993  0.3828
17262TIP3    H273202   3.253   4.817  10.824 -1.5314  0.1904 -0.2499
17263TIP3   OH273203   2.398   3.631   2.559 -0.0646 -0.1603 -0.3291
17263TIP3    H173204   2.354   3.574   2.496 -1.4412 -0.4469  0.8509
17263TIP3    H273205   2.404   3.716   2.515  2.1865 -1.1532 -2.1911
17264TIP3   OH273206   4.859   0.249  12.262 -0.5374  0.0394  0.0005
17264TIP3    H173207   4.833   0.216  12.348  0.3310 -1.8530 -0.4087
17264TIP3    H273208   4.909   0.328  12.281 -3.8570  2.1170  0.9558
17265TIP3   OH273209   0.908   4.452   1.840  0.0305  0.4583  1.1808
17265TIP3    H173210   0.814   4.433   1.846  0.3593 -1.8206  0.1567
17265TIP3    H273211   0.913   4.529   1.783 -1.1958  0.4081  0.9692
17266TIP3   OH273212   1.032   5.089  14.041  0.5490 -0.5772 -0.0805
17266TIP3    H173213   1.066   5.097  13.952  1.2589  1.0119  0.2826
17266TIP3    H273214   1.066   5.006  14.073  0.8194 -0.8576 -1.0727
17267TIP3   OH273215   1.912   1.743  12.370  0.2499 -0.1330  0.2934
17267TIP3    H173216   1.958   1.707  12.294 -0.0101 -1.0703  0.5612
17267TIP3    H273217   1.824   1.705  12.365 -0.6188  1.8556 -0.3627
17268TIP3   OH273218   5.565   0.730  16.414  0.0138  0.0664  0.4050
17268TIP3    H173219   5.626   0.739  16.487 -0.7840 -1.2969  1.2910
17268TIP3    H273220   5.487   0.778  16.442 -0.0396  0.1222  0.1611
17269TIP3   OH273221   3.719   5.292   0.789 -0.0724 -0.4807  0.2809
17269TIP3    H173222   3.789   5.253   0.841  0.4128  0.0437  0.0404
17269TIP3    H273223   3.724   5.246   0.705  0.2363 -0.1866  0.1349
17270TIP3   OH273224   4.682   2.903  16.189  0.0895 -0.4183  0.0912
17270TIP3    H173225   4.619   2.831  16.192 -0.6070  0.2028  1.7892
17270TIP3    H273226   4.689   2.932  16.280  1.9226  0.3301 -0.2461
17271TIP3   OH273227   0.497   2.840  10.304  0.2473 -0.6033 -0.0015
17271TIP3    H173228   0.577   2.823  10.253  0.8690 -0.3526  0.8697
17271TIP3    H273229   0.495   2.770  10.369  1.9169  1.4998  2.5187
17272TIP3   OH273230   2.667   4.602   2.326  0.1046 -0.3252  0.1327
17272TIP3    H173231   2.753   4.645   2.324 -0.5710  1.1430  1.3313
17272TIP3    H273232   2.688   4.509   2.319  1.7867  0.0043  0.2390
17273TIP3   OH273233   4.273   3.815   2.213 -0.4912 -0.4779  0.8098
17273TIP3    H173234   4.293   3.801   2.121 -0.6135 -2.7060  1.0707
17273TIP3    H273235   4.343   3.873   2.245  0.6278 -1.2209 -0.2486
17274TIP3   OH273236   2.036   0.290   2.983 -0.0356 -0.2068 -0.3484
17274TIP3    H173237   2.116   0.310   2.935  2.1757 -2.8644  1.8343
17274TIP3    H273238   2.051   0.324   3.071 -1.4000 -0.5726  0.0596
17275TIP3   OH273239   3.100   0.221  13.726  0.5024 -0.0699  0.1495
17275TIP3    H173240   3.004   0.225  13.720  0.4317  1.6501  1.5459
17275TIP3    H273241   3.127   0.311  13.743  2.3426 -0.6095  0.3377
17276TIP3   OH273242   2.758   1.816   1.938  0.0902  0.3267  0.8868
17276TIP3    H173243   2.848   1.829   1.966  0.2667 -0.2857  0.6337
17276TIP3    H273244   2.710   1.793   2.018  0.5301 -1.1240  0.7706
17277TIP3   OH273245   6.012   4.997   5.582  0.2441 -0.2849  0.9073
17277TIP3    H173246   5.922   4.983   5.613  0.1666 -0.9467  0.4059
17277TIP3    H273247   6.037   4.913   5.544  1.3069 -0.2924  1.6021
17278TIP3   OH273248   2.136   4.521  15.205 -0.1287 -0.5831 -0.3134
17278TIP3    H173249   2.095   4.492  15.123 -0.7975  3.4496 -1.6340
17278TIP3    H273250   2.063   4.543  15.262  0.3153 -0.6066  0.2710
17279TIP3   OH273251   1.948   3.614  13.694  0.2485  0.1359  0.5105
17279TIP3    H173252   2.010   3.663  13.749  0.3307 -0.6900  1.1799
17279TIP3    H273253   1.872   3.671  13.687  1.4978  1.6983 -1.3239
17280TIP3   OH273254   4.480   5.258   1.354 -0.0846 -0.1081  0.1560
17280TIP3    H173255   4.562   5.259   1.304 -0.2039 -0.1899 -0.0406
17280TIP3    H273256   4.412   5.274   1.288 -0.1244  1.3373  0.5095
17281TIP3   OH273257   4.642   0.766  15.578  0.2904  0.3390 -0.0118
17281TIP3    H173258   4.673   0.761  15.669 -1.4915 -1.4192  0.5549
17281TIP3    H273259   4.661   0.680  15.542 -1.9514 -0.1134 -0.2591
17282TIP3   OH273260   1.458   5.308   1.043  0.4183 -0.1291 -0.4425
17282TIP3    H173261   1.458   5.375   1.111 -2.6102 -0.7656  0.3064
17282TIP3    H273262   1.420   5.351   0.966  2.1057  0.0495 -1.2306
17283TIP3   OH273263   0.277   4.972   2.139  0.3696 -0.7705 -0.2137
17283TIP3    H173264   0.269   5.033   2.066 -1.7960  1.1455  1.4611
17283TIP3    H273265   0.311   5.026   2.211 -2.1691 -1.2473  1.4836
17284TIP3   OH273266   3.997   0.441  10.587  0.2156 -0.7608 -0.0914
17284TIP3    H173267   3.927   0.475  10.531  0.0768 -0.5860  0.1903
17284TIP3    H273268   3.963   0.446  10.676  0.7711 -0.1812  0.1058
17285TIP3   OH273269   6.446   2.408  15.559  0.0208 -0.5413  0.0809
17285TIP3    H173270   6.429   2.394  15.465  0.4576 -1.8259  0.1811
17285TIP3    H273271   6.487   2.327  15.588  1.8834  0.6319  0.9240
17286TIP3   OH273272   3.299   4.446  10.744 -0.4749 -0.1620  0.0228
17286TIP3    H173273   3.304   4.477  10.653  0.6714 -1.9767 -0.5719
17286TIP3    H273274   3.232   4.501  10.783  0.8682  2.5289 -1.1586
17287TIP3   OH273275   4.943   2.685  13.553  0.0548 -0.0116  0.2740
17287TIP3    H173276   4.954   2.590  13.553 -2.3306 -0.3541 -0.4879
17287TIP3    H273277   4.917   2.707  13.642  0.3849 -0.0899  0.3914
17288TIP3   OH273278   4.363   2.285  14.748  0.0127 -0.2485  0.1340
17288TIP3    H173279   4.425   2.357  14.735  0.0506  0.1247  2.0054
17288TIP3    H273280   4.415   2.205  14.737  0.3797  0.0340 -0.1896
17289TIP3   OH273281   5.748   0.528   4.890 -0.0104  0.3509 -0.3186
17289TIP3    H173282   5.750   0.611   4.842 -0.1126 -0.7902 -2.4197
17289TIP3    H273283   5.770   0.462   4.824 -0.7867 -1.3814  1.0833
17290TIP3   OH273284   3.337   6.181  12.946 -0.3546  0.0193  0.2992
17290TIP3    H173285   3.425   6.165  12.911  0.3700  3.0749  0.5004
17290TIP3    H273286   3.329   6.119  13.019  2.1317  0.4134  1.0048
17291TIP3   OH273287   6.358   0.275   0.174  0.0450  0.1836 -0.5390
17291TIP3    H173288   6.331   0.248   0.261 -0.2238  1.0149 -0.3518
17291TIP3    H273289   6.292   0.237   0.115  1.0357 -1.6169 -0.5561
17292TIP3   OH273290   3.871   6.425   1.003 -0.1012  1.1606 -0.0125
17292TIP3    H173291   3.906   6.360   1.064  1.8393  1.5502 -0.6493
17292TIP3    H273292   3.829   6.373   0.934  0.3225  0.6197  0.1294
17293TIP3   OH273293   1.140   5.117   1.749 -0.4429 -0.1804  0.2596
17293TIP3    H173294   1.111   5.139   1.661 -3.2176 -1.1592  0.8394
17293TIP3    H273295   1.149   5.202   1.793 -0.8450  0.2254 -0.4265
17294TIP3   OH273296   4.769   3.850  11.833  0.1641  0.5434  0.2035
17294TIP3    H173297   4.757   3.756  11.823  1.2547  0.3307  0.8199
17294TIP3    H273298   4.706   3.875  11.901 -1.1321  0.5266 -0.9443
17295TIP3   OH273299   3.055   5.727   5.107 -0.2350 -0.0353 -0.3676
17295TIP3    H173300   3.126   5.689   5.056 -0.0256 -0.7417  0.4243
17295TIP3    H273301   3.065   5.688   5.194 -1.9091 -0.5471 -0.3770
17296TIP3   OH273302   0.695   2.483  16.445 -0.1922 -0.1863 -0.2058
17296TIP3    H173303   0.679   2.434  16.363 -2.0886  0.8576 -0.5259
17296TIP3    H273304   0.657   2.569  16.429  0.7420  0.5310  1.2787
17297TIP3   OH273305   6.507   0.075   0.546  0.4680 -0.3282  0.0486
17297TIP3    H173306   6.438   0.125   0.503  0.2462 -0.6874 -0.0198
17297TIP3    H273307   6.538   0.132   0.616 -0.0996 -0.2722  0.2613
17298TIP3   OH273308   4.224   5.262  16.612 -0.4337  0.7131 -0.3320
17298TIP3    H173309   4.204   5.248  16.520 -0.9186 -0.3937 -0.0777
17298TIP3    H273310   4.146   5.231  16.658 -0.4368  1.8130  0.4278
17299TIP3   OH273311   0.008   4.448  17.076  0.1754  0.2025 -0.3439
17299TIP3    H173312   0.056   4.396  17.140 -1.6402  0.3795  1.2331
17299TIP3    H273313  -0.043   4.384  17.026  1.0905  0.1283 -1.2179
17300TIP3   OH273314   3.645   2.923   2.710 -0.0701 -0.2357 -0.0200
17300TIP3    H173315   3.669   2.919   2.618 -0.5590 -0.6250 -0.1330
17300TIP3    H273316   3.554   2.895   2.713 -0.8967  2.3193  0.2908
17301TIP3   OH273317   4.050   4.020   4.076  0.4684  0.5631  0.0948
17301TIP3    H173318   3.979   3.979   4.026 -0.2222 -0.8154  2.0619
17301TIP3    H273319   4.081   3.950   4.134  3.3398  1.1785 -0.5430
17302TIP3   OH273320   2.508   0.902  10.336 -0.6050 -0.1332  0.0224
17302TIP3    H173321   2.513   0.990  10.374 -1.5238 -0.0654  0.0233
17302TIP3    H273322   2.459   0.914  10.255  0.5697 -0.4191 -0.7462
17303TIP3   OH273323   1.538   2.886   5.565  0.3522  0.2751  0.8717
17303TIP3    H173324   1.535   2.981   5.574  1.0226  0.2686  1.2590
17303TIP3    H273325   1.630   2.863   5.579  0.8102 -0.1681 -2.2490
17304TIP3   OH273326   0.030   6.271  11.862  0.4459 -0.0379  0.2054
17304TIP3    H173327   0.101   6.319  11.905  0.9181  1.7711 -2.3559
17304TIP3    H273328   0.074   6.195  11.822  0.1470 -1.2445  2.0411
17305TIP3   OH273329   0.945   6.034  16.341  0.4037  0.2758  0.6432
17305TIP3    H173330   0.877   6.102  16.340 -1.0130 -1.0319 -1.7499
17305TIP3    H273331   0.919   5.974  16.411 -0.3407  0.3467  0.4318
17306TIP3   OH273332   5.372   6.313  11.682 -0.4925 -0.5867  0.4490
17306TIP3    H173333   5.449   6.282  11.636 -0.8383  0.0765 -0.6062
17306TIP3    H273334   5.298   6.280  11.630 -0.8833  0.2626  0.4457
17307TIP3   OH273335   3.599   0.702   4.745  0.0333  0.0826  0.0995
17307TIP3    H173336   3.694   0.715   4.748  0.1749 -0.8985  0.6617
17307TIP3    H273337   3.563   0.786   4.718  1.1484  0.0951 -1.4383
17308TIP3   OH273338   5.210   1.074   4.485  0.1351 -0.0767  0.2471
17308TIP3    H173339   5.196   0.979   4.480 -0.8067  0.0638 -0.0298
17308TIP3    H273340   5.122   1.111   4.482  0.5501  0.8697 -1.1991
17309TIP3   OH273341   1.643   5.855  13.214  0.2085 -0.4824  0.0733
17309TIP3    H173342   1.723   5.809  13.190  1.4044  0.9093  1.2225
17309TIP3    H273343   1.586   5.787  13.250  1.3817 -1.2982  0.4481
17310TIP3   OH273344   0.022   2.376   5.221  0.1074 -0.5507 -0.0066
17310TIP3    H173345   0.060   2.463   5.231  2.8953 -1.7082  0.5434
17310TIP3    H273346   0.011   2.366   5.126  0.4014  0.1505 -0.1207
17311TIP3   OH273347   3.425   2.249   4.053 -0.4951  0.0355 -0.4681
17311TIP3    H173348   3.488   2.200   4.106  0.2173  0.0562 -1.2774
17311TIP3    H273349   3.357   2.274   4.115 -0.5646 -1.4316  0.0898
17312TIP3   OH273350   3.983   2.776  13.454 -0.1992 -0.0436 -0.4964
17312TIP3    H173351   3.947   2.864  13.456 -0.9744 -0.3625  0.8580
17312TIP3    H273352   3.940   2.734  13.379 -0.1545  0.5942 -0.8815
17313TIP3   OH273353   5.272   5.376  13.245  0.2274  0.5663  0.7624
17313TIP3    H173354   5.274   5.419  13.331 -1.6633  1.2368  0.5111
17313TIP3    H273355   5.187   5.400  13.208 -0.3202 -2.1748 -0.0243
17314TIP3   OH273356   0.301   2.673  17.147  0.1077  0.5388 -0.0149
17314TIP3    H173357   0.333   2.737  17.211 -1.3121  0.6830  0.5872
17314TIP3    H273358   0.325   2.588  17.183 -0.5303  0.6277  0.6303
17315TIP3   OH273359   4.691   4.795   4.968  0.5528  0.4478 -0.2140
17315TIP3    H173360   4.614   4.775   4.916 -1.4966  1.2543  2.2740
17315TIP3    H273361   4.733   4.711   4.982  0.9694  0.1752 -2.7538
17316TIP3   OH273362   1.417   2.197  12.334  0.1015 -0.1134  0.1652
17316TIP3    H173363   1.441   2.260  12.266  1.5194  0.4676  1.1521
17316TIP3    H273364   1.404   2.250  12.412  2.0101 -1.0463  1.1916
17317TIP3   OH273365   1.781   1.961  13.795  0.2876  0.3467  0.5390
17317TIP3    H173366   1.832   2.021  13.849  0.4374  0.4963  0.2317
17317TIP3    H273367   1.694   2.002  13.789 -1.1085 -1.6033  4.0825
17318TIP3   OH273368   2.333   4.323  14.779 -0.0820  0.3706  0.2632
17318TIP3    H173369   2.401   4.261  14.754 -0.7948 -0.2900 -0.0653
17318TIP3    H273370   2.379   4.389  14.832  0.6389 -0.5448  0.7993
17319TIP3   OH273371   2.879   3.143  12.077  0.3733  0.0058  0.0167
17319TIP3    H173372   2.975   3.145  12.079  0.4672 -1.0914 -1.6395
17319TIP3    H273373   2.855   3.092  12.155  1.1697 -0.3941  0.0091
17320TIP3   OH273374   2.663   2.275   1.390 -0.3271 -0.3688  0.3394
17320TIP3    H173375   2.594   2.275   1.456 -0.8857 -0.8847 -0.2356
17320TIP3    H273376   2.621   2.241   1.311 -0.0854  1.5887 -0.7108
17321TIP3   OH273377   0.133   0.792  14.326 -0.7862  0.2248  0.6093
17321TIP3    H173378   0.174   0.833  14.250  0.2568 -1.2807  0.3067
17321TIP3    H273379   0.180   0.827  14.401  0.6990 -0.9804  0.3038
17322TIP3   OH273380   2.970   4.538  11.673 -0.5445 -0.4014  0.3879
17322TIP3    H173381   2.947   4.446  11.661 -0.9026 -0.3499  0.6570
17322TIP3    H273382   2.885   4.582  11.683 -0.3568 -0.1022  0.6693
17323TIP3   OH273383   3.402   3.636   5.205 -0.8350  0.1949  0.0315
17323TIP3    H173384   3.407   3.730   5.217 -1.0428  0.2014  0.0669
17323TIP3    H273385   3.418   3.622   5.112  1.2220  0.1148  0.3380
17324TIP3   OH273386   6.527   6.162  11.751 -0.4191 -0.8384 -0.0014
17324TIP3    H173387   6.604   6.203  11.790 -0.3629 -0.7835 -0.1702
17324TIP3    H273388   6.494   6.227  11.689 -0.2309 -1.1150 -0.3948
17325TIP3   OH273389   1.558   6.717   3.599 -0.1182  0.3882  0.0965
17325TIP3    H173390   1.551   6.783   3.530 -0.5553 -0.5077 -0.7584
17325TIP3    H273391   1.527   6.760   3.678 -1.0666  1.0036 -0.5909
17326TIP3   OH273392   2.254   1.016  11.322  0.2383 -0.2986 -0.1904
17326TIP3    H173393   2.289   1.018  11.233  2.2645  0.3823  0.5783
17326TIP3    H273394   2.260   1.107  11.352 -1.6218 -0.2755  0.2373
17327TIP3   OH273395   3.940   0.481   0.774  0.3085  0.2824 -0.7500
17327TIP3    H173396   4.005   0.522   0.717  0.7931  2.2754  1.1329
17327TIP3    H273397   3.981   0.399   0.801  1.2746  0.6706 -0.9989
17328TIP3   OH273398   3.664   4.195  10.743  0.3087 -0.3923 -0.1771
17328TIP3    H173399   3.605   4.170  10.672 -0.6712  1.4989 -0.1052
17328TIP3    H273400   3.685   4.287  10.725  1.0582 -0.2369  1.3096
17329TIP3   OH273401   2.171   0.261   5.582 -0.1756  0.4995 -0.3890
17329TIP3    H173402   2.199   0.352   5.574 -1.1000  0.9323  0.9844
17329TIP3    H273403   2.157   0.249   5.676 -1.6160 -0.5755 -0.7150
17330TIP3   OH273404   6.302   1.253   1.504 -0.0544  0.2679  0.9264
17330TIP3    H173405   6.305   1.188   1.574  0.2410 -2.0987 -1.1828
17330TIP3    H273406   6.210   1.282   1.503 -1.5236 -3.7843 -1.1308
17331TIP3   OH273407   1.401   5.141  15.329 -0.0342 -0.0034 -0.2370
17331TIP3    H173408   1.367   5.095  15.252 -0.7633 -0.9299  0.6216
17331TIP3    H273409   1.410   5.073  15.396  5.1739 -0.3101 -0.8029
17332TIP3   OH273410   5.854   3.635  16.284  0.2647 -0.0966  0.0262
17332TIP3    H173411   5.818   3.694  16.217 -1.1296  0.9284  1.5698
17332TIP3    H273412   5.944   3.664  16.295  0.3384  0.1066 -0.9815
17333TIP3   OH273413   4.122   2.600   0.933  0.1458 -0.0070  0.1445
17333TIP3    H173414   4.108   2.571   0.843  0.5831 -0.1539  0.1191
17333TIP3    H273415   4.095   2.525   0.987  0.4052 -0.1273  0.1116
17334TIP3   OH273416   5.884   0.626   2.807  0.1902 -0.0086 -0.3700
17334TIP3    H173417   5.803   0.608   2.854  0.2119  0.0713 -0.3030
17334TIP3    H273418   5.876   0.717   2.779 -0.0793 -0.2265 -1.0249
17335TIP3   OH273419   0.845   5.065  15.505  0.6539  0.0530 -0.0592
17335TIP3    H173420   0.768   5.122  15.507  0.8112  0.2710  1.5699
17335TIP3    H273421   0.872   5.064  15.413 -0.2119  1.4498 -0.3645
17336TIP3   OH273422   0.877   3.502   4.938 -0.1558  0.1706 -0.6530
17336TIP3    H173423   0.855   3.479   5.028 -0.0614 -0.4886 -0.7967
17336TIP3    H273424   0.795   3.494   4.890 -0.8643  3.1261 -0.1534
17337TIP3   OH273425   2.791   4.604   4.563 -0.6208 -0.5285 -0.7487
17337TIP3    H173426   2.852   4.560   4.503 -0.9734 -1.8123 -0.2081
17337TIP3    H273427   2.786   4.546   4.639 -1.6779  0.0886 -0.3199
17338TIP3   OH273428   5.172   4.070  16.049  0.3519 -0.0636 -0.3618
17338TIP3    H173429   5.096   4.117  16.016  0.5702 -0.5548 -1.6211
17338TIP3    H273430   5.144   4.037  16.135  0.2102  2.3302  0.5819
17339TIP3   OH273431   1.750   5.208  11.543  0.6789 -0.0223 -0.1893
17339TIP3    H173432   1.804   5.258  11.605 -1.0895  0.3763  1.0921
17339TIP3    H273433   1.789   5.226  11.458  2.5255  0.2862  0.6635
17340TIP3   OH273434   1.934   2.829  16.484 -0.7131  0.4762 -0.0119
17340TIP3    H173435   1.986   2.910  16.479 -0.2608  0.2408  0.7921
17340TIP3    H273436   1.974   2.779  16.554 -2.2899  0.4592  0.9195
17341TIP3   OH273437   5.796   4.474  11.182 -0.8757 -0.4704  0.3339
17341TIP3    H173438   5.815   4.518  11.100  0.2775 -0.7662  0.4275
17341TIP3    H273439   5.818   4.382  11.165 -0.9444 -0.5887  0.8696
17342TIP3   OH273440   4.485   3.674   3.336  0.3259  0.7706  0.4135
17342TIP3    H173441   4.550   3.718   3.282 -0.3155  0.3283 -0.7518
17342TIP3    H273442   4.447   3.743   3.390 -0.8273  1.7188 -1.5362
17343TIP3   OH273443   4.582   0.728  11.924 -0.1964 -0.2098  0.3726
17343TIP3    H173444   4.598   0.781  11.846 -3.2908 -0.5541 -0.6161
17343TIP3    H273445   4.570   0.639  11.892  0.5231 -0.7297  1.4973
17344TIP3   OH273446   3.653   5.559   4.209 -0.3708 -0.2456 -0.0116
17344TIP3    H173447   3.635   5.600   4.293  0.2525 -1.5375  0.7925
17344TIP3    H273448   3.668   5.631   4.148  3.7219  0.8567  1.9571
17345TIP3   OH273449   6.124   4.401  15.570  0.0949  0.1303  0.7659
17345TIP3    H173450   6.218   4.419  15.570 -0.0860  1.2057  0.2927
17345TIP3    H273451   6.106   4.365  15.657  0.7687  0.9667  1.2658
17346TIP3   OH273452   3.246   2.186  14.809 -0.1236  0.3126 -0.0704
17346TIP3    H173453   3.164   2.148  14.840 -0.7616  0.5481 -1.4036
17346TIP3    H273454   3.302   2.189  14.887 -1.8853  1.5522  1.2242
17347TIP3   OH273455   1.256   4.843  10.777  0.3509 -0.1267 -0.2674
17347TIP3    H173456   1.241   4.928  10.735  0.7685 -0.5548 -1.3032
17347TIP3    H273457   1.341   4.852  10.820  0.1284  0.1607  0.1249
17348TIP3   OH273458   4.567   1.096  16.896 -0.2453 -0.4712 -0.2035
17348TIP3    H173459   4.598   1.168  16.841 -2.5005  0.4401 -0.3517
17348TIP3    H273460   4.632   1.090  16.966  0.2579  1.3742 -0.4581
17349TIP3   OH273461   5.822   3.326  13.654 -0.2782 -0.4856 -0.4951
17349TIP3    H173462   5.730   3.309  13.670 -0.5749 -0.0094 -1.6165
17349TIP3    H273463   5.862   3.239  13.645 -0.4083 -0.7203  0.9799
17350TIP3   OH273464   6.502   3.015  14.165 -0.1134 -0.5946 -0.9862
17350TIP3    H173465   6.560   3.086  14.137 -1.2597  1.2704  1.0504
17350TIP3    H273466   6.443   3.002  14.091 -0.8838  1.7592 -0.8562
17351TIP3   OH273467   4.706   4.032  16.514 -0.3255  0.6951  0.1577
17351TIP3    H173468   4.723   4.024  16.421  1.3190  0.7140  0.4354
17351TIP3    H273469   4.790   4.013  16.556 -1.3570 -0.6956  1.7124
17352TIP3   OH273470   5.748   5.020   3.877  0.2678 -0.1326  0.4912
17352TIP3    H173471   5.804   5.061   3.943 -0.1974 -1.1749  1.5934
17352TIP3    H273472   5.680   4.975   3.929 -0.2330 -0.8122 -0.7117
17353TIP3   OH273473   5.332   3.863  13.201 -0.4081 -0.4444  0.9816
17353TIP3    H173474   5.242   3.831  13.200 -0.3188 -0.8019 -1.1966
17353TIP3    H273475   5.366   3.840  13.115  1.1014  1.5328  0.9726
17354TIP3   OH273476   4.562   6.721  15.313 -0.5698  0.1942  0.2001
17354TIP3    H173477   4.609   6.781  15.370 -0.8814  0.6028  0.0306
17354TIP3    H273478   4.631   6.674  15.266 -0.3383  1.0700 -0.3427
17355TIP3   OH273479   0.608   6.180   0.276 -0.2057 -0.1264  0.0418
17355TIP3    H173480   0.519   6.153   0.257 -0.8529  1.4285  0.7232
17355TIP3    H273481   0.613   6.270   0.243  0.5905  0.3931  1.5205
17356TIP3   OH273482   5.186   4.908   5.416  0.6546  0.8755 -0.0737
17356TIP3    H173483   5.207   4.824   5.376  0.8659  1.0316 -0.2947
17356TIP3    H273484   5.266   4.931   5.465  0.1510  0.3422  1.0457
17357TIP3   OH273485   1.344   1.849   1.415 -0.5570 -0.3280  0.1212
17357TIP3    H173486   1.254   1.875   1.395 -0.5577  0.2015  0.7786
17357TIP3    H273487   1.386   1.841   1.330 -1.1100 -0.1391 -0.1752
17358TIP3   OH273488   0.397   5.263   1.197 -0.2126  0.0117 -0.1237
17358TIP3    H173489   0.389   5.174   1.165  0.4453  0.2832 -1.0863
17358TIP3    H273490   0.475   5.298   1.153 -0.4899  1.0685  0.1844
17359TIP3   OH273491   5.445   6.507  15.809 -0.1938  0.2511 -0.4953
17359TIP3    H173492   5.465   6.414  15.799 -0.7085  0.1674 -0.7627
17359TIP3    H273493   5.497   6.534  15.885 -1.6879 -0.7804  0.9652
17360TIP3   OH273494   3.969   0.205  12.982 -0.4038 -0.3283  0.0324
17360TIP3    H173495   3.939   0.294  12.960 -0.4720 -0.2764  0.3262
17360TIP3    H273496   3.942   0.193  13.073 -0.3982 -0.6537 -0.0076
17361TIP3   OH273497   5.622   2.994  14.430  0.4155  0.0221 -0.3489
17361TIP3    H173498   5.628   3.089  14.446 -0.7514  0.5675 -2.6589
17361TIP3    H273499   5.531   2.973  14.447  0.9533 -1.0392  1.4922
17362TIP3   OH273500   3.898   2.760   3.200 -0.2804 -0.4899  0.0177
17362TIP3    H173501   3.974   2.721   3.243  0.3967  0.3636 -0.3625
17362TIP3    H273502   3.920   2.759   3.107  0.6790  2.5301  0.0988
17363TIP3   OH273503   1.481   4.419  10.384  0.3616 -0.3760 -0.0181
17363TIP3    H173504   1.492   4.500  10.433  1.8306 -0.7490  0.3059
17363TIP3    H273505   1.390   4.422  10.353 -0.5590  0.0012  2.4682
17364TIP3   OH273506   1.595   1.155   0.465 -0.4840 -0.3263  0.0244
17364TIP3    H173507   1.603   1.249   0.481  3.0179 -0.6353  0.9867
17364TIP3    H273508   1.668   1.135   0.406 -0.4095 -2.5807  0.7950
17365TIP3   OH273509   1.464   4.896  14.146 -0.5923  0.3835  0.1333
17365TIP3    H173510   1.492   4.973  14.195 -0.7268  2.0207 -2.1685
17365TIP3    H273511   1.536   4.881  14.084 -1.7007  0.3319 -1.1945
17366TIP3   OH273512   4.731   3.740   3.636 -0.3595  0.4081 -0.3518
17366TIP3    H173513   4.741   3.802   3.564 -0.3784  0.1316 -0.5949
17366TIP3    H273514   4.818   3.734   3.675 -0.2142  0.1235 -0.7132
17367TIP3   OH273515   2.937   3.471   5.771 -0.1251  0.1908 -0.1948
17367TIP3    H173516   3.032   3.479   5.760 -0.0738  0.9439  0.6849
17367TIP3    H273517   2.910   3.555   5.808 -0.8966 -0.6064  1.1313
17368TIP3   OH273518   3.290   2.384  11.429  0.2419  0.2095  0.3405
17368TIP3    H173519   3.212   2.375  11.484  0.0244  1.7017  0.3151
17368TIP3    H273520   3.277   2.322  11.358 -1.8968  1.7950 -0.7463
17369TIP3   OH273521   5.432   5.864  12.228 -0.4383  0.2454  0.1310
17369TIP3    H173522   5.433   5.877  12.323  0.2538  0.6965  0.0704
17369TIP3    H273523   5.433   5.768  12.217 -0.1030  0.1949  0.5799
17370TIP3   OH273524   2.523   1.067  11.115 -0.0938  0.5490  0.1606
17370TIP3    H173525   2.569   0.995  11.159 -0.4247  0.3246  0.1404
17370TIP3    H273526   2.440   1.029  11.087  0.0674  0.7243 -0.5603
17371TIP3   OH273527   3.215   5.861   1.548 -0.2414 -0.0138 -0.2970
17371TIP3    H173528   3.177   5.777   1.576 -3.1078  1.1630 -0.3297
17371TIP3    H273529   3.199   5.864   1.453  1.2949 -0.0701 -0.5880
17372TIP3   OH273530   3.916   2.159   1.738 -0.0998 -0.4636 -0.2980
17372TIP3    H173531   3.836   2.211   1.741 -0.3508 -0.6064 -2.4853
17372TIP3    H273532   3.938   2.155   1.645  2.8494  0.1275  0.2758
17373TIP3   OH273533   4.644   4.606  14.113  0.3228 -0.0424 -0.0036
17373TIP3    H173534   4.578   4.576  14.050  0.8307  0.3292 -0.7261
17373TIP3    H273535   4.602   4.595  14.198 -0.3984 -0.5084 -0.4047
17374TIP3   OH273536   4.051   1.172   4.675 -0.0729  0.4265 -0.2390
17374TIP3    H173537   4.094   1.091   4.648 -0.8289  0.0910 -0.4573
17374TIP3    H273538   3.992   1.193   4.602  0.4891  1.4576 -0.4276
17375TIP3   OH273539   1.235   1.663   2.893  0.0544  0.1194  0.1015
17375TIP3    H173540   1.271   1.623   2.972 -2.6120 -0.9210  0.9022
17375TIP3    H273541   1.162   1.717   2.925  1.0349  2.4995 -1.3735
17376TIP3   OH273542   0.043   2.043   1.250 -0.0212  0.0167  0.1736
17376TIP3    H173543   0.130   2.083   1.249 -0.2304  0.5066 -2.1487
17376TIP3    H273544  -0.010   2.099   1.195 -0.6234 -2.7710 -2.3201
17377TIP3   OH273545   3.582   3.373  17.241  0.5503  1.0119  0.1102
17377TIP3    H173546   3.673   3.371  17.273  0.8030  1.9059 -0.5377
17377TIP3    H273547   3.589   3.402  17.150 -0.4729  2.2169  0.3883
17378TIP3   OH273548   6.156   3.966   0.078  0.5117 -0.0918 -0.6890
17378TIP3    H173549   6.081   3.931   0.126  0.4222  0.5251 -0.3650
17378TIP3    H273550   6.117   4.025   0.013  0.3379 -3.3688 -3.8921
17379TIP3   OH273551   4.560   2.064   0.622  0.1381 -0.5536 -0.0736
17379TIP3    H173552   4.580   2.067   0.529 -1.2401 -0.3461 -0.3832
17379TIP3    H273553   4.528   1.975   0.637  2.3658 -1.2807  0.6695
17380TIP3   OH273554   2.814   4.375   5.676  0.1698 -0.1722  0.2601
17380TIP3    H173555   2.721   4.391   5.659 -0.0542 -0.4943  1.0993
17380TIP3    H273556   2.842   4.315   5.607 -0.5497 -1.0016  0.6663
17381TIP3   OH273557   5.686   5.170   3.263 -0.4750  0.1912 -0.3295
17381TIP3    H173558   5.741   5.245   3.289 -1.4809  0.4689  1.1285
17381TIP3    H273559   5.736   5.093   3.292 -0.6924  0.4317  0.7468
17382TIP3   OH273560   0.888   4.891   0.083 -0.4333 -0.1494  0.3874
17382TIP3    H173561   0.903   4.870   0.175  0.2123 -0.7663  0.1489
17382TIP3    H273562   0.870   4.985   0.082  1.4519  0.2648  0.9464
17383TIP3   OH273563   5.575   2.122   2.281  0.5384 -0.1447 -0.1505
17383TIP3    H173564   5.579   2.027   2.293  0.8768 -0.1159 -0.0308
17383TIP3    H273565   5.605   2.136   2.191  2.9352  0.0364  0.6070
17384TIP3   OH273566   0.314   0.870  10.955 -0.4036  0.0823  0.0159
17384TIP3    H173567   0.360   0.872  10.871  0.2413  1.2491  0.3764
17384TIP3    H273568   0.372   0.822  11.014 -0.7614 -0.5532 -0.1396
17385TIP3   OH273569   4.158   0.304   2.919 -0.1689 -0.1457 -0.2153
17385TIP3    H173570   4.063   0.296   2.931  0.0452 -1.4235  0.8605
17385TIP3    H273571   4.184   0.222   2.878  0.4026  0.5025 -1.2054
17386TIP3   OH273572   6.102   2.288  12.880  0.0423  0.1967 -0.0497
17386TIP3    H173573   6.160   2.293  12.803 -0.1223 -0.1210 -0.1923
17386TIP3    H273574   6.136   2.214  12.930 -2.0504 -1.9857 -1.6293
17387TIP3   OH273575   3.671   5.709   6.243  0.0330  0.2407 -0.4693
17387TIP3    H173576   3.703   5.694   6.332  0.5824  2.8267 -0.1679
17387TIP3    H273577   3.611   5.636   6.227  2.4706 -2.2231  0.6908
17388TIP3   OH273578   6.109   2.772   6.584 -0.4497 -0.2508  0.9714
17388TIP3    H173579   6.096   2.843   6.647 -1.0068  0.2113  0.3543
17388TIP3    H273580   6.026   2.724   6.585 -0.8942  0.4714 -0.2713
17389TIP3   OH273581   2.057   5.161   4.401  0.2059  0.7735  0.5338
17389TIP3    H173582   2.124   5.201   4.346 -0.7125  0.5118 -0.8217
17389TIP3    H273583   2.106   5.113   4.467  1.3521  0.9554 -0.1478
17390TIP3   OH273584   5.983   6.144  11.564 -0.1240 -0.3464 -0.1471
17390TIP3    H173585   6.060   6.102  11.603 -0.7769 -2.0535 -0.6113
17390TIP3    H273586   5.951   6.202  11.632  1.5488  0.3832  0.0707
17391TIP3   OH273587   6.682   4.829   1.894 -0.7107  0.8069 -0.3830
17391TIP3    H173588   6.595   4.841   1.932 -0.5922  2.4743 -0.5466
17391TIP3    H273589   6.701   4.736   1.906 -2.2845  0.5202  0.1357
17392TIP3   OH273590   2.789   5.947   3.555 -0.3972 -0.0015 -0.4978
17392TIP3    H173591   2.758   5.907   3.474 -0.6716  0.0955 -0.4421
17392TIP3    H273592   2.831   6.029   3.529 -2.3139  1.0736 -0.3697
17393TIP3   OH273593   4.475   1.475   1.053  0.0821 -0.0789  0.1841
17393TIP3    H173594   4.490   1.412   0.982  0.9934 -1.4583  1.5311
17393TIP3    H273595   4.502   1.560   1.015 -0.3359 -0.6091 -1.3885
17394TIP3   OH273596   2.858   1.219  11.172 -0.4721 -0.0227 -0.2353
17394TIP3    H173597   2.954   1.213  11.165  0.1408  4.3121  1.4540
17394TIP3    H273598   2.826   1.149  11.115  3.6544 -1.3942 -1.2686
17395TIP3   OH273599   5.574   1.585  11.598  0.7668  0.0608 -0.0560
17395TIP3    H173600   5.588   1.527  11.523  1.1596 -2.4527  1.8011
17395TIP3    H273601   5.482   1.570  11.623  0.9720 -0.0724  0.6491
17396TIP3   OH273602   0.152   0.981   2.009  0.0736 -0.0492 -0.2414
17396TIP3    H173603   0.156   1.032   2.089 -1.2263 -0.7851  0.3194
17396TIP3    H273604   0.061   0.953   2.003  0.7842 -2.5189 -0.3772
17397TIP3   OH273605   4.630   1.218  13.665 -0.3206 -0.3337 -0.3678
17397TIP3    H173606   4.682   1.267  13.602 -0.4732  0.7383  0.3191
17397TIP3    H273607   4.542   1.255  13.658 -0.3080 -0.1064  0.5582
17398TIP3   OH273608   6.692   2.030   3.290 -0.1024  0.0159 -0.0024
17398TIP3    H173609   6.651   2.097   3.235 -1.2752 -1.9318 -1.6947
17398TIP3    H273610   6.618   1.984   3.330  0.6415 -0.7171  0.5570
17399TIP3   OH273611   5.611   6.015  14.763  0.7570 -0.3739 -0.4741
17399TIP3    H173612   5.617   6.051  14.852  1.3975  0.5929 -0.8885
17399TIP3    H273613   5.541   6.065  14.722  0.1234 -1.1597 -0.3753
17400TIP3   OH273614   5.420   6.562   5.336  0.3550  0.4297  0.0874
17400TIP3    H173615   5.389   6.652   5.325  0.4156  0.5439  0.7800
17400TIP3    H273616   5.352   6.520   5.388  0.8433  0.3841  0.7019
17401TIP3   OH273617   2.466   5.536   2.338 -0.0048 -0.7789  0.2776
17401TIP3    H173618   2.521   5.609   2.365  0.1066 -1.7581  2.9324
17401TIP3    H273619   2.514   5.458   2.364 -1.1040 -1.7567 -0.4914
17402TIP3   OH273620   3.388   0.214   1.290 -0.1742  0.0469 -0.1819
17402TIP3    H173621   3.417   0.162   1.215 -2.1363 -1.3255 -0.0462
17402TIP3    H273622   3.458   0.278   1.303  1.9278 -1.9643 -0.9188
17403TIP3   OH273623   0.923   5.321  15.277 -0.2532  0.8781  0.6411
17403TIP3    H173624   0.994   5.358  15.224 -0.0814 -0.7375 -0.2950
17403TIP3    H273625   0.965   5.252  15.328 -1.3070 -0.8191 -0.7046
17404TIP3   OH273626   5.280   1.798  11.835 -1.0377  0.1973  0.4072
17404TIP3    H173627   5.321   1.769  11.917 -1.5049  0.0635  0.5994
17404TIP3    H273628   5.309   1.735  11.769 -1.7294 -0.4820  0.7412
17405TIP3   OH273629   1.285   0.073   3.126  0.6977 -0.6633  0.1454
17405TIP3    H173630   1.257   0.041   3.211  1.1739 -1.1206  0.1310
17405TIP3    H273631   1.358   0.017   3.101  0.6328 -0.4701 -0.5167
17406TIP3   OH273632   6.313   0.425  15.358 -0.4266 -0.7269 -0.1445
17406TIP3    H173633   6.393   0.404  15.407 -0.0220 -1.1377 -0.9534
17406TIP3    H273634   6.317   0.367  15.281 -1.1654 -0.2689 -0.5334
17407TIP3   OH273635   0.142   5.377  12.601  0.0250 -0.3639 -0.1665
17407TIP3    H173636   0.148   5.465  12.564 -4.2421 -0.8148 -2.5433
17407TIP3    H273637   0.178   5.320  12.533 -1.6630 -0.7169 -0.8075
17408TIP3   OH273638   2.322   3.888   4.511  0.2017  0.2767 -0.0162
17408TIP3    H173639   2.273   3.920   4.587 -1.3105  1.3155 -1.3565
17408TIP3    H273640   2.277   3.807   4.487 -0.5003  0.8851 -0.8438
17409TIP3   OH273641   5.385   4.425   5.235 -0.0022  0.1983 -0.2117
17409TIP3    H173642   5.437   4.440   5.314 -0.3979  0.9905 -0.0960
17409TIP3    H273643   5.446   4.444   5.163  0.0779  0.4144 -0.0875
17410TIP3   OH273644   0.929   3.368  11.715  0.2046  0.1558 -0.7202
17410TIP3    H173645   0.941   3.309  11.790 -2.0974 -1.4371 -1.4683
17410TIP3    H273646   0.847   3.414  11.734  0.1412  0.5077 -1.7851
17411TIP3   OH273647   4.857   1.036   0.019  0.0961  0.0094 -0.6202
17411TIP3    H173648   4.924   1.021  -0.049  0.4593 -0.2397 -0.2148
17411TIP3    H273649   4.858   1.130   0.032 -0.8339  0.2135 -1.8157
17412TIP3   OH273650   5.470   3.729   4.746  0.0544  0.0936 -0.1455
17412TIP3    H173651   5.430   3.814   4.766 -2.2320 -1.1009  0.7582
17412TIP3    H273652   5.549   3.726   4.801  0.5199  1.8597 -0.6736
17413TIP3   OH273653   1.360   4.027  15.627  0.4923 -0.6795  0.1845
17413TIP3    H173654   1.414   3.953  15.654 -1.7697 -2.2319  0.7086
17413TIP3    H273655   1.338   4.008  15.535  1.1256  0.1654 -0.1601
17414TIP3   OH273656   5.522   4.773   1.487  0.4243 -0.5813  0.5482
17414TIP3    H173657   5.513   4.715   1.563  2.0053 -0.8766  0.5461
17414TIP3    H273658   5.568   4.850   1.521  0.5745 -0.4384  0.0327
17415TIP3   OH273659   3.320   1.901  11.795 -0.0938  0.7147 -0.0194
17415TIP3    H173660   3.402   1.866  11.830 -1.2828  0.4737  2.7736
17415TIP3    H273661   3.257   1.830  11.803 -1.3612  1.9087  1.0462
17416TIP3   OH273662   3.385   2.367  17.196  0.0074 -0.4086  0.1234
17416TIP3    H173663   3.320   2.438  17.205 -0.7127 -0.9722 -0.4743
17416TIP3    H273664   3.332   2.288  17.184  0.8040 -1.0387  0.6410
17417TIP3   OH273665   0.356   0.132  17.271  0.2483  0.2873 -0.1637
17417TIP3    H173666   0.450   0.144  17.259  1.0369 -2.1386  2.5813
17417TIP3    H273667   0.328   0.081  17.195  1.7433 -1.2639  0.2759
17418TIP3   OH273668   4.447   1.729   1.258  0.2089 -0.5771 -0.3160
17418TIP3    H173669   4.519   1.764   1.310  0.7250 -3.0740  0.7759
17418TIP3    H273670   4.478   1.735   1.168  0.3042  1.5380 -0.1991
17419TIP3   OH273671   3.678   3.727   6.039 -0.2500 -0.0002 -0.0515
17419TIP3    H173672   3.763   3.706   6.002  1.0504  1.6693  1.8066
17419TIP3    H273673   3.654   3.651   6.092 -0.8130 -1.2151 -1.9734
17420TIP3   OH273674   0.334   1.807   4.802  0.2165 -0.1788 -0.1343
17420TIP3    H173675   0.297   1.798   4.889  0.6519  0.5835  0.1435
17420TIP3    H273676   0.257   1.811   4.744 -0.0634 -1.1678  0.1479
17421TIP3   OH273677   2.057   0.817   1.035 -0.7388 -0.0725  0.0801
17421TIP3    H173678   2.107   0.891   1.070 -2.3327  0.2649  1.8340
17421TIP3    H273679   1.996   0.856   0.973  0.6986 -0.4176 -1.6410
17422TIP3   OH273680   2.307   2.293   1.884  0.0761 -0.3683 -0.2497
17422TIP3    H173681   2.292   2.366   1.943 -0.7880 -2.0939  1.8188
17422TIP3    H273682   2.253   2.312   1.808  0.1724  1.3005  0.0589
17423TIP3   OH273683   2.091   4.273  13.353 -0.0778 -0.0738 -0.6318
17423TIP3    H173684   2.147   4.337  13.396 -0.4676 -0.6076  0.7276
17423TIP3    H273685   2.034   4.324  13.296 -1.8890  1.1025  2.0454
17424TIP3   OH273686   1.936   0.650  13.616 -0.2114 -0.2849 -0.8416
17424TIP3    H173687   1.992   0.723  13.643 -0.1941 -0.5713 -0.0819
17424TIP3    H273688   1.850   0.670  13.654 -0.4828 -0.1503 -1.4989
17425TIP3   OH273689   5.511   0.138  13.062  1.1045  0.3915 -0.7753
17425TIP3    H173690   5.561   0.179  12.992  2.4664 -0.3813 -0.3077
17425TIP3    H273691   5.577   0.111  13.126 -0.0625  0.7413  0.6438
17426TIP3   OH273692   2.803   0.731   1.517 -0.2477 -0.0587 -0.1156
17426TIP3    H173693   2.752   0.790   1.462 -2.7523 -0.1122  1.9392
17426TIP3    H273694   2.746   0.654   1.528  0.7587 -0.6272  1.3784
17427TIP3   OH273695   4.658   2.023  11.087  0.5387 -0.3711 -0.4527
17427TIP3    H173696   4.581   2.001  11.034 -0.4569 -1.4065  1.3283
17427TIP3    H273697   4.725   1.961  11.057 -0.1103 -1.1698 -0.2816
17428TIP3   OH273698   5.530   2.613   5.008  0.1069 -0.5919 -0.0829
17428TIP3    H173699   5.576   2.611   4.924  0.1594 -1.0331 -0.0464
17428TIP3    H273700   5.500   2.523   5.021  0.4740 -0.6287  0.5760
17429TIP3   OH273701   2.390   4.657   1.933 -0.3288  0.4064 -0.2795
17429TIP3    H173702   2.343   4.597   1.875 -0.7256  0.0193  0.4324
17429TIP3    H273703   2.397   4.609   2.016  1.6499  0.2912 -0.4618
17430TIP3   OH273704   4.210   6.450  12.729 -0.2071  0.3088 -0.6190
17430TIP3    H173705   4.127   6.413  12.697  0.8656 -0.4318 -2.6860
17430TIP3    H273706   4.251   6.378  12.777 -1.2264  1.0336  1.4781
17431TIP3   OH273707   3.503   1.206   2.469  0.5886  0.1308  0.2084
17431TIP3    H173708   3.486   1.283   2.523  1.3807 -0.0095  0.6756
17431TIP3    H273709   3.547   1.240   2.391  0.6352  0.1925  0.2615
17432TIP3   OH273710   5.202   4.506   0.438  0.2239 -0.2481  0.2155
17432TIP3    H173711   5.289   4.545   0.424  0.2018  0.1736  1.1691
17432TIP3    H273712   5.145   4.553   0.377  0.3431  0.7236  0.8260
17433TIP3   OH273713   3.291   0.138  14.508  0.1774 -0.7295  0.0055
17433TIP3    H173714   3.341   0.059  14.530  1.7304  0.7103  1.9643
17433TIP3    H273715   3.357   0.204  14.491 -1.0805  0.6874  0.4201
17434TIP3   OH273716   2.576   1.914   3.556  0.2752  0.3405 -0.4513
17434TIP3    H173717   2.632   1.837   3.562  0.8531  0.7737 -0.2159
17434TIP3    H273718   2.603   1.970   3.629 -1.4001 -0.0397  0.5284
17435TIP3   OH273719   5.789   5.935  11.492 -0.4285 -0.0274 -0.3736
17435TIP3    H173720   5.818   5.854  11.534  0.5526 -0.0644 -1.0929
17435TIP3    H273721   5.869   5.976  11.461 -0.9109  1.3063  0.1150
17436TIP3   OH273722   3.971   6.326  12.659 -0.4545  0.1638 -0.2693
17436TIP3    H173723   3.908   6.297  12.724 -1.0324  0.0386 -0.8728
17436TIP3    H273724   3.993   6.246  12.610 -0.7274  0.4216 -0.8168
17437TIP3   OH273725   0.759   1.358   2.710  0.0988  0.7086  0.3113
17437TIP3    H173726   0.788   1.267   2.708 -1.4330  0.1879 -1.2839
17437TIP3    H273727   0.669   1.354   2.742  0.7179  1.9434  2.3567
17438TIP3   OH273728   4.874   4.656   2.777 -0.4038  0.5042  0.0543
17438TIP3    H173729   4.908   4.606   2.851  1.0690  1.1885 -0.1324
17438TIP3    H273730   4.951   4.681   2.727 -1.4383 -0.9701 -2.4179
17439TIP3   OH273731   3.394   0.253  14.977 -0.4546 -0.0007  0.4170
17439TIP3    H173732   3.467   0.239  15.037  0.3197  0.1291 -0.4614
17439TIP3    H273733   3.326   0.193  15.007  0.0643 -0.2240  1.1696
17440TIP3   OH273734   5.452   3.627   5.636 -0.6613 -0.2171  0.1931
17440TIP3    H173735   5.405   3.621   5.552  1.0030 -0.4906 -0.7680
17440TIP3    H273736   5.518   3.558   5.630 -0.3125 -0.0198  1.6195
17441TIP3   OH273737   6.139   5.746   6.335 -0.6097 -0.0470 -0.4172
17441TIP3    H173738   6.122   5.776   6.246 -1.6290  0.3717 -0.1054
17441TIP3    H273739   6.068   5.683   6.353 -1.6011  1.3358  0.7520
17442TIP3   OH273740   4.948   4.617  13.625 -0.7319 -0.9677  0.5984
17442TIP3    H173741   4.998   4.685  13.670  1.3436 -0.5611 -2.0469
17442TIP3    H273742   4.935   4.549  13.691  0.8940  0.1689  2.1858
17443TIP3   OH273743   2.649   5.235   5.745 -0.1251  0.0750  0.3558
17443TIP3    H173744   2.649   5.162   5.682  0.4830  1.3979 -1.2676
17443TIP3    H273745   2.738   5.239   5.778 -0.4851 -0.7250  1.4872
17444TIP3   OH273746   5.884   4.296   4.536 -0.1050 -0.4421 -0.3659
17444TIP3    H173747   5.957   4.329   4.589 -0.5123 -0.2218  0.0725
17444TIP3    H273748   5.924   4.272   4.453  0.2828  0.8570 -0.5890
17445TIP3   OH273749   5.245   0.430  13.480 -0.8476  0.5257 -1.1477
17445TIP3    H173750   5.302   0.382  13.540  0.0930  1.3986 -1.3281
17445TIP3    H273751   5.185   0.363  13.446  0.7422 -0.6546 -1.7643
17446TIP3   OH273752   1.504   4.337  15.969  0.8443 -0.2002  0.4026
17446TIP3    H173753   1.579   4.363  15.914  1.2000  0.1260  1.0301
17446TIP3    H273754   1.463   4.266  15.921  0.2133  1.0980 -1.0694
17447TIP3   OH273755   5.989   2.067   0.323  0.2596 -0.0884  0.0269
17447TIP3    H173756   6.025   2.044   0.238  0.8208 -0.8448  0.4555
17447TIP3    H273757   6.051   2.130   0.360  0.3112 -0.1823  0.1020
17448TIP3   OH273758   2.458   4.500   4.591 -0.3486 -0.1124  0.6567
17448TIP3    H173759   2.473   4.519   4.683  0.0236  1.5845  0.2872
17448TIP3    H273760   2.464   4.586   4.548 -2.3459 -0.5854 -0.7054
17449TIP3   OH273761   5.856   2.158  11.294 -0.3456  0.5948  0.2222
17449TIP3    H173762   5.764   2.176  11.315 -0.5749  2.0201 -1.6671
17449TIP3    H273763   5.904   2.229  11.337 -0.2156  0.3129  0.5418
17450TIP3   OH273764   0.701   4.831   5.902 -0.2845  0.1540  0.0982
17450TIP3    H173765   0.669   4.748   5.936  0.2553  0.0120  0.2731
17450TIP3    H273766   0.658   4.841   5.817  0.5758 -0.8935 -0.4830
17451TIP3   OH273767   1.991   4.485  14.940  0.2084 -0.2158 -0.4975
17451TIP3    H173768   1.941   4.405  14.957  1.1762 -0.3384  2.3145
17451TIP3    H273769   1.926   4.555  14.940 -0.2707 -0.6457  0.5235
17452TIP3   OH273770   4.876   4.893   0.849  0.0715 -0.0114  0.2811
17452TIP3    H173771   4.931   4.816   0.833 -0.3908 -0.0282 -1.4098
17452TIP3    H273772   4.934   4.967   0.833  0.0718 -0.0171  0.2557
17453TIP3   OH273773   2.783   4.177  14.401  0.1287 -0.4668  0.1796
17453TIP3    H173774   2.711   4.133  14.355  0.3384  0.3769 -1.0020
17453TIP3    H273775   2.861   4.154  14.351  0.7079 -1.3644  1.4476
17454TIP3   OH273776   5.991   1.452   3.113  0.1031  0.3878 -0.2546
17454TIP3    H173777   5.930   1.496   3.053 -0.9458  0.4419  0.8096
17454TIP3    H273778   5.936   1.424   3.186  0.8365 -2.1951 -0.5900
17455TIP3   OH273779   6.668   4.424   3.503  0.0938  0.2114 -0.0364
17455TIP3    H173780   6.758   4.433   3.472  0.1235 -0.2311 -0.0827
17455TIP3    H273781   6.616   4.474   3.440  0.5102  2.4208  1.2250
17456TIP3   OH273782   3.345   5.345   0.330  0.0799 -0.0639  0.0345
17456TIP3    H173783   3.432   5.332   0.367  0.0695 -0.1497  0.0283
17456TIP3    H273784   3.284   5.317   0.398  0.0679 -0.6791 -0.2242
17457TIP3   OH273785   5.047   3.161  11.153  0.0916  0.3580 -0.0878
17457TIP3    H173786   5.127   3.148  11.101 -0.2956 -1.7241 -0.2694
17457TIP3    H273787   4.993   3.219  11.100  0.0925 -0.9857 -1.6374
17458TIP3   OH273788   0.985   5.059  15.908 -0.6984  0.2564 -0.6299
17458TIP3    H173789   1.079   5.071  15.923 -0.6631 -0.0279 -0.6224
17458TIP3    H273790   0.976   4.968  15.880 -1.2109 -0.3903  1.4564
17459TIP3   OH273791   0.680   1.130   0.216 -0.5975  0.2425  0.1507
17459TIP3    H173792   0.765   1.144   0.176 -0.5745  1.0557  0.4604
17459TIP3    H273793   0.699   1.083   0.297 -0.6351 -1.3009 -0.7114
17460TIP3   OH273794   2.329   0.159   2.834  0.4199 -0.2108 -0.5188
17460TIP3    H173795   2.419   0.189   2.828  0.6960 -1.1483 -1.6004
17460TIP3    H273796   2.303   0.144   2.743 -1.6776  2.3416 -0.4551
17461TIP3   OH273797   6.150   2.374  10.550  0.2564 -0.3832 -0.1442
17461TIP3    H173798   6.195   2.403  10.471  0.8591  1.2987  0.7465
17461TIP3    H273799   6.106   2.453  10.583  0.9869 -0.7159  1.7939
17462TIP3   OH273800   5.411   5.154   5.933  0.4737  0.2465 -0.1756
17462TIP3    H173801   5.366   5.202   6.002  1.0499  1.4110 -0.5858
17462TIP3    H273802   5.493   5.124   5.973 -0.4507 -1.5836  0.4700
17463TIP3   OH273803   6.216   5.013   3.306 -0.3670 -0.8612 -0.1000
17463TIP3    H173804   6.264   4.940   3.267  0.2218  0.8867 -2.9358
17463TIP3    H273805   6.284   5.071   3.341 -0.6715 -0.3878 -0.2865
17464TIP3   OH273806   2.151   5.565  13.942  0.4869  0.3805  0.5075
17464TIP3    H173807   2.170   5.634  13.879 -0.0297  0.1372  0.0786
17464TIP3    H273808   2.206   5.491  13.915  1.2751  0.7132  1.1517
17465TIP3   OH273809   1.026   2.022  15.313  0.4553 -0.2816  0.0487
17465TIP3    H173810   0.963   1.982  15.373  0.1847 -0.7263 -0.5204
17465TIP3    H273811   1.106   1.971  15.325  0.6243  0.1029  0.5669
17466TIP3   OH273812   1.158   5.813   2.843  0.3038 -0.3329 -0.4586
17466TIP3    H173813   1.102   5.741   2.872  0.2532  0.6892  2.3588
17466TIP3    H273814   1.199   5.782   2.762 -0.6765 -2.9765 -0.0291
17467TIP3   OH273815   6.699   2.272  12.240  0.8643  0.1150 -0.2722
17467TIP3    H173816   6.616   2.233  12.212  1.4259 -1.4975  0.2456
17467TIP3    H273817   6.732   2.315  12.161 -0.9069  1.6647 -0.2523
17468TIP3   OH273818   2.700   1.409  15.899  0.5776  0.0914 -0.0938
17468TIP3    H173819   2.732   1.336  15.952 -0.0736  0.4035  0.7583
17468TIP3    H273820   2.611   1.426  15.932  0.4353  0.7778 -0.7879
17469TIP3   OH273821   0.098   0.915  14.945  0.1415 -0.1368  0.4880
17469TIP3    H173822   0.027   0.918  15.008  0.0221  0.4383  0.3289
17469TIP3    H273823   0.057   0.929  14.860  0.0880 -2.4150  0.0811
17470TIP3   OH273824   2.075   0.840   5.120  0.4255 -0.0971  0.1490
17470TIP3    H173825   2.150   0.785   5.142  2.2468  2.1925  0.0919
17470TIP3    H273826   2.076   0.910   5.186 -1.3585  0.2818 -0.1621
17471TIP3   OH273827   5.359   0.790   1.234  0.5839 -0.2854  0.4669
17471TIP3    H173828   5.369   0.740   1.153 -0.0387 -1.4647  1.0834
17471TIP3    H273829   5.330   0.725   1.298 -0.1559  0.8655  1.3320
17472TIP3   OH273830   0.999   0.442  14.638  0.2970 -0.1162  0.1112
17472TIP3    H173831   0.997   0.411  14.547  1.5038 -0.0537  0.0391
17472TIP3    H273832   0.912   0.478  14.653  0.3871  0.8412 -1.3844
17473TIP3   OH273833   3.487   3.123  11.643 -0.0508  0.1427  0.2149
17473TIP3    H173834   3.444   3.203  11.611  0.3217 -0.2539 -1.3515
17473TIP3    H273835   3.580   3.144  11.644 -0.1258  0.7421  2.8779
17474TIP3   OH273836   6.164   0.105   0.067 -0.0334 -0.5059 -0.0927
17474TIP3    H173837   6.219   0.043   0.018  1.8778  0.2500  0.9821
17474TIP3    H273838   6.095   0.130   0.006  0.5643 -1.8268 -1.3657
17475TIP3   OH273839   3.295   0.606  12.236  0.1544  0.0284  0.2032
17475TIP3    H173840   3.309   0.572  12.147 -1.3773  1.1298 -0.5016
17475TIP3    H273841   3.201   0.617  12.242  0.1545 -0.7478  2.2764
17476TIP3   OH273842   0.963   0.672   2.055 -0.1608 -0.0927  0.1050
17476TIP3    H173843   0.927   0.760   2.054 -0.9057 -0.3670  1.0530
17476TIP3    H273844   1.023   0.669   1.981 -0.8669  0.9033 -0.5246
17477TIP3   OH273845   0.827   6.442  15.281 -0.0763 -0.7119 -0.0830
17477TIP3    H173846   0.907   6.484  15.313  0.1232 -1.7105  0.7619
17477TIP3    H273847   0.852   6.405  15.197  0.4863 -1.4200  0.3906
17478TIP3   OH273848   1.195   2.421   3.084  0.3074  0.4370 -0.4105
17478TIP3    H173849   1.253   2.349   3.059  0.6326  0.3221  0.6108
17478TIP3    H273850   1.116   2.378   3.115 -0.5837  0.6044 -2.3114
17479TIP3   OH273851   6.527   3.402   1.920  0.4984  0.7921 -0.1157
17479TIP3    H173852   6.522   3.436   2.010 -1.7715  0.2005  0.0507
17479TIP3    H273853   6.447   3.435   1.879 -0.3655 -1.9432 -0.8021
17480TIP3   OH273854   5.829   1.669  15.130 -0.3284 -0.3790  0.5230
17480TIP3    H173855   5.786   1.595  15.086  0.1444 -0.7955  0.7558
17480TIP3    H273856   5.757   1.715  15.173 -0.4745 -1.4741  1.5002
17481TIP3   OH273857   1.386   0.201   3.944  0.1039  0.2432  0.1616
17481TIP3    H173858   1.394   0.273   4.006  0.9590  0.4122 -0.1468
17481TIP3    H273859   1.460   0.210   3.885  0.1283 -0.7849  0.0095
17482TIP3   OH273860   3.727   1.346   1.476 -0.6669 -0.5983  0.0835
17482TIP3    H173861   3.782   1.292   1.533  0.0631 -2.2609 -2.0414
17482TIP3    H273862   3.640   1.306   1.482 -0.4978 -1.0233 -0.2549
17483TIP3   OH273863   6.075   3.910   4.174 -0.0250  0.1341  0.1819
17483TIP3    H173864   6.121   3.863   4.244 -0.5888 -0.4097  0.2061
17483TIP3    H273865   6.094   4.002   4.190  0.1765 -0.0107  0.8181
17484TIP3   OH273866   1.755   2.918  13.696 -0.7357  0.4254  0.3291
17484TIP3    H173867   1.781   2.827  13.713 -1.2900  0.1652 -0.1678
17484TIP3    H273868   1.717   2.948  13.778 -2.5679 -0.5193 -0.1230
17485TIP3   OH273869   5.307   2.673   2.916  0.2388 -0.2391 -0.1042
17485TIP3    H173870   5.372   2.734   2.881  0.8918 -1.1368 -0.5320
17485TIP3    H273871   5.284   2.708   3.002  1.8951 -0.2993  0.4005
17486TIP3   OH273872   2.305   5.023   1.464 -0.8749 -0.5620 -0.4689
17486TIP3    H173873   2.311   4.991   1.554  3.3634 -2.5737 -1.2128
17486TIP3    H273874   2.385   5.075   1.452 -2.0776  0.9272 -2.6778
17487TIP3   OH273875   1.962   4.855  16.539 -0.0250 -0.4001 -0.2248
17487TIP3    H173876   2.016   4.920  16.494  0.6406 -0.2818  0.7082
17487TIP3    H273877   2.007   4.841  16.623 -0.9704 -0.9533  0.2053
17488TIP3   OH273878   4.739   3.801  15.390  0.2834  0.1550 -0.0398
17488TIP3    H173879   4.705   3.712  15.383 -0.7259  0.1560  3.3195
17488TIP3    H273880   4.821   3.792  15.437 -0.0566  1.0230  0.7529
17489TIP3   OH273881   0.016   4.027   5.820  0.6284 -0.0117 -0.1983
17489TIP3    H173882   0.015   3.992   5.909  0.4300 -1.4941 -0.7604
17489TIP3    H273883  -0.066   3.996   5.781  0.8410  0.3862 -0.9803
17490TIP3   OH273884   0.456   4.169  11.303  0.7240 -0.2771  0.2206
17490TIP3    H173885   0.477   4.094  11.247 -1.6079  1.0942 -2.8092
17490TIP3    H273886   0.371   4.147  11.341  0.3281  0.5225 -0.1756
17491TIP3   OH273887   1.029   3.082  14.870 -0.1341 -0.6364 -0.2370
17491TIP3    H173888   1.071   2.999  14.893  1.0808 -0.1818 -0.7457
17491TIP3    H273889   0.936   3.060  14.862  0.1084 -1.8518  0.0813
17492TIP3   OH273890   1.980   0.964   4.135  0.0117  0.4447 -0.1475
17492TIP3    H173891   2.074   0.972   4.117  0.0018  0.1423 -0.3418
17492TIP3    H273892   1.939   1.024   4.074  0.2080  2.4895  1.5862
17493TIP3   OH273893   4.056   1.057   5.036 -0.1555 -0.1600  0.8075
17493TIP3    H173894   4.068   1.000   5.112 -0.4677  0.7700  1.5774
17493TIP3    H273895   4.142   1.097   5.022 -0.3194  0.3974  1.2995
17494TIP3   OH273896   4.630   4.479   2.122  0.2187  0.7759  0.0098
17494TIP3    H173897   4.602   4.396   2.161  0.4609 -0.5630 -2.4636
17494TIP3    H273898   4.566   4.496   2.053  2.4500  0.3845 -2.2848
17495TIP3   OH273899   5.387   6.173   0.123 -0.0818  0.3106 -0.2642
17495TIP3    H173900   5.404   6.117   0.047 -1.7167 -0.5250 -0.0717
17495TIP3    H273901   5.301   6.211   0.105 -0.1970  0.6121  0.8691
17496TIP3   OH273902   6.079   3.232  13.348 -0.7454  0.6527 -0.0992
17496TIP3    H173903   6.145   3.173  13.384 -1.5820 -0.7309 -0.7945
17496TIP3    H273904   6.130   3.307  13.317  0.2532  0.6739  1.4622
17497TIP3   OH273905   1.726   0.855  10.586 -0.3503 -0.2432 -0.6600
17497TIP3    H173906   1.672   0.893  10.517 -1.6013 -0.5278  0.1250
17497TIP3    H273907   1.765   0.930  10.631  1.0795 -0.0738 -2.1039
17498TIP3   OH273908   4.733   5.717  12.065  0.0950  0.4269 -0.1596
17498TIP3    H173909   4.794   5.790  12.081 -1.0632  1.4436 -0.2054
17498TIP3    H273910   4.667   5.754  12.006 -1.9945  0.1853  1.8665
17499TIP3   OH273911   0.404   1.864  11.328 -0.1122  0.0959 -0.6214
17499TIP3    H173912   0.384   1.955  11.349 -1.5544  0.0690 -1.7332
17499TIP3    H273913   0.348   1.813  11.386  0.9676 -0.1120  0.2647
17500TIP3   OH273914   3.723   1.799  14.545 -0.6872 -0.0215 -0.7327
17500TIP3    H173915   3.740   1.724  14.601 -2.1799  0.4129  0.3672
17500TIP3    H273916   3.803   1.809  14.494  0.3809 -1.0078  0.6545
17501TIP3   OH273917   3.274   2.443   6.121  0.1218 -0.0992 -0.2208
17501TIP3    H173918   3.199   2.393   6.087 -0.6417  0.1936  0.9842
17501TIP3    H273919   3.240   2.531   6.135  1.1445  0.4766 -1.1848
17502TIP3   OH273920   6.385   6.139   4.661 -0.4064 -0.4936  0.1238
17502TIP3    H173921   6.408   6.079   4.732  0.1817 -1.6612 -1.0000
17502TIP3    H273922   6.435   6.106   4.586 -0.2008  1.3142 -0.5833
17503TIP3   OH273923   2.369   1.689  14.404  0.0921 -0.3615  0.4318
17503TIP3    H173924   2.306   1.745  14.359  0.1749  0.0630  0.8474
17503TIP3    H273925   2.423   1.653  14.333 -0.2499 -0.2776  0.1264
17504TIP3   OH273926   4.066   6.335   5.457 -0.5899  0.1634  0.5222
17504TIP3    H173927   4.128   6.313   5.526 -0.4850 -1.3321 -0.0172
17504TIP3    H273928   3.995   6.381   5.502  1.4026  3.0793  0.9986
17505TIP3   OH273929   3.612   1.723  13.849  0.6677 -0.4843  0.0293
17505TIP3    H173930   3.541   1.775  13.886  1.4941  0.6655  0.0492
17505TIP3    H273931   3.691   1.774  13.866  1.3246 -0.9633 -1.4049
17506TIP3   OH273932   5.164   6.453   1.493  0.0633  0.0840 -0.0671
17506TIP3    H173933   5.171   6.385   1.426  0.4836  1.2627 -1.2805
17506TIP3    H273934   5.241   6.508   1.480 -0.7422  1.3409  0.2074
17507TIP3   OH273935   6.421   4.017   1.006  0.7166  0.0371  1.2290
17507TIP3    H173936   6.484   3.992   0.938 -0.7359 -1.5263  0.3862
17507TIP3    H273937   6.475   4.050   1.078  2.3982  0.0213  0.0262
17508TIP3   OH273938   4.470   1.589   5.416  0.0771  0.2332 -0.4851
17508TIP3    H173939   4.485   1.503   5.376 -1.4384  0.2557 -1.1666
17508TIP3    H273940   4.539   1.645   5.381  0.6374 -0.5193 -0.6045
17509TIP3   OH273941   5.485   5.265  14.491 -0.3698 -0.5532 -0.0612
17509TIP3    H173942   5.405   5.234  14.449 -0.7649 -1.3203  1.1811
17509TIP3    H273943   5.457   5.342  14.541 -0.2051 -0.4686 -0.0987
17510TIP3   OH273944   1.131   2.941   1.112  0.0140  0.1835  0.0251
17510TIP3    H173945   1.067   2.878   1.144 -0.1120  0.5272  0.4616
17510TIP3    H273946   1.189   2.956   1.187  1.7414 -1.5159 -0.8746
17511TIP3   OH273947   0.876   0.895   2.574  0.5540 -0.3643  0.1450
17511TIP3    H173948   0.831   0.922   2.494  1.3242 -0.2108 -0.2412
17511TIP3    H273949   0.969   0.909   2.556  0.6766  0.9825  1.5357
17512TIP3   OH273950   6.610   0.503   0.958  0.5968  0.0597 -0.2637
17512TIP3    H173951   6.647   0.488   0.871 -0.4788 -3.4801 -0.2540
17512TIP3    H273952   6.516   0.515   0.943  0.1068 -2.3724  0.4255
17513TIP3   OH273953   1.081   2.783   2.455 -0.4354 -0.0765  0.0278
17513TIP3    H173954   1.168   2.745   2.457 -0.6331 -0.6395 -1.3810
17513TIP3    H273955   1.076   2.836   2.535  1.7089  1.1372 -0.5868
17514TIP3   OH273956   0.085   4.680   5.174 -0.9236  0.2441 -0.5317
17514TIP3    H173957   0.025   4.615   5.212 -0.1172 -0.8254 -1.0314
17514TIP3    H273958   0.045   4.765   5.194 -1.9492 -0.4019  0.2320
17515TIP3   OH273959   4.281   4.833   2.041 -0.0522 -0.1836 -0.3759
17515TIP3    H173960   4.356   4.867   1.992 -0.7356  1.5674 -0.2705
17515TIP3    H273961   4.292   4.869   2.129 -0.4693 -0.7780 -0.0776
17516TIP3   OH273962   3.370   4.233   0.941  0.5969  0.2245 -0.3002
17516TIP3    H173963   3.367   4.320   0.982  0.0239 -0.3404  0.9103
17516TIP3    H273964   3.317   4.243   0.862  0.2539  0.8987  0.0003
17517TIP3   OH273965   3.678   3.643  15.420 -0.1116  0.1201 -0.6082
17517TIP3    H173966   3.681   3.660  15.325 -0.9365  1.4595 -0.4299
17517TIP3    H273967   3.749   3.695  15.456  0.1307 -0.3012 -0.4759
17518TIP3   OH273968   0.783   6.319   2.956  0.2359  0.1316  0.0818
17518TIP3    H173969   0.692   6.346   2.941 -0.2733 -0.7487  1.4095
17518TIP3    H273970   0.796   6.242   2.901 -0.3491 -0.6926  1.0643
17519TIP3   OH273971   4.854   4.642  16.586 -0.4003 -0.4197  0.5561
17519TIP3    H173972   4.795   4.662  16.513 -1.0628 -1.0053  0.9308
17519TIP3    H273973   4.878   4.728  16.621 -0.9154 -0.1735  0.3110
17520TIP3   OH273974   2.747   1.677   2.966  0.6968 -0.5410 -0.3279
17520TIP3    H173975   2.679   1.708   2.908  0.4850 -0.2314  0.0795
17520TIP3    H273976   2.748   1.582   2.955  0.8459 -0.4597 -1.0319
17521TIP3   OH273977   5.056   1.324   4.002  0.5713  0.6384 -0.0732
17521TIP3    H173978   5.013   1.407   3.983  1.7627  0.9132 -1.9253
17521TIP3    H273979   5.142   1.348   4.034  1.5370  0.2206 -2.1420
17522TIP3   OH273980   1.787   2.515   4.493  0.7566  0.1082  0.2527
17522TIP3    H173981   1.822   2.551   4.411  0.8820  0.9778  0.6697
17522TIP3    H273982   1.698   2.487   4.471  1.5694 -1.8442 -0.7406
17523TIP3   OH273983   1.101   2.331   5.091  0.0893  0.7213  0.1214
17523TIP3    H173984   1.053   2.369   5.165  0.4654 -1.0480  1.3366
17523TIP3    H273985   1.037   2.276   5.047  0.7777 -1.2194  1.4272
17524TIP3   OH273986   2.002   0.155  12.244 -0.1879 -0.8784 -0.0545
17524TIP3    H173987   2.017   0.230  12.301  0.0742  0.1298 -1.3974
17524TIP3    H273988   2.039   0.081  12.291 -0.7740 -0.2428  1.4695
17525TIP3   OH273989   3.318   3.253  17.211  0.4972 -0.0791 -0.1505
17525TIP3    H173990   3.405   3.293  17.218  0.4708 -0.2388  1.5403
17525TIP3    H273991   3.257   3.325  17.227  0.4412 -0.6179  2.4755
17526TIP3   OH273992   5.643   2.263  12.200 -0.3879  0.2818 -0.3113
17526TIP3    H173993   5.736   2.245  12.215 -0.0590  1.8592 -0.2427
17526TIP3    H273994   5.616   2.198  12.135  0.6904 -0.3802 -0.1191
17527TIP3   OH273995   5.979   4.445   1.008 -0.0705  0.5367  0.5657
17527TIP3    H173996   5.900   4.485   0.972 -0.1110 -0.1681 -0.1556
17527TIP3    H273997   6.050   4.483   0.957  0.2558  2.5039  2.3677
17528TIP3   OH273998   3.204   3.497   2.584 -0.0101 -0.5434 -0.1530
17528TIP3    H173999   3.266   3.467   2.517  1.7964  0.1955  1.1150
17528TIP3    H274000   3.256   3.552   2.642 -1.9921  0.5256  0.7176
17529TIP3   OH274001   0.103   0.831  12.646 -0.4635 -0.2794  0.4261
17529TIP3    H174002   0.128   0.851  12.737  0.5781  0.7482 -0.0607
17529TIP3    H274003   0.186   0.825  12.599 -0.9226 -2.2799 -0.1962
17530TIP3   OH274004   2.044   3.717   1.033  0.0152  0.0784  0.0043
17530TIP3    H174005   2.024   3.683   1.120  1.9186 -0.8694  0.1426
17530TIP3    H274006   2.013   3.807   1.035 -3.0858 -0.8739  0.4406
17531TIP3   OH274007   1.491   2.903   3.345 -0.2122  0.5403  0.4652
17531TIP3    H174008   1.402   2.898   3.378  0.4014  0.0214  2.1887
17531TIP3    H274009   1.484   2.949   3.261 -2.1543 -0.1593  0.2066
17532TIP3   OH274010   1.441   1.998  14.854 -0.4442 -0.2785  0.0623
17532TIP3    H174011   1.484   1.953  14.782 -2.0653 -0.8233 -0.6205
17532TIP3    H274012   1.512   2.021  14.914  1.0152  0.5965 -1.8833
17533TIP3   OH274013   1.331   4.966  16.533  0.1398  0.3769  0.0761
17533TIP3    H174014   1.389   4.902  16.572 -0.6754 -0.5170 -0.1327
17533TIP3    H274015   1.378   5.049  16.539  0.8599 -0.0940  1.1074
17534TIP3   OH274016   5.858   3.570  13.808  0.5878  0.1616  0.1267
17534TIP3    H174017   5.764   3.569  13.822  0.7386  0.2492  1.2511
17534TIP3    H274018   5.873   3.507  13.737 -0.2019 -0.6069  0.6290
17535TIP3   OH274019   4.299   2.415  16.705  0.0768  0.3583  0.0871
17535TIP3    H174020   4.220   2.469  16.716 -0.3369 -0.4001  0.9799
17535TIP3    H274021   4.266   2.329  16.678  0.6721  0.2919 -0.4527
17536TIP3   OH274022   5.221   0.240   3.976 -0.0622 -0.1110  0.4755
17536TIP3    H174023   5.220   0.244   4.072  1.5468 -3.1725  0.7276
17536TIP3    H274024   5.311   0.261   3.952 -0.4475  0.5847 -0.3983
17537TIP3   OH274025   6.386   2.993   4.391  0.1272 -0.0256  0.1120
17537TIP3    H174026   6.459   2.949   4.347 -0.2796  0.3441 -0.9701
17537TIP3    H274027   6.318   2.927   4.397  0.3059 -0.1738  0.4892
17538TIP3   OH274028   0.130   4.310  16.541 -0.4446  0.4715 -0.0956
17538TIP3    H174029   0.170   4.259  16.611 -1.3639  1.2021  1.0027
17538TIP3    H274030   0.098   4.245  16.478 -0.6805 -0.2535  0.7596
17539TIP3   OH274031   2.118   6.457  15.197  0.2856  0.3097 -0.5419
17539TIP3    H174032   2.170   6.512  15.138  0.6247  1.2841  0.6144
17539TIP3    H274033   2.114   6.507  15.278  1.2005 -1.6787  0.8181
17540TIP3   OH274034   5.569   6.208  11.539  0.5276  0.3519  0.0755
17540TIP3    H174035   5.538   6.154  11.466 -1.3606  0.6198  0.6295
17540TIP3    H274036   5.599   6.144  11.604  2.9170  0.1225 -1.1555
17541TIP3   OH274037   6.360   1.129  12.744  0.5059 -0.2742  0.9270
17541TIP3    H174038   6.396   1.218  12.753 -0.4390  0.1654  0.5006
17541TIP3    H274039   6.407   1.092  12.669 -0.6895  0.7117 -0.3599
17542TIP3   OH274040   4.574   1.413   3.611  0.0176  0.4447  0.0901
17542TIP3    H174041   4.541   1.485   3.558 -1.1203  0.7034  1.1075
17542TIP3    H274042   4.506   1.345   3.603  0.8508 -0.3478 -0.4764
17543TIP3   OH274043   3.437   0.362   1.002 -0.2531  0.0924 -0.3827
17543TIP3    H174044   3.493   0.324   0.935  0.8009  0.7824  0.0747
17543TIP3    H274045   3.496   0.379   1.076 -1.4127 -0.8200  0.8016
17544TIP3   OH274046   1.829   1.641   3.452 -0.0496  0.3724  0.1991
17544TIP3    H174047   1.879   1.571   3.495  1.7285  0.8565 -0.9525
17544TIP3    H274048   1.864   1.722   3.490 -0.3170  0.7193 -0.2841
17545TIP3   OH274049   1.402   0.338   0.045 -0.5186 -0.0845 -0.2284
17545TIP3    H174050   1.418   0.255   0.000 -1.6322 -0.5598  0.2142
17545TIP3    H274051   1.325   0.375   0.002  0.3792  1.0936 -0.8988
17546TIP3   OH274052   6.540   5.842  15.948  0.1294 -0.3598  0.3272
17546TIP3    H174053   6.562   5.755  15.913 -1.3601 -0.6834  0.1021
17546TIP3    H274054   6.466   5.825  16.006 -2.8980  1.1878 -2.7592
17547TIP3   OH274055   6.120   6.297  12.520 -0.1512  0.0207  0.3910
17547TIP3    H174056   6.076   6.240  12.581 -2.2453 -0.5150 -1.5072
17547TIP3    H274057   6.063   6.373  12.512  0.9215  0.8540  0.3238
17548TIP3   OH274058   5.662   4.578   1.712 -0.1231  0.1763  0.2552
17548TIP3    H174059   5.678   4.595   1.805  0.8432  0.0146  0.1359
17548TIP3    H274060   5.570   4.552   1.707 -0.1076 -0.0953  1.2058
17549TIP3   OH274061   6.356   6.736  11.590  0.4633  0.0280 -0.0917
17549TIP3    H174062   6.346   6.806  11.525  0.2104  1.5630  1.5412
17549TIP3    H274063   6.334   6.777  11.674  0.3105 -2.0168  0.9314
17550TIP3   OH274064   0.263   0.847   0.285 -0.5821  0.1641 -0.0425
17550TIP3    H174065   0.177   0.875   0.317 -0.4835 -0.8538  1.1752
17550TIP3    H274066   0.251   0.756   0.258  0.3133 -0.2886  1.0173
17551TIP3   OH274067   4.141   0.581  15.807 -0.0931 -0.1861 -0.9120
17551TIP3    H174068   4.191   0.552  15.884  1.7343 -0.0486 -1.9958
17551TIP3    H274069   4.083   0.650  15.841  0.7037 -0.0951  0.3413
17552TIP3   OH274070   5.992   5.045   0.895 -0.3117 -0.3937 -0.3633
17552TIP3    H174071   6.052   4.973   0.878 -0.0154 -0.0979 -0.5684
17552TIP3    H274072   6.044   5.110   0.941 -0.1396  0.4009 -1.6490
17553TIP3   OH274073   4.233   4.826  17.367 -0.1791 -0.2815 -0.3185
17553TIP3    H174074   4.228   4.784  17.281  2.3255 -1.2503 -0.0720
17553TIP3    H274075   4.315   4.795  17.404  0.8486  3.3011  0.7590
17554TIP3   OH274076   0.970   2.841  14.528 -0.0331  0.1837 -0.8448
17554TIP3    H174077   1.062   2.847  14.553 -0.3334  0.9165  0.1114
17554TIP3    H274078   0.958   2.911  14.464 -0.8120  2.7878  1.9231
17555TIP3   OH274079   2.881   5.523   2.102 -0.2981  0.0491  0.3128
17555TIP3    H174080   2.839   5.440   2.083 -1.1959  0.6123 -0.2387
17555TIP3    H274081   2.816   5.571   2.153 -0.6047  1.1781 -1.0761
17556TIP3   OH274082   1.773   5.634   0.187 -0.0952 -0.5851 -0.4847
17556TIP3    H174083   1.711   5.575   0.229 -0.1875  0.9456  1.7084
17556TIP3    H274084   1.727   5.669   0.111 -1.2842 -0.7550  0.1431
17557TIP3   OH274085   3.399   0.015   3.444  0.0922  0.0776  0.4582
17557TIP3    H174086   3.408  -0.069   3.397  0.3548 -0.7926  2.0132
17557TIP3    H274087   3.327   0.000   3.506  1.0599  0.5331  1.7145
17558TIP3   OH274088   6.458   3.208   1.721 -0.2995  0.2408  0.3200
17558TIP3    H174089   6.429   3.119   1.741 -0.3769 -0.0835 -1.1258
17558TIP3    H274090   6.472   3.249   1.806 -2.5922 -0.3885  1.0633
17559TIP3   OH274091   4.273   2.039  10.738  0.1557 -0.2635  0.0268
17559TIP3    H174092   4.195   2.086  10.708  0.2242 -0.1530  0.0225
17559TIP3    H274093   4.328   2.031  10.660 -0.1623 -0.9565 -0.1274
17560TIP3   OH274094   4.563   4.219   1.644  0.8592  0.1165 -0.2236
17560TIP3    H174095   4.529   4.272   1.572  2.8795  2.1990  0.2084
17560TIP3    H274096   4.605   4.144   1.602 -1.5325 -0.9412 -0.8958
17561TIP3   OH274097   4.795   2.331  10.991  0.1158 -0.0471 -0.2760
17561TIP3    H174098   4.871   2.274  11.003 -2.0674 -3.5052 -1.4433
17561TIP3    H274099   4.828   2.405  10.940  2.8048 -1.0588 -0.1244
17562TIP3   OH274100   1.779   3.769  14.642  0.7497  1.0525  0.0825
17562TIP3    H174101   1.847   3.743  14.579  2.3923  2.7668  1.0674
17562TIP3    H274102   1.826   3.784  14.724 -1.3192 -1.0265  1.7859
17563TIP3   OH274103   1.349   0.926   6.627  0.3974 -0.2326 -0.3544
17563TIP3    H174104   1.344   1.021   6.612 -1.0342 -0.4246 -1.2861
17563TIP3    H274105   1.434   0.913   6.669  0.6619  1.4518 -0.2904
17564TIP3   OH274106   1.997   4.189  11.706  0.4736  0.0732 -0.0307
17564TIP3    H174107   1.981   4.095  11.719  2.0727 -0.1195  0.8240
17564TIP3    H274108   1.969   4.230  11.787  0.2890  0.2715 -0.1925
17565TIP3   OH274109   4.500   4.473  12.089 -0.2453 -0.2516 -0.3440
17565TIP3    H174110   4.523   4.515  12.006  0.8590 -0.8627 -0.3665
17565TIP3    H274111   4.457   4.542  12.139 -2.1333 -0.2290 -1.8909
17566TIP3   OH274112   5.390   6.137  13.555 -0.4192  0.4406  0.0337
17566TIP3    H174113   5.390   6.185  13.472 -1.9837 -0.9883 -0.8408
17566TIP3    H274114   5.450   6.064  13.541 -1.4967 -0.4057 -0.2239
17567TIP3   OH274115   0.800   4.360   2.115 -0.7342 -0.3967  0.5061
17567TIP3    H174116   0.708   4.376   2.095 -0.5319  0.4348  0.2147
17567TIP3    H274117   0.816   4.271   2.083 -1.6406 -0.8554  1.2970
17568TIP3   OH274118   3.116   6.074  16.707 -0.3719  0.4403  0.3354
17568TIP3    H174119   3.208   6.095  16.692 -0.4432  2.1550  2.0339
17568TIP3    H274120   3.093   6.015  16.634  2.0655 -0.1338 -0.0473
17569TIP3   OH274121   1.151   0.440  17.393 -0.3264 -0.5420 -0.2799
17569TIP3    H174122   1.089   0.369  17.401  1.0669 -2.2479 -3.0556
17569TIP3    H274123   1.099   0.515  17.365 -1.5305 -1.0146  0.6233
17570TIP3   OH274124   5.515   3.485  15.623 -0.5746  0.4235  0.2276
17570TIP3    H174125   5.512   3.425  15.550 -1.9051 -0.8753  1.3004
17570TIP3    H274126   5.446   3.456  15.682  0.4798  1.3702  2.0434
17571TIP3   OH274127   3.999   4.586   3.322  0.3069 -0.1715 -0.1752
17571TIP3    H174128   3.953   4.670   3.318 -0.3943 -0.5888 -1.5626
17571TIP3    H274129   3.930   4.520   3.324  0.8333 -0.7573 -0.7740
17572TIP3   OH274130   0.062   5.729   4.854 -0.5159 -0.0089 -0.0055
17572TIP3    H174131  -0.025   5.704   4.885 -1.2712 -0.4039 -2.2651
17572TIP3    H274132   0.121   5.664   4.894 -1.8840 -2.7955 -2.1601
17573TIP3   OH274133   0.440   5.369  12.802 -0.0603 -0.1609  0.3810
17573TIP3    H174134   0.370   5.339  12.744  0.3224  0.7708 -0.5896
17573TIP3    H274135   0.396   5.384  12.886 -0.6765 -1.2595  0.2802
17574TIP3   OH274136   0.694   0.078   2.922  0.8949 -0.1627 -1.0384
17574TIP3    H174137   0.771   0.136   2.919  1.2225 -0.5214  0.0658
17574TIP3    H274138   0.668   0.078   3.014 -0.1379 -0.4414 -1.3210
17575TIP3   OH274139   2.392   6.010  12.285 -0.6196 -0.3148 -0.1309
17575TIP3    H174140   2.474   5.996  12.331 -0.7689  0.6885  0.4663
17575TIP3    H274141   2.411   5.986  12.194  0.4938  0.4744 -0.1179
17576TIP3   OH274142   6.123   5.020  13.606  0.6967 -0.9522 -0.0912
17576TIP3    H174143   6.152   5.015  13.515 -1.9425  0.0254 -1.0908
17576TIP3    H274144   6.052   5.084  13.605  1.6162  0.2988  2.9779
17577TIP3   OH274145   2.711   4.495   3.908 -0.5559 -0.7635 -0.2981
17577TIP3    H174146   2.768   4.561   3.869  0.8946 -1.4238  0.6169
17577TIP3    H274147   2.728   4.502   4.002 -0.9256 -1.9389 -0.1311
17578TIP3   OH274148   5.212   3.078  16.469 -0.2464  0.1513 -0.4397
17578TIP3    H174149   5.150   3.148  16.448 -1.8106 -1.7211 -2.4911
17578TIP3    H274150   5.241   3.045  16.384  2.9516  0.3336  0.4623
17579TIP3   OH274151   4.136   0.595  12.870 -0.0201  0.0375 -0.3283
17579TIP3    H174152   4.180   0.680  12.868  0.2451 -0.1085 -0.9015
17579TIP3    H274153   4.050   0.611  12.829 -0.1824  0.1471  0.0560
17580TIP3   OH274154   4.505   1.122  15.753  0.0731 -0.1882 -0.0319
17580TIP3    H174155   4.496   1.075  15.670 -0.5793 -1.6422  0.8230
17580TIP3    H274156   4.536   1.209  15.728 -0.3352 -0.5129 -1.8164
17581TIP3   OH274157   6.276   0.460   5.658 -0.5206  0.0802  0.0518
17581TIP3    H174158   6.191   0.415   5.653 -0.0799 -1.1808  2.3323
17581TIP3    H274159   6.334   0.397   5.700  0.8812  1.8261  0.8852
17582TIP3   OH274160   1.096   2.519  14.519 -0.8168  0.1989 -0.5224
17582TIP3    H174161   1.059   2.432  14.504 -1.0458  0.0291  0.8798
17582TIP3    H274162   1.029   2.579  14.486 -0.9983 -0.1400 -0.7874
17583TIP3   OH274163   5.810   4.954   3.382  0.0170 -0.0723  0.3718
17583TIP3    H174164   5.759   4.931   3.459 -0.1252 -0.0957  0.2697
17583TIP3    H274165   5.866   4.878   3.366 -0.8182 -0.5691 -0.2746
17584TIP3   OH274166   3.985   5.383  15.651 -0.1552  0.7836 -0.3087
17584TIP3    H174167   3.900   5.423  15.668 -0.3075  0.4015 -0.1519
17584TIP3    H274168   3.974   5.292  15.679 -0.0697  0.4237 -1.4063
17585TIP3   OH274169   5.250   5.666  12.419  0.3987  0.0558 -0.2711
17585TIP3    H174170   5.334   5.635  12.386  0.2387 -0.4495 -0.2079
17585TIP3    H274171   5.198   5.682  12.341  0.3121 -0.3151 -0.2903
17586TIP3   OH274172   4.389   4.666  16.941  0.3647 -0.2545  0.5237
17586TIP3    H174173   4.343   4.727  16.998  0.4924 -0.3337  0.7143
17586TIP3    H274174   4.475   4.706  16.928  0.0228  0.2171 -0.3691
17587TIP3   OH274175   1.790   1.336  16.791  0.2539 -1.0727  0.7284
17587TIP3    H174176   1.807   1.430  16.783  1.2906 -1.3280 -0.4442
17587TIP3    H274177   1.877   1.296  16.792 -0.1285 -1.9680  2.4293
17588TIP3   OH274178   1.359   6.283   5.067 -0.2781  0.1062 -0.5530
17588TIP3    H174179   1.430   6.346   5.051 -0.1050  0.4093  1.1725
17588TIP3    H274180   1.376   6.212   5.005  0.1551  1.2574 -1.7900
17589TIP3   OH274181   0.774   3.509  14.459  0.0437  0.1273 -0.4918
17589TIP3    H174182   0.735   3.489  14.374 -0.2523  0.7492 -0.5028
17589TIP3    H274183   0.740   3.441  14.517  0.1655 -0.2400 -0.8374
17590TIP3   OH274184   4.696   1.984  17.180 -0.4205  0.2652 -0.0417
17590TIP3    H174185   4.695   1.904  17.126 -1.1469 -0.9170  1.6334
17590TIP3    H274186   4.688   1.952  17.270  2.8376  2.0169  1.0307
17591TIP3   OH274187   6.750   3.003  11.858 -0.5335  0.1863 -0.2216
17591TIP3    H174188   6.737   3.054  11.937 -1.3280 -0.4856  0.1006
17591TIP3    H274189   6.678   3.030  11.800 -2.7110 -2.4673  0.9962
17592TIP3   OH274190   0.116   6.041  14.071  0.7428 -0.4225  0.1494
17592TIP3    H174191   0.196   6.073  14.030  0.2558  0.9372  0.2373
17592TIP3    H274192   0.065   6.119  14.092 -0.3054 -1.2234  0.7409
17593TIP3   OH274193   5.195   0.739  11.783 -0.1746  0.0859  0.2507
17593TIP3    H174194   5.114   0.712  11.825 -1.2167  0.9852 -1.0929
17593TIP3    H274195   5.187   0.834  11.772  0.5464  0.0433 -0.9059
17594TIP3   OH274196   3.802   4.840   3.577  0.0547 -0.0992 -0.1340
17594TIP3    H174197   3.828   4.834   3.485  1.2857  1.7684  0.0347
17594TIP3    H274198   3.706   4.835   3.575  0.1356 -2.3553 -1.2571
17595TIP3   OH274199   1.751   3.532  16.838 -0.2561  0.1098 -0.1396
17595TIP3    H174200   1.701   3.463  16.881 -0.3437 -0.0561 -0.4984
17595TIP3    H274201   1.819   3.557  16.901 -1.3234  0.9566  0.7181
17596TIP3   OH274202   0.652   4.185   2.536 -0.0819  0.4527  0.6740
17596TIP3    H174203   0.603   4.264   2.559 -3.4848 -1.4591  0.7421
17596TIP3    H274204   0.630   4.123   2.606  0.0266 -1.4294 -0.8904
17597TIP3   OH274205   5.469   0.982  11.959 -0.0680 -0.1203 -0.8223
17597TIP3    H174206   5.523   0.907  11.936 -0.4043 -0.8032  0.5094
17597TIP3    H274207   5.505   1.013  12.042 -0.6571  0.4786 -0.7804
17598TIP3   OH274208   5.675   3.705   4.937 -0.2054  0.0790 -0.4171
17598TIP3    H174209   5.663   3.785   4.987  0.2137  0.3692 -0.7696
17598TIP3    H274210   5.749   3.661   4.979  0.5914  0.6560 -1.1795
17599TIP3   OH274211   1.701   4.928  17.261 -0.1728  0.3101 -0.2695
17599TIP3    H174212   1.693   4.986  17.338  0.7617 -0.5668  0.5203
17599TIP3    H274213   1.624   4.949  17.208 -0.8736  0.9171  0.9225
17600TIP3   OH274214   3.652   4.322  17.372  0.2649  0.2939 -0.3500
17600TIP3    H174215   3.575   4.336  17.427  0.0728 -2.4350  0.2286
17600TIP3    H274216   3.724   4.313  17.434  0.3784 -0.8697 -0.6216
17601TIP3   OH274217   3.401   2.929   0.883  0.5343 -0.2270 -0.1302
17601TIP3    H174218   3.360   2.974   0.957  0.4758 -0.9958  0.3153
17601TIP3    H274219   3.416   2.998   0.818  1.8065  0.6938  1.1101
17602TIP3   OH274220   4.327   4.717   1.314  0.1480  0.7951  0.3211
17602TIP3    H174221   4.301   4.667   1.391 -0.1958  0.4852  0.0095
17602TIP3    H274222   4.246   4.726   1.263  0.5915  0.0409 -0.5358
17603TIP3   OH274223   4.638   2.952  15.702 -0.2663 -0.0140 -0.4934
17603TIP3    H174224   4.722   2.980  15.667 -0.2624  0.5557 -0.0428
17603TIP3    H274225   4.658   2.877  15.757 -0.1550 -0.3474 -0.9831
17604TIP3   OH274226   0.838   0.307   1.308 -0.1682  0.2017  0.7354
17604TIP3    H174227   0.748   0.301   1.277  0.0624 -1.3821  0.2963
17604TIP3    H274228   0.833   0.287   1.401 -0.3786  1.0874  0.9214
17605TIP3   OH274229   2.450   1.541   3.549  0.5478 -0.1767 -0.0278
17605TIP3    H174230   2.505   1.587   3.485  1.4911  0.7145  1.3435
17605TIP3    H274231   2.509   1.527   3.624 -0.5060 -1.2043  0.6347
17606TIP3   OH274232   2.627   5.407  16.569 -0.0124 -0.2318  0.5215
17606TIP3    H174233   2.546   5.453  16.593  0.4579  1.8101 -1.4490
17606TIP3    H274234   2.610   5.373  16.481  0.9983 -0.4514  0.3974
17607TIP3   OH274235   6.445   5.665  13.570 -0.3058 -0.4771 -0.2860
17607TIP3    H174236   6.411   5.610  13.640 -0.0048  0.0280  0.2680
17607TIP3    H274237   6.425   5.617  13.489 -1.4183 -0.6645  0.0902
17608TIP3   OH274238   1.713   2.389   0.719 -0.1718  0.4144  0.4001
17608TIP3    H174239   1.703   2.483   0.700  1.1937  0.5554  0.3069
17608TIP3    H274240   1.806   2.379   0.741 -0.1796 -1.0264 -0.1707
17609TIP3   OH274241   4.547   3.791   5.665 -0.1584  0.5792  0.0068
17609TIP3    H174242   4.541   3.715   5.723  1.5200  0.6553  0.3424
17609TIP3    H274243   4.506   3.762   5.584  1.5808 -1.1939 -0.3290
17610TIP3   OH274244   0.383   2.148   5.527 -0.0536 -0.1483 -0.7372
17610TIP3    H174245   0.418   2.107   5.607 -0.3211  0.3996 -0.3304
17610TIP3    H274246   0.328   2.081   5.487 -0.2246 -0.2998 -0.2556
17611TIP3   OH274247   3.407   0.075  12.609  0.5113  0.0107  0.0298
17611TIP3    H174248   3.423   0.004  12.671 -0.3830  0.9607  1.3970
17611TIP3    H274249   3.478   0.137  12.624  0.4282  0.1321 -0.0752
17612TIP3   OH274250   1.432   4.426  11.383 -0.0955  0.0567  0.3779
17612TIP3    H174251   1.484   4.496  11.423 -0.3368 -0.2594  1.2735
17612TIP3    H274252   1.341   4.455  11.394 -0.1194  0.9901 -1.8983
17613TIP3   OH274253   5.635   6.149   4.489  0.5744  0.3748 -0.2893
17613TIP3    H174254   5.647   6.242   4.470 -0.3529  0.5906  0.0926
17613TIP3    H274255   5.661   6.140   4.581  0.1841  0.3700 -0.1752
17614TIP3   OH274256   2.701   2.502  16.539  0.1648 -0.6118 -0.1069
17614TIP3    H174257   2.653   2.447  16.476  0.1701 -0.4949 -0.2133
17614TIP3    H274258   2.793   2.484  16.520  0.1650 -0.9829  0.2283
17615TIP3   OH274259   4.825   4.490  13.254 -0.1379  0.1366  0.1534
17615TIP3    H174260   4.765   4.535  13.314  0.1630  0.0071  0.5584
17615TIP3    H274261   4.896   4.552  13.239 -0.4521  0.3537 -0.4599
17616TIP3   OH274262   1.360   6.029   3.687  0.0683 -0.2464  0.4973
17616TIP3    H174263   1.290   6.003   3.748 -1.6074  1.1577 -0.7221
17616TIP3    H274264   1.351   5.967   3.614 -0.5780  0.5460 -0.1075
17617TIP3   OH274265   6.017   1.438  16.870  0.3271  0.1865  0.1257
17617TIP3    H174266   5.938   1.412  16.823  0.2361 -2.1907  1.4034
17617TIP3    H274267   6.066   1.490  16.808 -0.7475 -1.0493 -1.8593
17618TIP3   OH274268   5.188   1.605   0.770 -0.3564  0.4218 -0.5291
17618TIP3    H174269   5.182   1.516   0.805  1.2194  0.8003  0.8072
17618TIP3    H274270   5.106   1.647   0.798 -1.1151 -0.5630 -1.1707
17619TIP3   OH274271   6.420   4.876   5.447 -0.5712  0.0628 -0.6048
17619TIP3    H174272   6.477   4.806   5.416 -1.0194 -0.6732  0.1952
17619TIP3    H274273   6.476   4.929   5.504 -0.8874 -1.2096  0.9573
17620TIP3   OH274274   5.461   3.694   3.976 -0.0828 -0.1951  0.0606
17620TIP3    H174275   5.435   3.703   4.067  2.1117  0.8554  0.6496
17620TIP3    H274276   5.448   3.780   3.937 -0.5334 -0.5044 -0.4932
17621TIP3   OH274277   5.016   6.139  13.927  0.0436  0.2232  0.0917
17621TIP3    H174278   4.965   6.219  13.938 -2.7195 -1.4329  0.0900
17621TIP3    H274279   4.989   6.083  14.000 -0.6444 -1.9243 -1.7044
17622TIP3   OH274280   0.201   3.832   0.986  0.2510  0.2121  0.0762
17622TIP3    H174281   0.149   3.831   0.905  0.3579 -0.2123  0.0071
17622TIP3    H274282   0.167   3.906   1.036 -1.6969 -1.1275  0.8629
17623TIP3   OH274283   4.313   1.506  10.090 -0.2379 -0.0112  0.3743
17623TIP3    H174284   4.238   1.554  10.055 -1.1045 -1.8067 -0.3420
17623TIP3    H274285   4.309   1.420  10.049  1.9000 -0.3753  0.7614
17624TIP3   OH274286   5.943   5.613  16.303  0.2976 -0.7130 -0.1931
17624TIP3    H174287   5.995   5.627  16.382 -3.0071  0.6221  1.9937
17624TIP3    H274288   5.909   5.700  16.282 -0.9199 -1.4736 -1.5452
17625TIP3   OH274289   3.014   5.724   2.606 -0.2075 -0.0489  0.6265
17625TIP3    H174290   3.064   5.766   2.536 -1.2757 -1.9628 -1.4222
17625TIP3    H274291   2.933   5.775   2.612 -0.8631 -0.8368 -0.8280
17626TIP3   OH274292   0.579   3.344  14.571  0.4217 -0.4479 -0.2817
17626TIP3    H174293   0.534   3.331  14.654 -1.0838  0.2984 -0.9474
17626TIP3    H274294   0.598   3.255  14.540  0.8302 -0.7324  0.7474
17627TIP3   OH274295   3.696   6.151   4.118 -0.5052  0.1166  0.6146
17627TIP3    H174296   3.784   6.173   4.088 -0.7242 -0.6660 -0.6840
17627TIP3    H274297   3.650   6.236   4.121  0.4177  0.6044  1.8468
17628TIP3   OH274298   4.464   0.127   0.821  0.3621  0.4320  0.3666
17628TIP3    H174299   4.553   0.102   0.846  1.1906  1.5837 -1.2571
17628TIP3    H274300   4.467   0.134   0.726 -1.3633  0.9475  0.3170
17629TIP3   OH274301   1.186   5.358  13.841 -0.2917  0.0428 -0.3959
17629TIP3    H174302   1.259   5.398  13.794 -0.3480  0.0477 -0.4790
17629TIP3    H274303   1.108   5.399  13.804 -0.2527  2.6165  2.0160
17630TIP3   OH274304   3.342   0.372   6.066 -0.0850  0.1607 -0.2497
17630TIP3    H174305   3.390   0.385   6.148 -0.0814 -0.5605 -0.1244
17630TIP3    H274306   3.351   0.455   6.019  0.3730  0.3991  0.2429
17631TIP3   OH274307   3.426   0.479   3.748  0.3742 -0.3643 -0.0718
17631TIP3    H174308   3.451   0.390   3.770  1.0798 -0.3518 -0.7906
17631TIP3    H274309   3.427   0.482   3.653  0.3016  0.3966 -0.0570
17632TIP3   OH274310   5.279   6.573  11.324 -0.0455 -0.1085  0.6301
17632TIP3    H174311   5.229   6.640  11.371 -1.4016  0.2623 -1.2150
17632TIP3    H274312   5.218   6.540  11.258  0.4933 -3.3958  1.6233
17633TIP3   OH274313   2.721   1.485  15.635  0.3091 -0.2362 -0.0347
17633TIP3    H174314   2.709   1.462  15.727  0.8128  0.7139  0.2780
17633TIP3    H274315   2.792   1.548  15.635 -0.4912  0.6992 -0.9416
17634TIP3   OH274316   4.014   0.172  13.289  0.2663  0.4702 -0.4012
17634TIP3    H174317   3.971   0.158  13.373  1.8250  0.1417  0.3766
17634TIP3    H274318   4.079   0.240  13.306 -0.8556  2.0044 -1.8885
17635TIP3   OH274319   2.407   5.999  12.017 -0.1038  0.1460  0.0611
17635TIP3    H174320   2.387   6.090  11.998  1.3120  0.6759  0.9377
17635TIP3    H274321   2.463   5.971  11.945  0.5833  0.4009  0.4888
17636TIP3   OH274322   5.517   1.691   3.259  0.1789 -0.1230  0.7561
17636TIP3    H174323   5.583   1.716   3.325  2.8197 -2.1436 -0.9028
17636TIP3    H274324   5.500   1.599   3.277 -0.8643 -0.0786  0.0272
17637TIP3   OH274325   0.331   6.210   1.740  0.1624  0.0496 -0.4171
17637TIP3    H174326   0.359   6.301   1.731 -1.4741  0.5041 -1.4203
17637TIP3    H274327   0.410   6.163   1.766  1.0123  1.7695  0.2879
17638TIP3   OH274328   2.232   6.221  11.946 -0.1299 -0.1814  0.9000
17638TIP3    H174329   2.246   6.316  11.952 -0.5050  0.0457 -1.0638
17638TIP3    H274330   2.137   6.211  11.954 -0.3913 -0.0782 -1.2865
17639TIP3   OH274331   1.555   2.675  10.957  0.0205 -0.8855  0.0007
17639TIP3    H174332   1.468   2.681  10.918 -0.8177 -0.7430  1.8343
17639TIP3    H274333   1.561   2.749  11.017  1.6690 -0.5224 -0.5601
17640TIP3   OH274334   2.135   1.973   4.630 -0.0046  0.1747 -0.8104
17640TIP3    H174335   2.214   1.925   4.606  0.7734  0.8749  0.2421
17640TIP3    H274336   2.125   1.957   4.723 -0.2146  1.3477 -0.6199
17641TIP3   OH274337   2.448   0.283   3.366  0.5197  0.9302  0.2577
17641TIP3    H174338   2.425   0.362   3.317  2.1535  1.2308 -0.1080
17641TIP3    H274339   2.543   0.277   3.356  0.5652 -0.4052  1.3166
17642TIP3   OH274340   3.547   2.035   5.677  0.3325  0.2053 -0.3703
17642TIP3    H174341   3.521   2.001   5.591  0.0963  2.4288 -1.2344
17642TIP3    H274342   3.467   2.032   5.729  0.4275 -0.9543 -0.2546
17643TIP3   OH274343   3.729   3.544   5.142 -0.2264  0.4406  0.2770
17643TIP3    H174344   3.813   3.501   5.127  0.8589  2.4724  0.1631
17643TIP3    H274345   3.698   3.566   5.054 -1.4310 -1.2011  0.2467
17644TIP3   OH274346   3.681   1.399  12.120 -0.1498 -0.4818 -0.0862
17644TIP3    H174347   3.612   1.397  12.187  0.9400 -0.5127  1.0701
17644TIP3    H274348   3.656   1.330  12.059 -2.6375  1.3231 -1.2842
17645TIP3   OH274349   2.349   3.493  11.957 -0.0444  0.0880  0.0294
17645TIP3    H174350   2.342   3.575  12.006 -0.7081  1.1800 -1.8260
17645TIP3    H274351   2.287   3.434  12.000  0.1392  0.6734  1.1307
17646TIP3   OH274352   2.992   2.793   4.766 -0.2426 -0.6215  0.6888
17646TIP3    H174353   2.923   2.845   4.807  0.4244  0.9212 -0.0670
17646TIP3    H274354   3.008   2.722   4.828 -0.6802  0.4889  2.1230
17647TIP3   OH274355   1.736   1.250  11.056  0.0372 -0.8756 -0.1471
17647TIP3    H174356   1.712   1.227  11.146  0.1317 -0.9356 -0.1355
17647TIP3    H274357   1.705   1.176  11.003  0.5168 -1.1281 -0.0862
17648TIP3   OH274358   6.237   0.611   5.252 -0.0618 -0.3304 -0.5449
17648TIP3    H174359   6.181   0.572   5.185 -0.2854  0.2279 -0.6877
17648TIP3    H274360   6.258   0.538   5.310 -0.7952 -0.5896 -0.5857
17649TIP3   OH274361   5.079   4.721  14.038 -0.4311  0.0176  0.2976
17649TIP3    H174362   5.049   4.637  14.073  1.8360 -1.2102 -0.5447
17649TIP3    H274363   5.104   4.771  14.116 -0.9443 -0.4220  0.7581
17650TIP3   OH274364   4.122   2.396  11.179 -0.4973 -0.1518  0.0207
17650TIP3    H174365   4.122   2.480  11.134 -0.1112 -0.3787 -0.4207
17650TIP3    H274366   4.177   2.340  11.124  0.5412 -0.2587  1.1325
17651TIP3   OH274367   3.305   3.169   6.261 -1.2694 -0.5308  0.2480
17651TIP3    H174368   3.364   3.227   6.213 -0.8522 -0.7096  0.5314
17651TIP3    H274369   3.218   3.186   6.224 -1.0669 -0.1341 -0.0526
17652TIP3   OH274370   3.270   6.225   6.300  0.4479  0.4497 -1.1297
17652TIP3    H174371   3.328   6.294   6.267  1.8786 -0.3182 -0.3631
17652TIP3    H274372   3.321   6.183   6.370 -0.7812 -0.7178 -0.8925
17653TIP3   OH274373   2.470   4.861  12.580 -0.4076  0.1167  0.5019
17653TIP3    H174374   2.509   4.819  12.503 -0.5658 -1.4107  1.2128
17653TIP3    H274375   2.482   4.955  12.565  0.0291 -0.1662 -1.1278
17654TIP3   OH274376   5.154   1.507   2.752 -0.1821 -0.1633  0.4072
17654TIP3    H174377   5.240   1.478   2.720 -0.2598 -0.1946  0.2204
17654TIP3    H274378   5.144   1.465   2.837  0.5803  0.9422  1.0556
17655TIP3   OH274379   1.254   2.825  15.408 -0.3784  0.0674 -0.3411
17655TIP3    H174380   1.293   2.913  15.401  0.5482 -0.0411  2.2088
17655TIP3    H274381   1.165   2.842  15.439 -0.1044  0.1482  0.4465
17656TIP3   OH274382   1.701   3.250   1.359 -0.0355 -0.3223 -0.2872
17656TIP3    H174383   1.719   3.235   1.266  1.2488  1.1021 -0.2918
17656TIP3    H274384   1.621   3.303   1.359 -0.1316 -0.4633 -0.5620
17657TIP3   OH274385   2.927   4.036   2.173 -0.6819  0.0319 -0.3727
17657TIP3    H174386   2.835   4.054   2.190 -1.2951 -0.6172 -2.6352
17657TIP3    H274387   2.961   4.002   2.255 -2.1986  1.1738  0.7798
17658TIP3   OH274388   4.814   6.441  13.899 -0.4709  1.0363  0.0011
17658TIP3    H174389   4.837   6.442  13.806 -1.6038 -0.4744 -0.3423
17658TIP3    H274390   4.877   6.499  13.940  2.0065 -0.5518 -1.2903
17659TIP3   OH274391   4.164   4.151   3.018 -0.4798 -0.1438  0.2416
17659TIP3    H174392   4.245   4.197   3.042  0.5552 -0.5785 -2.1915
17659TIP3    H274393   4.113   4.217   2.971 -0.9763 -0.2417  0.6387
17660TIP3   OH274394   3.499   1.535   0.953 -0.7969 -0.1639 -0.1013
17660TIP3    H174395   3.565   1.604   0.955 -0.5954 -0.3635  1.3442
17660TIP3    H274396   3.526   1.478   0.881  0.7984 -0.4169  0.6590
17661TIP3   OH274397   3.381   4.655   4.839 -0.0199 -0.2454  0.5435
17661TIP3    H174398   3.338   4.570   4.826 -0.9184 -0.0169  1.7711
17661TIP3    H274399   3.382   4.695   4.752 -2.0032 -0.4312  0.3803
17662TIP3   OH274400   2.973   4.639  15.409 -0.6116 -0.1851  0.1253
17662TIP3    H174401   3.044   4.690  15.448 -0.5018  0.4333 -0.8539
17662TIP3    H274402   2.902   4.644  15.473 -0.6347  1.3111  0.0098
17663TIP3   OH274403   5.402   1.774  15.621  0.5165 -0.2363  0.4067
17663TIP3    H174404   5.442   1.860  15.631 -0.2537 -0.1061  2.9842
17663TIP3    H274405   5.448   1.717  15.682  2.3644 -2.3008 -2.6141
17664TIP3   OH274406   4.722   6.458   0.582  0.0045 -0.4361 -0.2078
17664TIP3    H174407   4.770   6.402   0.643  0.5794 -0.9559 -1.1082
17664TIP3    H274408   4.780   6.532   0.567 -0.4942  0.1158  0.5046
17665TIP3   OH274409   6.609   3.317  13.727 -0.6290 -0.0354 -0.1620
17665TIP3    H174410   6.680   3.369  13.764 -0.1121  0.6802 -2.0130
17665TIP3    H274411   6.532   3.372  13.735 -0.2025  0.8452 -1.5390
17666TIP3   OH274412   2.675   4.143   6.283 -0.1060  0.4095 -0.3610
17666TIP3    H174413   2.712   4.231   6.280 -1.2117  0.9378  0.4429
17666TIP3    H274414   2.581   4.158   6.295 -0.4380 -0.8810 -1.1527
17667TIP3   OH274415   3.808   0.640  13.398  0.3429  0.1235  0.4791
17667TIP3    H174416   3.764   0.693  13.332 -0.2564 -0.5278  0.3510
17667TIP3    H274417   3.738   0.593  13.443  0.9891 -2.4027 -0.9846
17668TIP3   OH274418   2.192   0.434  12.648  0.1882  0.5928  0.2964
17668TIP3    H174419   2.276   0.479  12.638  0.7039 -0.6187 -1.2221
17668TIP3    H274420   2.210   0.365  12.713  1.0379 -1.0261 -1.5401
17669TIP3   OH274421   6.176   2.720   1.736 -0.3822 -0.3943  0.0373
17669TIP3    H174422   6.194   2.787   1.670 -0.2378 -0.3393  0.1321
17669TIP3    H274423   6.086   2.694   1.719 -0.9678  0.9036  0.9555
17670TIP3   OH274424   3.624   0.099  11.140  0.3677  0.0257  0.3127
17670TIP3    H174425   3.567   0.135  11.207  0.6805 -0.1460  0.6740
17670TIP3    H274426   3.664   0.176  11.099  1.1280  0.1086  1.1660
17671TIP3   OH274427   6.278   0.314  14.942  0.1500 -0.2073 -0.2130
17671TIP3    H174428   6.363   0.305  14.986 -0.3639  0.6505  1.0021
17671TIP3    H274429   6.254   0.405  14.956  0.0067  0.1487 -2.4194
17672TIP3   OH274430   5.448   1.118   1.664  0.0255 -0.1627  0.7065
17672TIP3    H174431   5.379   1.081   1.719  0.0213  0.4046  1.0844
17672TIP3    H274432   5.422   1.094   1.575 -0.2429 -0.6261  0.9046
17673TIP3   OH274433   6.300   0.227   0.444 -0.1465 -0.2450  0.4751
17673TIP3    H174434   6.218   0.184   0.420 -0.2355  0.6160 -0.9204
17673TIP3    H274435   6.274   0.299   0.502 -0.3256 -0.2723  0.4277
17674TIP3   OH274436   3.010   4.050  11.003  0.3258  0.1696  0.1721
17674TIP3    H174437   3.095   4.089  11.022  1.1284 -1.6189  0.4330
17674TIP3    H274438   3.019   4.015  10.915 -0.0576 -0.2615  0.3021
17675TIP3   OH274439   2.877   0.096   3.421 -0.4497  0.0792  0.0388
17675TIP3    H174440   2.800   0.082   3.366  0.2416 -0.0209 -0.9336
17675TIP3    H274441   2.950   0.095   3.359  0.1753  1.9340  0.6860
17676TIP3   OH274442   2.548   1.331  14.344 -0.3508 -0.4655 -0.1725
17676TIP3    H174443   2.488   1.259  14.367 -0.3582 -0.1507  0.8331
17676TIP3    H274444   2.521   1.356  14.255 -0.3764 -1.6691 -0.5305
17677TIP3   OH274445   0.655   6.153   1.601  0.6203  0.2353  0.6186
17677TIP3    H174446   0.643   6.068   1.643  1.5295  0.1862  0.7981
17677TIP3    H274447   0.652   6.216   1.673 -0.2215  0.3816  0.4669
17678TIP3   OH274448   4.694   0.536  11.391 -0.2347  0.2649  0.0909
17678TIP3    H174449   4.752   0.537  11.315 -0.5491  0.2909 -0.1517
17678TIP3    H274450   4.678   0.629  11.409 -0.7747  0.2505 -0.2889
17679TIP3   OH274451   2.155   6.096  17.037  0.3576  0.6215 -0.2149
17679TIP3    H174452   2.071   6.142  17.038  0.3674  0.6705  1.1783
17679TIP3    H274453   2.190   6.110  16.950 -0.1510  2.3343 -0.1701
17680TIP3   OH274454   6.063   3.280  14.545  0.2125  0.3038 -0.1513
17680TIP3    H174455   6.064   3.257  14.451 -0.7943  1.3424 -0.4374
17680TIP3    H274456   6.152   3.310  14.563 -0.0159  1.7220 -1.2131
17681TIP3   OH274457   4.798   3.418  15.978  0.1501  0.1707 -0.2181
17681TIP3    H174458   4.886   3.452  15.960 -0.6208  1.3221 -2.0449
17681TIP3    H274459   4.742   3.496  15.980 -1.0279 -0.6540 -0.3420
17682TIP3   OH274460   5.349   4.695   4.372 -0.1086  0.1127 -0.2317
17682TIP3    H174461   5.281   4.751   4.334 -0.8912 -0.3451  0.4483
17682TIP3    H274462   5.423   4.703   4.313 -0.6222  0.9337 -0.7846
17683TIP3   OH274463   0.080   5.790  12.010 -0.1843  0.4248  0.2106
17683TIP3    H174464   0.093   5.747  11.926  1.0024  0.4346  0.3699
17683TIP3    H274465  -0.015   5.805  12.015 -0.3836 -0.4228 -0.6938
17684TIP3   OH274466   2.784   3.280   2.601  0.0044  0.2444 -0.0331
17684TIP3    H174467   2.697   3.240   2.601 -0.6355  1.5747 -0.4983
17684TIP3    H274468   2.819   3.261   2.688 -0.2981 -1.2337 -0.2133
17685TIP3   OH274469   3.417   0.657   4.400  0.0027  0.6287  0.3728
17685TIP3    H174470   3.350   0.631   4.464  0.9338  2.3621  2.1464
17685TIP3    H274471   3.394   0.747   4.377  1.6026  1.2050  0.9080
17686TIP3   OH274472   4.093   5.470   4.355 -0.3426 -0.2670  0.5397
17686TIP3    H174473   4.083   5.384   4.395  2.2683 -0.9705 -0.1403
17686TIP3    H274474   4.083   5.454   4.261  2.1547 -0.3097  0.2042
17687TIP3   OH274475   0.657   5.403  13.992  0.2399 -0.3177  0.3066
17687TIP3    H174476   0.745   5.396  14.028  0.6536  0.4427 -0.5130
17687TIP3    H274477   0.605   5.341  14.043  1.0402 -0.1144  1.4189
17688TIP3   OH274478   5.708   3.521  14.226 -0.1107  0.2873 -0.1115
17688TIP3    H174479   5.622   3.483  14.246  0.2265 -0.6596 -0.4059
17688TIP3    H274480   5.755   3.519  14.310  0.8235 -2.4325 -0.5945
17689TIP3   OH274481   2.784   0.508   1.230  0.1073  0.5874  0.5595
17689TIP3    H174482   2.853   0.571   1.208 -0.1941  0.8600  0.3772
17689TIP3    H274483   2.703   0.551   1.202 -0.0138 -0.3267 -0.5791
17690TIP3   OH274484   3.837   1.653  11.114 -0.0344  0.0344  0.2969
17690TIP3    H174485   3.837   1.578  11.056 -1.4243  1.1450 -1.2405
17690TIP3    H274486   3.753   1.649  11.159 -0.2956  0.8561 -0.0919
17691TIP3   OH274487   4.365   2.815  16.265  0.2293 -0.1617 -0.7229
17691TIP3    H174488   4.395   2.893  16.311  0.3868 -1.0129  0.6910
17691TIP3    H274489   4.395   2.742  16.320 -0.5435 -1.1838 -1.6144
17692TIP3   OH274490   0.556   0.652  13.178 -0.0429  0.1628 -0.1145
17692TIP3    H174491   0.642   0.651  13.219  0.0498  0.5363 -0.2935
17692TIP3    H274492   0.573   0.665  13.085 -0.1414 -2.8410 -0.6253
17693TIP3   OH274493   2.609   0.973  11.746 -0.0878  0.0682  0.0565
17693TIP3    H174494   2.658   1.013  11.818  0.8794 -0.7778 -0.1114
17693TIP3    H274495   2.633   1.025  11.669 -0.3057  0.3178  0.1527
17694TIP3   OH274496   4.464   4.587  16.387  0.3588  0.1419 -0.0563
17694TIP3    H174497   4.542   4.596  16.442 -0.2791  2.2781  0.6240
17694TIP3    H274498   4.449   4.676  16.353 -0.5425 -0.6777 -1.9190
17695TIP3   OH274499   4.324   2.365   0.996 -0.7509 -0.1124 -0.0892
17695TIP3    H174500   4.233   2.386   0.976 -0.3851  1.2682 -0.3880
17695TIP3    H274501   4.358   2.328   0.914 -1.6240 -2.8617  0.6816
17696TIP3   OH274502   5.319   4.315  11.972 -0.4291  0.3994 -0.0744
17696TIP3    H174503   5.361   4.234  12.001 -1.8610  0.2753  1.8276
17696TIP3    H274504   5.328   4.313  11.876  1.7090 -0.7676  0.0764
17697TIP3   OH274505   4.420   3.172  10.162 -0.3914 -0.1886 -0.2336
17697TIP3    H174506   4.485   3.103  10.176 -0.1991  0.0483  0.0528
17697TIP3    H274507   4.459   3.228  10.095 -0.8501 -0.7378 -0.9676
17698TIP3   OH274508   5.492   2.653   6.139 -0.0066  0.0421 -0.4168
17698TIP3    H174509   5.487   2.563   6.172  1.0398  0.4175  0.8547
17698TIP3    H274510   5.405   2.690   6.155  0.0579 -0.2408  0.6253
17699TIP3   OH274511   4.526   3.453  11.218 -0.2298  0.1401 -0.7298
17699TIP3    H174512   4.575   3.528  11.252  0.4420  0.0962 -1.5718
17699TIP3    H274513   4.474   3.490  11.147 -1.8820  0.2987  0.4954
17700TIP3   OH274514   3.362   5.731   1.024 -0.1294 -0.3759  0.3554
17700TIP3    H174515   3.388   5.763   0.938 -2.4467  1.7568  0.3275
17700TIP3    H274516   3.302   5.659   1.006 -1.3998  0.7078  0.0749
17701TIP3   OH274517   2.868   1.486  13.868 -0.1360 -0.1833 -0.0907
17701TIP3    H174518   2.811   1.487  13.791  0.1573 -0.5571 -0.3140
17701TIP3    H274519   2.827   1.548  13.929 -1.2777 -1.0882  0.0964
17702TIP3   OH274520   6.537   6.719  14.073 -0.0789  0.3242 -0.1589
17702TIP3    H174521   6.474   6.791  14.065  0.1678  0.4270 -1.3928
17702TIP3    H274522   6.524   6.685  14.162 -0.5622  1.5477  0.2537
17703TIP3   OH274523   6.263   2.986   6.192  0.2499  0.1357 -0.1408
17703TIP3    H174524   6.187   2.933   6.217 -1.4471  2.3520 -0.3690
17703TIP3    H274525   6.255   3.066   6.243  1.2353  1.3320 -1.7778
17704TIP3   OH274526   1.169   5.086   0.204  0.1338  0.2951 -0.4119
17704TIP3    H174527   1.097   5.106   0.146 -1.3876 -2.2642  0.4448
17704TIP3    H274528   1.207   5.005   0.169  0.1957 -0.4100  1.1761
17705TIP3   OH274529   2.768   1.133   2.071 -0.1276 -0.3028 -0.5564
17705TIP3    H174530   2.730   1.221   2.071 -0.0136 -0.1896  2.1570
17705TIP3    H274531   2.816   1.127   2.153 -0.3936 -3.0032 -0.5092
17706TIP3   OH274532   2.294   5.487  13.317 -0.5278  0.3530 -0.4777
17706TIP3    H174533   2.268   5.444  13.398  0.3396  0.9516  0.1219
17706TIP3    H274534   2.259   5.430  13.248 -0.2069 -0.8207  0.3004
17707TIP3   OH274535   5.238   2.595  15.651  0.2082  0.0224  0.9896
17707TIP3    H174536   5.153   2.609  15.609  0.9727 -0.2058 -0.6860
17707TIP3    H274537   5.233   2.505  15.685  0.8056 -1.1336 -1.7535
17708TIP3   OH274538   1.965   1.974  15.233  0.4620 -0.2709 -0.5330
17708TIP3    H174539   1.871   1.980  15.252  0.4313  3.3556 -1.2112
17708TIP3    H274540   2.005   1.949  15.316 -0.8772  0.7001  0.4415
17709TIP3   OH274541   5.918   1.882  10.626 -0.4232  0.1008 -0.5003
17709TIP3    H174542   5.902   1.803  10.575 -1.7255  0.1366 -0.1795
17709TIP3    H274543   5.853   1.879  10.696 -1.0771  1.8696 -0.9666
17710TIP3   OH274544   3.109   1.689  11.731  0.4991 -0.4195 -0.4844
17710TIP3    H174545   3.018   1.671  11.756  0.4506  0.6852  0.1811
17710TIP3    H274546   3.104   1.719  11.640  0.2734 -0.9321 -0.6453
17711TIP3   OH274547   4.758   0.853  14.197  0.2124 -0.4944 -0.1473
17711TIP3    H174548   4.808   0.868  14.117  0.2277  2.0689  0.2741
17711TIP3    H274549   4.678   0.809  14.168  0.9817 -1.1716 -1.3102
17712TIP3   OH274550   3.580   0.023   6.034  0.7635  0.6802  0.0633
17712TIP3    H174551   3.563  -0.070   6.048  1.3726  0.9023  2.8308
17712TIP3    H274552   3.493   0.062   6.025  0.4123  0.0888  0.7906
17713TIP3   OH274553   0.795   5.630   2.690 -0.8404  0.3135  0.1072
17713TIP3    H174554   0.851   5.679   2.629 -1.2144  0.4291 -0.1460
17713TIP3    H274555   0.779   5.547   2.646  0.8627 -0.5922  1.0942
17714TIP3   OH274556   1.659   3.318  15.553  0.3964 -0.1998 -0.5906
17714TIP3    H174557   1.631   3.410  15.557  0.6117 -0.1815  0.8030
17714TIP3    H274558   1.595   3.272  15.608  0.5064 -0.8349 -0.9922
17715TIP3   OH274559   0.275   5.939  12.879  0.3735 -0.3454  0.3240
17715TIP3    H174560   0.301   5.847  12.885 -0.0268 -0.3769  2.2717
17715TIP3    H274561   0.206   5.940  12.813  1.6534 -1.1002 -1.1005
17716TIP3   OH274562   1.913   3.810  12.204  0.1260  0.0046 -0.2407
17716TIP3    H174563   1.999   3.836  12.235  0.1846  0.1746 -0.5336
17716TIP3    H274564   1.858   3.808  12.282  1.0131 -2.8049  0.4249
17717TIP3   OH274565   5.949   0.571  14.227  0.1611 -0.5933  0.5435
17717TIP3    H174566   6.028   0.600  14.273  1.6725  0.4626 -2.4737
17717TIP3    H274567   5.905   0.652  14.202 -0.3227 -1.1157 -0.3282
17718TIP3   OH274568   5.076   6.027   1.960  0.0575  0.3504 -0.0182
17718TIP3    H174569   5.017   5.973   2.012  0.1259 -0.1721 -0.4809
17718TIP3    H274570   5.129   6.074   2.025  0.6796 -0.8775  0.4062
17719TIP3   OH274571   4.923   0.401  13.265 -0.0294 -0.0264  1.0538
17719TIP3    H174572   4.962   0.481  13.301 -0.4538 -0.4024  2.3808
17719TIP3    H274573   4.975   0.330  13.302  0.2952 -0.3827 -0.0547
17720TIP3   OH274574   4.233   5.088  12.955  0.0902  0.2015 -0.0498
17720TIP3    H174575   4.215   5.095  13.049 -0.3656 -1.2650 -0.0043
17720TIP3    H274576   4.328   5.092  12.948  0.2616 -1.6237  0.6953
17721TIP3   OH274577   5.588   5.021   4.648  0.1528  0.4510  0.0423
17721TIP3    H174578   5.519   5.084   4.667  0.6442  1.5821 -1.7206
17721TIP3    H274579   5.669   5.068   4.668  0.4998  0.0366 -0.3706
17722TIP3   OH274580   6.659   1.611  15.413  0.1408 -0.2387 -0.0958
17722TIP3    H174581   6.625   1.694  15.377 -2.6717 -1.0081  0.5046
17722TIP3    H274582   6.729   1.587  15.353 -0.9901  1.0792 -2.1053
17723TIP3   OH274583   3.217   3.483  10.719 -0.4642 -0.1122  0.6025
17723TIP3    H174584   3.298   3.501  10.672  0.3323  0.0777  1.9867
17723TIP3    H274585   3.184   3.569  10.743 -0.5324 -0.2245  0.9161
17724TIP3   OH274586   6.001   3.387  12.610  0.2803  0.3105  0.0952
17724TIP3    H174587   6.053   3.416  12.685 -0.5506  0.4334  0.6418
17724TIP3    H274588   6.040   3.304  12.585  1.1361  0.7027  0.0887
17725TIP3   OH274589   1.614   6.606  14.154  0.0715 -0.3112  0.5929
17725TIP3    H174590   1.652   6.689  14.126 -0.8227  0.6953  2.2085
17725TIP3    H274591   1.551   6.584  14.086 -0.5326  0.9588  0.7160
17726TIP3   OH274592   4.584   5.533   4.395 -0.7634 -0.3645 -0.2099
17726TIP3    H174593   4.597   5.499   4.307  1.2552 -0.1501 -0.0591
17726TIP3    H274594   4.585   5.628   4.384  2.8271 -0.1955  0.2878
17727TIP3   OH274595   4.292   3.807  14.780 -0.4164  0.3977 -0.3107
17727TIP3    H174596   4.379   3.845  14.796 -1.3465  1.2442  4.0374
17727TIP3    H274597   4.233   3.882  14.781 -1.5511 -0.4570  1.1600
17728TIP3   OH274598   6.662   3.947  13.292  0.4944  0.1482 -0.3477
17728TIP3    H174599   6.691   3.914  13.207  0.5178 -1.8873  0.3896
17728TIP3    H274600   6.645   3.868  13.344  0.1165  1.3294  1.4200
17729TIP3   OH274601   4.324   5.021   5.027 -0.0476  0.2376  0.7003
17729TIP3    H174602   4.300   5.109   5.056 -1.3470  0.3585 -0.5924
17729TIP3    H274603   4.250   4.966   5.054  1.1366 -0.6543  2.2595
17730TIP3   OH274604   0.153   6.726  17.153  0.7636  0.0913 -0.5797
17730TIP3    H174605   0.128   6.804  17.103  0.3245  0.2014 -0.1970
17730TIP3    H274606   0.070   6.688  17.182  1.0156  0.2859  0.4550
17731TIP3   OH274607   4.100   2.247   4.884  0.4294 -1.1208  0.5356
17731TIP3    H174608   4.103   2.334   4.844 -0.8631 -0.6891  1.3344
17731TIP3    H274609   4.064   2.190   4.816  0.5135 -0.8767  0.2835
17732TIP3   OH274610   3.745   1.724   4.729 -0.6583 -0.7732  0.0984
17732TIP3    H174611   3.795   1.806   4.730 -1.5631 -0.2136 -0.3857
17732TIP3    H274612   3.724   1.710   4.637 -4.5601  0.9740  0.5439
17733TIP3   OH274613   2.764   3.851  16.484 -0.2049 -0.4480 -0.0183
17733TIP3    H174614   2.794   3.942  16.483  1.0077 -0.8240  0.2110
17733TIP3    H274615   2.682   3.852  16.435 -2.0332  1.3447  2.7349
17734TIP3   OH274616   1.897   6.365  16.023  0.9229 -0.6500  0.3292
17734TIP3    H174617   1.949   6.370  15.943  2.8477 -0.0466  1.5381
17734TIP3    H274618   1.950   6.312  16.083  0.6046  0.7276  1.9174
17735TIP3   OH274619   4.049   3.291   4.621  0.1085 -0.5420  0.8668
17735TIP3    H174620   3.958   3.319   4.609  0.2363  0.7208  2.5790
17735TIP3    H274621   4.074   3.326   4.706  1.8583 -1.8455  0.9432
17736TIP3   OH274622   6.462   4.557   2.646 -0.1807  0.0341  0.0946
17736TIP3    H174623   6.486   4.627   2.706 -0.3963 -0.9726  1.3920
17736TIP3    H274624   6.394   4.595   2.591 -0.6706  0.6940  1.1249
17737TIP3   OH274625   3.207   5.338  11.414  0.0920  0.7043 -0.6713
17737TIP3    H174626   3.124   5.326  11.459  0.6718  0.3134  0.3315
17737TIP3    H274627   3.222   5.256  11.368  1.7709 -0.8574  2.3449
17738TIP3   OH274628   3.691   5.024   2.958  0.0042 -0.2253 -0.1145
17738TIP3    H174629   3.652   4.952   2.908 -0.9557  0.1920  0.0149
17738TIP3    H274630   3.784   5.022   2.934  0.2632 -2.2988  0.8225
17739TIP3   OH274631   2.505   3.633   1.558  0.2389 -0.4529  0.6682
17739TIP3    H174632   2.498   3.699   1.489  1.0718 -0.5296  0.5053
17739TIP3    H274633   2.423   3.640   1.606  0.3664  0.7708  0.7246
17740TIP3   OH274634   4.092   0.794  16.774 -0.1144  0.6825 -0.0351
17740TIP3    H174635   4.178   0.796  16.815 -0.5826  0.4169  0.9883
17740TIP3    H274636   4.110   0.772  16.682  0.8659  0.1566  0.2666
17741TIP3   OH274637   4.103   4.998  12.061 -0.1700 -0.2631  0.5332
17741TIP3    H174638   4.027   4.977  12.116  0.1465 -1.1202  0.6502
17741TIP3    H274639   4.163   4.925  12.073 -0.8645 -1.4438 -2.4164
17742TIP3   OH274640   6.731   1.185   6.029  0.2387 -0.1918 -0.6054
17742TIP3    H174641   6.772   1.120   6.086 -0.2694  0.1325  0.1571
17742TIP3    H274642   6.643   1.197   6.067 -0.1024  0.0440 -1.4545
17743TIP3   OH274643   4.892   4.706   2.039  0.1388 -0.4336  0.0858
17743TIP3    H174644   4.850   4.621   2.027  0.7238 -0.8952  1.2046
17743TIP3    H274645   4.981   4.694   2.007  0.1221 -0.1336 -0.0795
17744TIP3   OH274646   5.941   4.919  13.984 -0.2286 -0.1680 -0.3802
17744TIP3    H174647   6.013   4.930  14.046 -0.6668 -1.1228  0.3192
17744TIP3    H274648   5.907   4.832  14.001 -1.3500  0.1416 -0.9191
17745TIP3   OH274649   1.210   0.495  11.251  0.2629  0.1070  0.5534
17745TIP3    H174650   1.151   0.570  11.244  0.9033  0.6267  0.6021
17745TIP3    H274651   1.250   0.504  11.337  1.5817  0.6704 -0.0787
17746TIP3   OH274652   4.764   1.154  13.236 -0.3798 -0.0699  0.0174
17746TIP3    H174653   4.717   1.071  13.229 -0.7889  0.0281  1.3968
17746TIP3    H274654   4.698   1.218  13.263  0.3849  0.2213  1.2499
17747TIP3   OH274655   4.890   3.245   0.566 -0.2402  0.1510 -0.0406
17747TIP3    H174656   4.877   3.166   0.514 -2.0064  1.0560 -1.0750
17747TIP3    H274657   4.935   3.215   0.645  1.0845 -1.5258 -1.3418
17748TIP3   OH274658   3.790   4.421   3.317 -0.6011  0.9622  0.2923
17748TIP3    H174659   3.752   4.349   3.368 -0.0465  0.5130  0.0836
17748TIP3    H274660   3.722   4.489   3.316 -1.3946  0.1820 -0.0758
17749TIP3   OH274661   3.134   1.041   0.722  0.7291 -0.1505  0.4025
17749TIP3    H174662   3.142   1.116   0.781  0.2069  0.0000  0.2899
17749TIP3    H274663   3.209   1.048   0.664  1.0108 -0.0544  0.7757
17750TIP3   OH274664   4.253   5.843   0.438 -0.1033 -0.4496 -0.2167
17750TIP3    H174665   4.268   5.777   0.506 -0.2065 -0.6429 -0.3804
17750TIP3    H274666   4.339   5.855   0.398  0.5441  1.4997  1.5759
17751TIP3   OH274667   6.709   2.062   4.893 -0.0190  0.3584 -0.0861
17751TIP3    H174668   6.713   1.988   4.832  1.0873  0.3849 -0.0677
17751TIP3    H274669   6.800   2.076   4.919 -0.3643  0.9506  0.8516
17752TIP3   OH274670   1.117   1.542  12.806 -0.5035 -0.1433  0.0745
17752TIP3    H174671   1.204   1.534  12.844 -0.3466 -0.2634 -0.3116
17752TIP3    H274672   1.068   1.469  12.844 -0.4922  0.0302  0.4319
17753TIP3   OH274673   3.960   5.094   6.871  0.1930 -0.3418  0.3812
17753TIP3    H174674   3.932   5.014   6.827  0.8529 -0.4068  0.0674
17753TIP3    H274675   3.907   5.097   6.951  0.1059 -1.0498  0.3561
17754TIP3   OH274676   4.066   6.437  16.579  0.6437  0.1148 -0.5727
17754TIP3    H174677   4.142   6.470  16.532  0.9726  0.1784 -0.0044
17754TIP3    H274678   4.064   6.488  16.660  0.3321 -0.2824 -0.3261
17755TIP3   OH274679   3.018   5.794   3.810 -0.2155 -0.2949 -0.1458
17755TIP3    H174680   3.097   5.753   3.845  0.9468  0.7253 -1.4393
17755TIP3    H274681   3.012   5.878   3.855  1.0073  0.8021 -1.8642
17756TIP3   OH274682   1.995   0.133  15.810 -0.1969 -0.1037  0.3109
17756TIP3    H174683   2.022   0.216  15.851 -3.6508  1.4076 -0.1936
17756TIP3    H274684   2.020   0.142  15.718  2.7886 -1.3242  0.8688
17757TIP3   OH274685   4.092   5.227   0.479 -0.3161  0.6222  0.3991
17757TIP3    H174686   4.147   5.199   0.552 -1.0087  1.2585  1.1930
17757TIP3    H274687   4.093   5.154   0.418  2.3549  1.0686 -0.1937
17758TIP3   OH274688   2.288   1.140   5.597  0.1740 -0.2956  0.0824
17758TIP3    H174689   2.361   1.200   5.614  1.4784 -1.5487 -0.8413
17758TIP3    H274690   2.220   1.195   5.558  0.6661  0.8768  0.8280
17759TIP3   OH274691   2.327   3.292   3.116  0.6109  0.0587 -0.4328
17759TIP3    H174692   2.349   3.361   3.178 -1.4623  0.0438  0.4075
17759TIP3    H274693   2.342   3.331   3.030 -2.7510  2.5273 -0.0867
17760TIP3   OH274694   4.219   5.586   4.554  0.0419 -0.5178 -0.1389
17760TIP3    H174695   4.259   5.670   4.531 -1.1051 -0.0664 -0.5224
17760TIP3    H274696   4.205   5.543   4.470 -2.5044  0.3715 -0.2326
17761TIP3   OH274697   0.728   2.709  12.071  0.3092 -0.5263  0.1630
17761TIP3    H174698   0.818   2.677  12.066  0.2587 -0.5640 -0.6056
17761TIP3    H274699   0.674   2.630  12.068  0.2543 -0.5343  1.0869
17762TIP3   OH274700   3.514   0.736  10.556 -0.2815  0.5328 -0.1551
17762TIP3    H174701   3.481   0.685  10.630  0.2536  0.4163  0.0120
17762TIP3    H274702   3.574   0.799  10.595 -0.4328  0.8524 -0.4322
17763TIP3   OH274703   1.997   5.194   2.528 -1.2053 -0.0432 -0.5348
17763TIP3    H174704   1.925   5.158   2.477 -1.5160  0.7500 -0.6696
17763TIP3    H274705   2.034   5.263   2.472 -0.4494 -0.3256 -0.3965
17764TIP3   OH274706   6.036   3.097   2.768  0.1490 -0.4769 -1.0243
17764TIP3    H174707   6.043   3.190   2.790  0.3685 -0.5040 -0.9794
17764TIP3    H274708   6.083   3.052   2.838 -1.3212 -0.7332 -0.1642
17765TIP3   OH274709   4.957   6.329  14.562  0.3532 -0.5087  0.2883
17765TIP3    H174710   4.936   6.235  14.558  0.6271 -0.5853  0.6135
17765TIP3    H274711   5.032   6.339  14.504  0.2227 -0.4592  0.1261
17766TIP3   OH274712   5.347   3.095   1.885  0.4318 -0.4677 -0.4498
17766TIP3    H174713   5.340   3.109   1.979  1.8193  0.8996 -0.5174
17766TIP3    H274714   5.367   3.181   1.849 -1.9586 -0.5703 -2.2518
17767TIP3   OH274715   4.173   0.094   3.225  0.0143  0.1991 -0.1341
17767TIP3    H174716   4.102   0.130   3.279 -1.8079 -1.8488 -1.0329
17767TIP3    H274717   4.172   0.149   3.147 -0.3246  0.4187  0.0165
17768TIP3   OH274718   5.586   0.125  16.484 -0.0269 -0.0428 -0.2106
17768TIP3    H174719   5.585   0.052  16.546  0.9384 -0.2570 -0.4225
17768TIP3    H274720   5.494   0.146  16.470 -0.2963 -0.7825  0.3668
17769TIP3   OH274721   0.812   1.055   3.517 -0.3061 -0.3609 -0.4398
17769TIP3    H174722   0.794   0.971   3.559 -0.8917 -0.1210 -0.2073
17769TIP3    H274723   0.742   1.112   3.546  0.5516  0.4497  0.0689
17770TIP3   OH274724   1.178   1.828   3.900  0.6122 -0.0347 -0.0159
17770TIP3    H174725   1.207   1.913   3.934 -1.1312 -0.0583  1.6730
17770TIP3    H274726   1.107   1.849   3.841 -0.6450 -0.3337  1.3371
17771TIP3   OH274727   2.351   6.163   5.677 -0.3312  0.5344  0.1351
17771TIP3    H174728   2.392   6.232   5.625  0.4755 -0.1711 -0.1914
17771TIP3    H274729   2.349   6.198   5.766  1.3959  0.4332  0.2442
17772TIP3   OH274730   4.348   5.080  15.652 -0.0807  0.5017 -0.3169
17772TIP3    H174731   4.370   5.164  15.694 -1.4322  0.6155  0.2208
17772TIP3    H274732   4.401   5.079  15.572  0.7202  1.3965  0.1712
17773TIP3   OH274733   6.373   3.901   3.543 -0.2137  0.5010  0.0917
17773TIP3    H174734   6.385   3.806   3.550 -1.6630  0.3285  0.7678
17773TIP3    H274735   6.432   3.938   3.609  1.2112  0.1644 -0.9647
17774TIP3   OH274736   1.779   0.471  16.709 -0.3566  0.4612  0.2538
17774TIP3    H174737   1.767   0.497  16.801  0.2122 -0.7341  0.7015
17774TIP3    H274738   1.862   0.510  16.684 -0.6474  1.0240  0.1508
17775TIP3   OH274739   3.276   3.468  15.823 -0.1937  0.4113  0.2632
17775TIP3    H174740   3.368   3.446  15.836 -0.3593 -0.0998  0.6200
17775TIP3    H274741   3.277   3.544  15.764  0.4698  0.7277  0.6682
17776TIP3   OH274742   3.784   5.393   4.681  0.3310 -0.1346 -0.3303
17776TIP3    H174743   3.849   5.463   4.684  0.5784 -0.3809  1.9473
17776TIP3    H274744   3.834   5.313   4.695 -0.4436 -0.2491  2.4448
17777TIP3   OH274745   2.132   2.371  17.127 -0.5838 -0.0562 -0.2944
17777TIP3    H174746   2.098   2.355  17.039 -1.3962  1.2264 -0.2466
17777TIP3    H274747   2.151   2.284  17.162 -0.5505 -0.5984 -1.6189
17778TIP3   OH274748   2.121   4.886   4.960 -0.2693 -0.1557  0.3629
17778TIP3    H174749   2.036   4.893   5.004 -0.9619 -1.1398 -0.7515
17778TIP3    H274750   2.101   4.900   4.867  1.0920  1.4854  0.2646
17779TIP3   OH274751   2.683   4.851   4.113 -0.1763  0.0573 -0.2055
17779TIP3    H174752   2.697   4.787   4.043 -0.4604 -0.3643  0.1115
17779TIP3    H274753   2.749   4.919   4.098  1.8118 -1.5166  0.8601
17780TIP3   OH274754   3.737   1.182  13.842 -0.4042 -0.0518 -0.6304
17780TIP3    H174755   3.721   1.165  13.750 -0.8649 -2.3504 -0.1698
17780TIP3    H274756   3.660   1.149  13.887  0.5103 -0.4554  0.7011
17781TIP3   OH274757   3.786   4.315  14.276 -0.2109 -0.0362  0.0100
17781TIP3    H174758   3.841   4.333  14.352  0.0183 -0.2029 -0.1165
17781TIP3    H274759   3.808   4.385  14.214 -0.5675  0.2371  0.1833
17782TIP3   OH274760   1.110   1.571   3.823  0.5711  0.0720 -0.1591
17782TIP3    H174761   1.098   1.653   3.871 -1.0010 -0.6899  0.8768
17782TIP3    H274762   1.020   1.541   3.806  1.1175 -1.1637 -0.9660
17783TIP3   OH274763   2.950   4.758  16.305  0.3226 -0.1530 -0.0730
17783TIP3    H174764   2.955   4.668  16.275  1.5393 -0.0368 -0.2423
17783TIP3    H274765   2.856   4.774  16.315  0.0737 -1.3209 -0.3588
17784TIP3   OH274766   3.764   4.507  12.173 -0.0020 -0.4482 -0.1118
17784TIP3    H174767   3.840   4.505  12.231  0.5978 -1.7907 -0.8969
17784TIP3    H274768   3.689   4.498  12.232  0.4422  0.5228  0.6418
17785TIP3   OH274769   6.244   1.445   3.047 -0.4455  0.1392 -0.2976
17785TIP3    H174770   6.246   1.461   2.953 -0.7594  0.3301 -0.2757
17785TIP3    H274771   6.152   1.426   3.066 -0.0450 -2.1849 -0.3858
17786TIP3   OH274772   5.655   5.145   2.736  0.4930 -0.0313  0.4962
17786TIP3    H174773   5.697   5.148   2.822  0.2065 -0.6585  0.6629
17786TIP3    H274774   5.655   5.236   2.706  0.1234  0.2808  1.3941
17787TIP3   OH274775   4.184   6.349  14.722  0.1132 -0.1774 -0.0845
17787TIP3    H174776   4.193   6.254  14.714 -1.8281 -0.4724  0.6632
17787TIP3    H274777   4.092   6.363  14.743  0.1820  1.9467 -0.9245
17788TIP3   OH274778   3.339   1.326  11.337 -0.3229  0.5391  0.4492
17788TIP3    H174779   3.364   1.307  11.247  1.0523  0.9607  0.7182
17788TIP3    H274780   3.387   1.261  11.389 -0.8131  0.5362  0.9076
17789TIP3   OH274781   0.044   3.982  12.830 -0.5976 -0.4442  0.1267
17789TIP3    H174782   0.038   3.902  12.779  2.6045 -1.1192  0.5974
17789TIP3    H274783   0.137   4.005  12.828 -1.0533  1.9935  1.9155
17790TIP3   OH274784   1.038   6.455  16.712  0.1749  0.1944 -0.2730
17790TIP3    H174785   1.019   6.396  16.785  1.0385 -0.1214 -0.2937
17790TIP3    H274786   1.040   6.399  16.635 -2.0458  0.7125 -0.7787
17791TIP3   OH274787   0.054   3.761  11.857  0.6127 -0.1691  0.6562
17791TIP3    H174788  -0.036   3.739  11.833  1.7030 -1.8924 -2.3668
17791TIP3    H274789   0.068   3.718  11.942 -1.6606  1.1034  1.7853
17792TIP3   OH274790   2.933   0.005  12.652 -0.1644 -0.2993 -0.9544
17792TIP3    H174791   3.002   0.048  12.601  0.1399 -0.3595 -0.5925
17792TIP3    H274792   2.977  -0.066  12.698 -0.5588 -0.6383 -1.0937
17793TIP3   OH274793   0.955   3.966  16.322 -0.1641 -0.2639 -0.3470
17793TIP3    H174794   1.027   4.028  16.315 -0.9154  0.9260  1.7001
17793TIP3    H274795   0.998   3.880  16.325  1.1564  0.3924  0.4981
17794TIP3   OH274796   6.318   2.159  15.823 -0.0967  0.0531 -0.2329
17794TIP3    H174797   6.282   2.213  15.894 -0.8865  0.5797 -1.0143
17794TIP3    H274798   6.409   2.145  15.848 -0.4711 -0.1681  1.1227
17795TIP3   OH274799   6.173   6.208   2.969  0.2263  0.1169  0.2190
17795TIP3    H174800   6.251   6.154   2.981  0.8797  1.0859  0.5172
17795TIP3    H274801   6.168   6.223   2.875 -0.0684 -0.6106  0.1166
17796TIP3   OH274802   5.031   6.379  13.289 -0.4884  0.5894  0.1473
17796TIP3    H174803   4.952   6.430  13.271 -0.4634  0.3993 -0.5460
17796TIP3    H274804   5.081   6.384  13.207  0.7191  1.5890  0.9185
17797TIP3   OH274805   6.259   3.693   3.256 -0.9347 -0.4257 -0.0665
17797TIP3    H174806   6.318   3.618   3.254  0.1884  0.3429  1.7805
17797TIP3    H274807   6.207   3.681   3.336 -0.8000  0.6977  0.2061
17798TIP3   OH274808   2.056   4.563  13.032 -0.5143  0.2603 -0.2109
17798TIP3    H174809   2.151   4.557  13.025 -0.3533  0.0232  1.5931
17798TIP3    H274810   2.033   4.641  12.981  0.4155 -0.6088 -2.0490
17799TIP3   OH274811   1.546   5.532  16.407  0.4838  0.4225  0.2883
17799TIP3    H174812   1.470   5.475  16.397  1.7315 -0.9001 -3.4751
17799TIP3    H274813   1.510   5.617  16.433 -2.0707 -0.5882  0.3079
17800TIP3   OH274814   4.997   5.013  11.703 -0.1261  0.0868  0.2485
17800TIP3    H174815   5.073   5.055  11.662 -0.8322  0.7890 -0.3672
17800TIP3    H274816   4.972   4.944  11.642 -0.0684 -0.0510  0.3811
17801TIP3   OH274817   6.492   0.106   1.788  0.2091  0.6918 -0.1647
17801TIP3    H174818   6.480   0.017   1.756 -0.0209  0.1239  1.4177
17801TIP3    H274819   6.464   0.162   1.715 -1.0148 -0.5418 -0.6891
17802TIP3   OH274820   5.438   5.680   3.589  0.0149 -0.2473  0.4825
17802TIP3    H174821   5.511   5.620   3.610 -0.4811 -1.3303 -0.7622
17802TIP3    H274822   5.413   5.717   3.674  1.9558  0.1043  0.9507
17803TIP3   OH274823   0.066   2.013  11.984  0.6273  0.7886 -0.3979
17803TIP3    H174824   0.156   2.041  11.968  0.5147  1.0022 -0.6826
17803TIP3    H274825   0.016   2.050  11.910 -0.3895  3.9847  1.6985
17804TIP3   OH274826   2.494   6.248   3.259  0.4830 -0.4266  0.5198
17804TIP3    H174827   2.537   6.321   3.303  0.6900 -0.2565  0.0355
17804TIP3    H274828   2.507   6.264   3.166  0.3014 -0.9421  0.3995
17805TIP3   OH274829   1.089   0.456  12.943  0.0731  0.0249 -0.0021
17805TIP3    H174830   1.120   0.541  12.911 -0.2529  0.4603  0.8022
17805TIP3    H274831   1.153   0.431  13.010 -0.5623  0.2971  0.7262
17806TIP3   OH274832   0.130   3.833   2.457 -0.2783  0.1222  0.7438
17806TIP3    H174833   0.185   3.759   2.485  1.9628  1.8803  1.2286
17806TIP3    H274834   0.049   3.822   2.508  0.5301 -1.2419  1.8172
17807TIP3   OH274835   4.530   0.685  15.224  0.0700  0.0467 -0.7338
17807TIP3    H174836   4.590   0.625  15.180  0.6858  0.1475 -0.0570
17807TIP3    H274837   4.565   0.772  15.204 -0.1222  0.1276 -0.7224
17808TIP3   OH274838   4.213   1.205  11.599  0.1830  0.2260  0.2930
17808TIP3    H174839   4.221   1.300  11.604 -0.4620  0.3088 -0.1220
17808TIP3    H274840   4.302   1.172  11.615  0.1218  0.8172  2.1611
17809TIP3   OH274841   6.497   0.667  15.213 -0.3508 -0.0996 -0.1938
17809TIP3    H174842   6.413   0.700  15.183 -0.6224 -1.9105 -1.6909
17809TIP3    H274843   6.493   0.671  15.308 -1.7374  0.7325 -0.2666
17810TIP3   OH274844   3.304   6.263   3.748 -0.4733  0.2273  0.1287
17810TIP3    H174845   3.315   6.169   3.735  2.1162  0.1864  1.8839
17810TIP3    H274846   3.219   6.272   3.792 -0.8426 -1.2342 -0.2377
17811TIP3   OH274847   1.514   0.686  13.424 -0.1408  0.1017  0.3573
17811TIP3    H174848   1.449   0.734  13.476 -1.0218 -0.3861 -0.2701
17811TIP3    H274849   1.557   0.753  13.371  0.5403  0.5597  1.4613
17812TIP3   OH274850   4.426   6.187  14.595 -0.4848  0.0246  0.2501
17812TIP3    H174851   4.449   6.106  14.550 -1.2410 -0.8844  1.4177
17812TIP3    H274852   4.332   6.178  14.613 -0.9020  1.7861 -0.7945
17813TIP3   OH274853   4.074   4.993  12.731  0.4897  0.4174  0.1210
17813TIP3    H174854   4.138   5.030  12.791  0.0111 -0.1532  1.0099
17813TIP3    H274855   4.113   4.911  12.701 -0.5216 -0.8516  2.0648
17814TIP3   OH274856   3.681   2.625  13.044 -0.1342 -0.1158  0.0978
17814TIP3    H174857   3.719   2.576  13.117  0.8383  1.5910  0.7944
17814TIP3    H274858   3.709   2.577  12.966  1.6605 -0.1335  0.7088
17815TIP3   OH274859   4.468   0.234  16.025  0.1500 -0.6523  0.3752
17815TIP3    H174860   4.409   0.207  15.955  1.3472  1.0701 -1.3924
17815TIP3    H274861   4.552   0.194  16.002  0.9737  1.2781 -0.1669
17816TIP3   OH274862   3.743   4.485  15.823  0.2390 -0.2244  0.3619
17816TIP3    H174863   3.688   4.491  15.744  1.3023 -0.5722 -0.4252
17816TIP3    H274864   3.686   4.445  15.888 -1.4353  2.2185  0.5275
17817TIP3   OH274865   6.119   3.621   3.943 -0.3479 -0.2667 -0.2756
17817TIP3    H174866   6.127   3.691   3.878  1.5098 -0.9977 -0.8837
17817TIP3    H274867   6.199   3.628   3.995 -1.3828 -0.2730  1.3870
17818TIP3   OH274868   3.023   4.821   0.645 -0.4075  0.3129  0.1148
17818TIP3    H174869   3.034   4.734   0.684 -1.9769 -0.2626 -0.6200
17818TIP3    H274870   3.050   4.882   0.713  0.5202 -0.7283  0.7241
17819TIP3   OH274871   1.471   2.776  13.484  1.0471  0.1788  0.0286
17819TIP3    H174872   1.441   2.864  13.462  0.1314 -0.2466 -0.4360
17819TIP3    H274873   1.566   2.779  13.468  0.9418  0.9117 -0.5180
17820TIP3   OH274874   6.606   3.409   2.179  0.1717 -0.6160  0.6451
17820TIP3    H174875   6.547   3.337   2.199 -0.5100 -0.5155 -0.8756
17820TIP3    H274876   6.662   3.376   2.109  0.2143  0.1364  0.3120
17821TIP3   OH274877   6.229   1.692   0.394 -0.7989  0.0688  0.3942
17821TIP3    H174878   6.140   1.725   0.392 -0.8772 -0.1649 -0.3270
17821TIP3    H274879   6.284   1.768   0.375 -0.9035  0.0251 -0.0883
17822TIP3   OH274880   3.155   3.593  11.792  0.1901  0.3808  0.6368
17822TIP3    H174881   3.078   3.600  11.848 -1.0557  0.3317 -1.0074
17822TIP3    H274882   3.161   3.500  11.771  0.4002  0.4593  0.3474
17823TIP3   OH274883   3.497   4.953   5.922  0.2104  0.2085 -0.4100
17823TIP3    H174884   3.534   4.869   5.894 -2.4051 -0.7131 -1.4383
17823TIP3    H274885   3.512   5.012   5.848  0.6245  0.1868 -0.3466
17824TIP3   OH274886   3.493   2.873   5.472  0.3147  0.3138  0.0800
17824TIP3    H174887   3.533   2.955   5.500  2.0740 -0.7523  0.9431
17824TIP3    H274888   3.520   2.810   5.539 -1.0170 -0.9676 -0.5321
17825TIP3   OH274889   1.680   6.288   1.137  0.2531 -0.1377  0.6725
17825TIP3    H174890   1.693   6.349   1.210  1.4418 -0.1795  0.5163
17825TIP3    H274891   1.737   6.214   1.157 -1.6127 -1.4969  1.1513
17826TIP3   OH274892   4.891   3.853  16.621  0.2696 -0.4099  0.1172
17826TIP3    H174893   4.984   3.847  16.603  0.3907 -0.9195  0.8471
17826TIP3    H274894   4.852   3.776  16.579  0.4785 -1.3098  1.5159
17827TIP3   OH274895   3.049   1.953   2.660  0.1124  0.2756 -0.6308
17827TIP3    H174896   3.132   1.999   2.669 -1.1605  2.6021 -0.1470
17827TIP3    H274897   3.014   1.948   2.749  0.1291 -1.5616 -0.6895
17828TIP3   OH274898   6.297   4.232  13.966 -0.4835 -0.4523 -0.3231
17828TIP3    H174899   6.293   4.221  14.061 -0.2858 -0.0020 -0.2611
17828TIP3    H274900   6.340   4.316  13.953 -0.2120 -0.6614 -0.8170
17829TIP3   OH274901   1.428   1.987  17.402 -0.3606 -0.6302  0.2789
17829TIP3    H174902   1.334   1.987  17.423 -0.4334 -0.1922 -0.0208
17829TIP3    H274903   1.461   2.067  17.442 -0.4882  0.1779 -1.1645
17830TIP3   OH274904   1.120   4.563   0.304 -0.6468 -0.4280  0.3531
17830TIP3    H174905   1.085   4.607   0.381 -0.5740 -0.7888  0.5956
17830TIP3    H274906   1.066   4.594   0.231  0.4709  1.3730  0.2363
17831TIP3   OH274907   2.707   1.474  14.499  0.4344  0.0653 -0.1048
17831TIP3    H174908   2.798   1.479  14.469  0.4876  0.4627  0.1231
17831TIP3    H274909   2.662   1.430  14.427  0.8030 -0.1226 -0.2265
17832TIP3   OH274910   0.068   5.345   4.155  0.2914  0.0457 -0.0488
17832TIP3    H174911   0.128   5.289   4.107  0.9286  0.8366 -0.2089
17832TIP3    H274912   0.125   5.393   4.216 -0.1498  0.9354 -0.3258
17833TIP3   OH274913   6.738   6.487  13.428  0.3120  0.0132  0.3176
17833TIP3    H174914   6.686   6.520  13.501 -1.6527  0.4198 -1.1600
17833TIP3    H274915   6.698   6.527  13.350  0.4188 -2.6387 -1.2451
17834TIP3   OH274916   5.639   5.804   3.945  0.1011  0.2788 -0.5501
17834TIP3    H174917   5.618   5.719   3.906 -0.4341 -0.4701  1.2747
17834TIP3    H274918   5.692   5.848   3.878  0.2506 -1.4084 -1.6171
17835TIP3   OH274919   6.292   6.680  15.759 -0.2441  0.0654 -0.0961
17835TIP3    H174920   6.319   6.757  15.709  1.2455 -0.1163  0.4006
17835TIP3    H274921   6.341   6.686  15.841 -2.2053  0.0524  1.1591
17836TIP3   OH274922   6.557   6.320   3.676  0.2374 -0.1029 -0.4866
17836TIP3    H174923   6.536   6.414   3.671  0.6386 -0.0402 -1.0203
17836TIP3    H274924   6.520   6.292   3.760 -2.2213 -0.0722 -1.4961
17837TIP3   OH274925   0.200   5.973  11.377 -0.4327  0.5434 -0.2024
17837TIP3    H174926   0.235   5.885  11.366  2.4856  1.4919  0.6250
17837TIP3    H274927   0.139   5.984  11.304 -0.3439 -1.8819 -0.7214
17838TIP3   OH274928   3.180   0.489  13.798 -0.6950 -0.3204  0.2311
17838TIP3    H174929   3.132   0.516  13.877 -1.0182 -0.1287 -0.0293
17838TIP3    H274930   3.231   0.566  13.775 -1.0067 -0.1955 -0.0512
17839TIP3   OH274931   5.834   2.126  10.945  0.0084  0.0268 -0.3315
17839TIP3    H174932   5.912   2.071  10.948  0.4595  0.6246 -0.8673
17839TIP3    H274933   5.858   2.199  10.888 -0.5759  0.7848  0.3728
17840TIP3   OH274934   5.251   0.697   4.680  0.1061  0.4310  0.4116
17840TIP3    H174935   5.170   0.744   4.665  0.0341  0.0501 -0.4842
17840TIP3    H274936   5.318   0.765   4.685 -0.3013  0.7722  1.5310
17841TIP3   OH274937   5.551   5.258   2.419 -0.0967 -0.7140 -0.3605
17841TIP3    H174938   5.583   5.168   2.410 -0.2908 -0.7002 -1.2778
17841TIP3    H274939   5.586   5.304   2.343 -0.6783 -0.2154 -0.3385
17842TIP3   OH274940   2.884   0.762  11.073  0.3713 -0.2053  0.1919
17842TIP3    H174941   2.859   0.853  11.057  2.7758  0.5233  0.1298
17842TIP3    H274942   2.888   0.722  10.986 -1.7383 -0.7156  0.2967
17843TIP3   OH274943   3.225   5.674   3.946  0.4761  0.6443  0.0574
17843TIP3    H174944   3.311   5.641   3.921  0.2845  0.6184 -0.5727
17843TIP3    H274945   3.236   5.701   4.038  1.1759  0.7267 -0.0430
17844TIP3   OH274946   3.709   6.459  13.299  0.0148 -0.0179  0.3249
17844TIP3    H174947   3.622   6.474  13.261  0.4257  2.2520  0.1352
17844TIP3    H274948   3.742   6.382  13.254 -1.5267 -0.3727 -0.2608
17845TIP3   OH274949   4.326   4.151   2.641  0.0532  0.1365 -0.1756
17845TIP3    H174950   4.350   4.065   2.675  1.8344 -0.4067 -2.5334
17845TIP3    H274951   4.354   4.213   2.709 -1.2045 -1.0730  1.5286
17846TIP3   OH274952   2.990   5.171  14.402  0.7108 -0.7992 -0.2955
17846TIP3    H174953   2.899   5.162  14.431  1.0474  1.1223  1.6330
17846TIP3    H274954   2.985   5.209  14.315 -0.3292 -2.1468 -0.8494
17847TIP3   OH274955   0.709   5.840   1.203 -0.0544  0.4472 -0.2846
17847TIP3    H174956   0.774   5.787   1.158 -0.0158 -0.1366  0.4331
17847TIP3    H274957   0.643   5.861   1.137  0.1242 -0.1791 -0.6601
17848TIP3   OH274958   0.687   1.564   0.842 -0.4196  0.2799  0.0984
17848TIP3    H174959   0.756   1.588   0.904 -1.4010  0.0860  1.3030
17848TIP3    H274960   0.712   1.607   0.761  0.2467  1.5844  0.9599
17849TIP3   OH274961   1.977   1.700  16.582 -0.0278 -0.5932 -0.0867
17849TIP3    H174962   1.959   1.609  16.604  2.2674 -1.0874 -0.0687
17849TIP3    H274963   2.068   1.714  16.607  0.3745  1.0503 -2.1881
17850TIP3   OH274964   0.835   5.887  11.401  0.1063  0.1885 -0.2265
17850TIP3    H174965   0.754   5.914  11.443  0.0714 -2.9148  2.0716
17850TIP3    H274966   0.809   5.858  11.314 -1.1765 -0.1950  0.2679
17851TIP3   OH274967   2.413   4.700  13.692  0.2090 -0.4619  0.1708
17851TIP3    H174968   2.358   4.711  13.614 -0.4350  0.4839  0.7383
17851TIP3    H274969   2.452   4.613  13.682 -0.3005 -0.5789 -0.9325
17852TIP3   OH274970   1.705   4.306  10.509  0.4582 -0.4950 -0.0313
17852TIP3    H174971   1.628   4.351  10.474 -1.0481 -0.9963  2.4082
17852TIP3    H274972   1.672   4.222  10.539  1.9172 -0.6494  1.2401
17853TIP3   OH274973   2.574   4.850   2.372  0.0665  0.1885  0.3161
17853TIP3    H174974   2.585   4.760   2.341 -0.2706  0.9402 -2.2076
17853TIP3    H274975   2.572   4.842   2.467  2.4059 -2.1982  0.3039
17854TIP3   OH274976   5.806   5.713   3.225  0.3604 -0.0787  0.3100
17854TIP3    H174977   5.849   5.770   3.289  1.7682  0.2105 -0.8264
17854TIP3    H274978   5.877   5.682   3.170 -0.5715 -1.8411  0.0307
17855TIP3   OH274979   5.019   0.973  13.380 -0.5626  0.0591 -0.2555
17855TIP3    H174980   5.052   1.054  13.342  0.6480 -1.0602 -1.7160
17855TIP3    H274981   5.092   0.939  13.431 -0.4880 -0.8906 -0.9672
17856TIP3   OH274982   4.529   3.917  14.166 -0.7182 -0.2314  0.0857
17856TIP3    H174983   4.526   4.006  14.130 -1.6110  0.0032  0.6858
17856TIP3    H274984   4.469   3.867  14.110 -1.3862 -0.0835  0.6456
17857TIP3   OH274985   0.976   4.641  15.828 -0.0895 -0.8872 -0.1018
17857TIP3    H174986   1.012   4.570  15.774 -1.8573 -1.8083 -0.1227
17857TIP3    H274987   0.970   4.716  15.769  1.3725 -0.8137 -0.1990
17858TIP3   OH274988   1.427   1.919  14.002  0.5772  0.2315 -0.4856
17858TIP3    H174989   1.402   1.950  14.089  0.1222 -0.2931 -0.4325
17858TIP3    H274990   1.421   1.824  14.007 -1.0548  0.2357 -1.5662
17859TIP3   OH274991   3.530   3.808  11.097  0.1686 -0.2116  0.7983
17859TIP3    H174992   3.446   3.831  11.056 -0.4964 -0.4265  1.9936
17859TIP3    H274993   3.596   3.847  11.040 -0.6225 -1.8116 -1.3930
17860TIP3   OH274994   3.327   3.049  13.183 -0.3955  0.7919 -0.1731
17860TIP3    H174995   3.289   2.972  13.225 -2.5972  1.2315 -1.2210
17860TIP3    H274996   3.350   3.108  13.255 -0.7319  0.0688  0.5353
17861TIP3   OH274997   0.316   2.507  12.484 -0.4989 -0.0167 -0.9470
17861TIP3    H174998   0.273   2.483  12.566  0.4039 -0.3374 -0.5577
17861TIP3    H274999   0.387   2.566  12.509  0.9760 -1.5734 -1.2468
17862TIP3   OH275000   2.347   3.435   0.753 -0.2696 -0.2106  0.1742
17862TIP3    H175001   2.314   3.412   0.666 -2.0471  2.2006  0.0992
17862TIP3    H275002   2.435   3.398   0.756 -0.8076 -1.8622 -1.9483
17863TIP3   OH275003   1.581   6.312   3.902  0.2415  0.3402  0.4683
17863TIP3    H175004   1.562   6.403   3.926 -0.6139  0.0595  0.8727
17863TIP3    H275005   1.561   6.261   3.981  0.1170 -0.2728  0.0470
17864TIP3   OH275006   2.320   0.078  11.526  0.5450 -0.5466  0.3377
17864TIP3    H175007   2.239   0.042  11.561 -0.2675  2.1865  1.5505
17864TIP3    H275008   2.292   0.129  11.450  1.1230  0.2803  0.6638
17865TIP3   OH275009   5.918   1.013  11.101 -0.5124 -0.0433 -0.0431
17865TIP3    H175010   5.908   0.955  11.025  1.3536  2.2248 -2.2142
17865TIP3    H275011   5.928   1.100  11.062 -0.0669  1.3097  2.8846
17866TIP3   OH275012   0.268   4.252  12.952 -0.4421  0.3229 -0.0660
17866TIP3    H175013   0.307   4.337  12.934  1.2167 -0.5818 -1.0117
17866TIP3    H275014   0.226   4.227  12.869  0.3724 -0.4102 -0.2733
17867TIP3   OH275015   4.851   2.373  13.919 -0.0203  0.2227  0.1558
17867TIP3    H175016   4.783   2.346  13.858  0.2771  1.7678 -0.9117
17867TIP3    H275017   4.926   2.317  13.899 -0.0005  0.5616 -0.7684
17868TIP3   OH275018   2.414   4.343   2.810 -0.2378 -0.5152 -0.3995
17868TIP3    H175019   2.428   4.400   2.886 -2.4680 -3.2374  2.2611
17868TIP3    H275020   2.450   4.393   2.737  0.3201  3.1339  2.0827
17869TIP3   OH275021   6.295   4.551  10.354  0.9137  0.1143  0.1596
17869TIP3    H175022   6.286   4.547  10.258  1.5497 -0.4560  0.1210
17869TIP3    H275023   6.213   4.512  10.386  0.3790  0.9544 -0.1347
17870TIP3   OH275024   5.424   6.688  14.480 -0.3035 -0.1566  0.7889
17870TIP3    H175025   5.412   6.734  14.396 -1.8393 -0.7647  0.6410
17870TIP3    H275026   5.476   6.749  14.533  0.3993  0.3840 -0.4779
17871TIP3   OH275027   3.157   1.479   1.207  0.4376 -0.5419  0.4107
17871TIP3    H175028   3.243   1.438   1.199  1.0423  0.6128  0.7714
17871TIP3    H275029   3.166   1.539   1.281  0.2441  1.7964 -1.3487
17872TIP3   OH275030   4.788   2.756  15.952  0.3692 -0.2056 -0.5512
17872TIP3    H175031   4.759   2.678  15.999  0.2116 -0.7098 -1.4558
17872TIP3    H275032   4.751   2.829  16.001  0.2475 -0.7041  0.1226
17873TIP3   OH275033   6.708   3.237  13.171 -0.5465 -0.0195 -0.2030
17873TIP3    H175034   6.797   3.210  13.150 -0.5394  1.1366 -1.9159
17873TIP3    H275035   6.716   3.291  13.249  0.3672  0.7020 -0.7837
17874TIP3   OH275036   2.529   1.291  17.006  0.3320 -0.6250 -0.1780
17874TIP3    H175037   2.551   1.341  16.928 -0.1809 -1.5534 -0.9399
17874TIP3    H275038   2.538   1.353  17.078  0.9903  0.1989 -0.9496
17875TIP3   OH275039   0.097   6.110   3.871  0.1619  0.2792  0.1172
17875TIP3    H175040   0.188   6.136   3.884  0.3396 -0.5905  0.6536
17875TIP3    H275041   0.099   6.015   3.866 -0.8483  0.1634  1.3189
17876TIP3   OH275042   1.807   5.004  12.000 -0.3109  0.7228  0.2317
17876TIP3    H175043   1.888   5.023  11.953 -1.0522 -1.2483 -1.9969
17876TIP3    H275044   1.750   4.961  11.936 -3.0633  1.7459  1.7755
17877TIP3   OH275045   2.861   6.622  15.046 -0.2233  0.0191  0.0409
17877TIP3    H175046   2.892   6.596  14.959  1.0145 -1.1306  0.7795
17877TIP3    H275047   2.924   6.581  15.106 -1.0201  0.8447  1.4702
17878TIP3   OH275048   4.244   1.915  15.591  0.0272  0.0235  0.1671
17878TIP3    H175049   4.273   1.833  15.551  1.1981  0.2873  0.4550
17878TIP3    H275050   4.258   1.981  15.523 -0.9412  0.0068 -0.0749
17879TIP3   OH275051   3.022   1.166  12.593  0.4959  0.2854  0.0592
17879TIP3    H175052   3.102   1.126  12.626  1.2126  1.0075 -0.7804
17879TIP3    H275053   2.982   1.099  12.538  0.4024 -0.1507  0.6468
17880TIP3   OH275054   3.328   4.169   5.030  0.0705 -0.2011 -0.3549
17880TIP3    H175055   3.259   4.125   4.981  1.0559  0.4722 -2.4749
17880TIP3    H275056   3.367   4.101   5.085  0.5924 -1.6667 -2.4306
17881TIP3   OH275057   1.838   2.709   2.117  0.0444 -0.2271  0.1572
17881TIP3    H175058   1.819   2.754   2.035 -0.9659 -0.8976  0.0080
17881TIP3    H275059   1.781   2.632   2.117 -0.5885  0.1852  1.8410
17882TIP3   OH275060   0.728   3.105  14.866  0.4080  0.2690 -0.4335
17882TIP3    H175061   0.661   3.121  14.932  0.2961 -1.0314 -0.2009
17882TIP3    H275062   0.683   3.056  14.798  0.3954  2.0293 -1.7638
17883TIP3   OH275063   1.446   4.582  14.298 -0.1658  0.8206 -0.1979
17883TIP3    H175064   1.405   4.496  14.294  0.0690  0.7182 -0.5392
17883TIP3    H275065   1.509   4.582  14.225  1.2905  0.5248  1.0034
17884TIP3   OH275066   6.647   4.677  17.194 -0.2306  0.6584 -0.5999
17884TIP3    H175067   6.659   4.743  17.126 -0.4078  1.6987  0.3644
17884TIP3    H275068   6.677   4.595  17.153 -0.5899  1.2037 -2.0111
17885TIP3   OH275069   4.932   0.912   4.250 -0.3756  0.8560  0.0653
17885TIP3    H175070   4.911   0.891   4.341 -3.6989 -0.8036 -0.8992
17885TIP3    H275071   5.011   0.862   4.231  1.3982  2.5620  2.3896
17886TIP3   OH275072   3.208   1.728  12.334 -0.3876  0.6215 -0.2080
17886TIP3    H175073   3.254   1.734  12.418  0.7008 -1.7419 -0.5683
17886TIP3    H275074   3.127   1.681  12.355  0.1981 -0.5789 -0.5500
17887TIP3   OH275075   5.072   3.797   0.629  0.0464 -0.2840 -0.4153
17887TIP3    H175076   5.087   3.872   0.570  0.0831 -0.0311 -0.0897
17887TIP3    H275077   5.141   3.735   0.606 -0.0922 -0.2929 -0.8101
17888TIP3   OH275078   5.983   1.728   0.011  0.0275 -0.0990  0.4098
17888TIP3    H175079   6.000   1.663   0.079 -1.2430 -0.7881  0.1013
17888TIP3    H275080   5.893   1.711  -0.016 -0.0490  1.2642 -0.2652
17889TIP3   OH275081   1.071   2.169  11.170  0.1088 -0.2675  0.0042
17889TIP3    H175082   1.098   2.124  11.090 -0.2217  0.2604 -0.4156
17889TIP3    H275083   1.100   2.112  11.241 -2.0122 -2.1670 -0.5076
17890TIP3   OH275084   3.915   1.763  15.806 -0.0500  0.3798 -0.0121
17890TIP3    H175085   3.987   1.777  15.867  0.2812 -1.1038 -0.0222
17890TIP3    H275086   3.837   1.762  15.861  0.2243 -0.7219  0.3984
17891TIP3   OH275087   3.893   5.516  16.422 -0.1313 -0.3714  0.3442
17891TIP3    H175088   3.839   5.572  16.478 -0.3625  1.1295 -1.3054
17891TIP3    H275089   3.969   5.569  16.401  0.0731 -1.0012 -0.5488
17892TIP3   OH275090   1.381   4.758  14.508 -0.2086  0.1026 -0.0137
17892TIP3    H175091   1.415   4.713  14.431 -1.2258 -0.9816  0.1439
17892TIP3    H275092   1.457   4.771  14.564  0.0543 -1.8104  0.1158
17893TIP3   OH275093   1.535   5.701  14.072  0.1814 -0.0196  0.0729
17893TIP3    H175094   1.476   5.772  14.047 -0.5745 -0.5261  0.3799
17893TIP3    H275095   1.595   5.740  14.136 -0.6907  0.1760  0.7940
17894TIP3   OH275096   3.154   1.959   1.149 -0.0800  0.5542  0.1233
17894TIP3    H175097   3.099   1.887   1.182  0.3848  0.1476  0.0191
17894TIP3    H275098   3.091   2.024   1.116 -0.5196  0.4465  0.7291
17895TIP3   OH275099   4.136   2.024   2.617  0.0737  0.0936  0.0774
17895TIP3    H175100   4.121   1.930   2.605  0.3904  0.2274 -1.6790
17895TIP3    H275101   4.231   2.034   2.614  0.0761  0.4088  0.9197
17896TIP3   OH275102   2.398   4.590   3.431 -0.0630  0.1973  0.9348
17896TIP3    H175103   2.441   4.568   3.348 -1.3134  1.8931 -0.2372
17896TIP3    H275104   2.374   4.505   3.469 -2.1006 -0.6542 -1.9170
17897TIP3   OH275105   0.732   5.522  10.619 -0.0270 -0.0046 -0.1697
17897TIP3    H175106   0.704   5.505  10.529  1.0272 -1.9257 -0.1656
17897TIP3    H275107   0.684   5.458  10.672 -1.6754  1.9700  0.8763
17898TIP3   OH275108   5.977   1.692  13.118  0.0416  0.0225 -0.2533
17898TIP3    H175109   5.948   1.760  13.057  0.5331 -0.2696 -0.8349
17898TIP3    H275110   6.068   1.675  13.093  0.4911  0.4139  1.0460
17899TIP3   OH275111   4.071   4.917   5.077  0.1283 -0.1243 -0.3508
17899TIP3    H175112   4.067   4.882   5.165 -0.3637 -0.1040 -0.3626
17899TIP3    H275113   3.988   4.892   5.037  0.7955 -1.0727 -1.1706
17900TIP3   OH275114   3.714   0.110   4.184  0.3045  0.1474  0.1017
17900TIP3    H175115   3.747   0.199   4.198  0.2229  0.2031 -0.0609
17900TIP3    H275116   3.706   0.073   4.272 -2.8523  1.4529  0.4992
17901TIP3   OH275117   2.485   0.941  13.972  0.1344  0.1259  0.0522
17901TIP3    H175118   2.578   0.932  13.992  0.6446  0.0360 -2.1364
17901TIP3    H275119   2.471   1.035  13.962  0.0902  0.1101 -0.0403
17902TIP3   OH275120   2.514   0.961   3.784  0.5640  0.6600 -0.1486
17902TIP3    H175121   2.489   0.906   3.858  0.8305  0.6655 -0.0565
17902TIP3    H275122   2.501   0.905   3.707 -1.6225  1.2632 -0.2896
17903TIP3   OH275123   1.031   2.313  11.749  0.4269 -0.8075  0.0491
17903TIP3    H175124   1.056   2.232  11.704 -2.4797 -0.4164 -2.6259
17903TIP3    H275125   0.942   2.330  11.720  0.8446  3.3208  0.5966
17904TIP3   OH275126   1.982   2.750   3.679  0.5700 -0.0149  0.3407
17904TIP3    H175127   1.998   2.665   3.721  1.4186 -0.0598 -0.0713
17904TIP3    H275128   2.063   2.799   3.690 -0.4883  1.4841  2.2191
17905TIP3   OH275129   2.277   2.968   0.859 -0.3107 -0.1016 -0.4368
17905TIP3    H175130   2.339   2.953   0.929  0.3142 -1.4473 -1.2420
17905TIP3    H275131   2.331   2.992   0.783 -0.8852  0.2596 -0.7444
17906TIP3   OH275132   5.159   0.222   6.026  0.0595  0.7112 -0.3960
17906TIP3    H175133   5.187   0.131   6.024 -0.5335  0.5196  0.0510
17906TIP3    H275134   5.089   0.227   5.961 -3.2314 -0.2702  2.8091
17907TIP3   OH275135   2.570   4.886   5.938 -0.0358 -0.4638  0.6563
17907TIP3    H175136   2.614   4.860   6.019 -0.2936  0.1413  0.9998
17907TIP3    H275137   2.633   4.866   5.869  0.2074 -0.9420  1.0073
17908TIP3   OH275138   0.021   6.250  11.413  0.2374 -0.1340  0.2938
17908TIP3    H175139  -0.037   6.318  11.447  0.1075 -0.9179  1.7304
17908TIP3    H275140   0.031   6.271  11.320 -0.8714  1.0601  0.4145
17909TIP3   OH275141   4.518   0.717   5.544 -0.3276  0.2105 -0.7190
17909TIP3    H175142   4.581   0.725   5.615 -1.0092 -0.4273 -0.0166
17909TIP3    H275143   4.482   0.629   5.554  1.7597 -1.1553 -3.7419
17910TIP3   OH275144   1.113   5.733  17.251  0.1395 -1.1377  0.3130
17910TIP3    H175145   1.117   5.787  17.172 -0.4534 -2.4580 -0.6574
17910TIP3    H275146   1.160   5.784  17.317  3.3239 -1.2642 -1.6363
17911TIP3   OH275147   6.492   0.912   5.509  0.0121 -0.6529  0.3314
17911TIP3    H175148   6.573   0.962   5.506  0.1207 -0.8322  0.2457
17911TIP3    H275149   6.468   0.899   5.417 -0.6942  0.3266  0.3653
17912TIP3   OH275150   4.126   5.872   5.177 -0.2253  0.0121 -0.6328
17912TIP3    H175151   4.082   5.948   5.139  0.7516  1.1886  0.5100
17912TIP3    H275152   4.055   5.810   5.194 -1.3177  1.4115  0.1575
17913TIP3   OH275153   0.562   0.254   3.820 -0.4155  0.6109 -0.1685
17913TIP3    H175154   0.614   0.179   3.790 -0.5389  1.2234 -2.0863
17913TIP3    H275155   0.626   0.324   3.831 -0.6154  0.9252 -0.9534
17914TIP3   OH275156   3.209   2.094   4.291 -0.1500  0.0466 -0.9672
17914TIP3    H175157   3.226   2.073   4.383 -0.2670 -0.7238 -1.1169
17914TIP3    H275158   3.138   2.158   4.295  0.8235  1.1339 -0.4687
17915TIP3   OH275159   4.272   0.300  16.612 -0.0353 -0.6226  0.0964
17915TIP3    H175160   4.295   0.208  16.619  1.4230 -0.2771  0.1868
17915TIP3    H275161   4.229   0.308  16.527  2.3464 -0.9404 -1.2294
17916TIP3   OH275162   0.552   1.684  13.060 -0.6163  0.2320 -0.0252
17916TIP3    H175163   0.610   1.741  13.111 -0.0621  1.3028 -1.7791
17916TIP3    H275164   0.466   1.727  13.066 -0.3920  0.7814 -0.5767
17917TIP3   OH275165   1.953   5.997  15.740  0.5965  0.1839 -0.4280
17917TIP3    H175166   1.878   5.942  15.763 -0.9879  2.2021 -0.5655
17917TIP3    H275167   2.005   5.942  15.680  0.2080 -1.8907  1.0116
17918TIP3   OH275168   6.316   4.034  11.861 -1.1313  0.5315 -0.2999
17918TIP3    H175169   6.411   4.037  11.850 -1.1438  0.5375 -0.4065
17918TIP3    H275170   6.302   4.030  11.956 -1.0131  0.0015 -0.3037
17919TIP3   OH275171   2.138   5.068  16.874 -0.3441  0.3639 -0.4015
17919TIP3    H175172   2.175   5.136  16.930 -0.7535 -0.6441  1.1575
17919TIP3    H275173   2.213   5.033  16.826 -0.1980  2.2036 -1.6189
17920TIP3   OH275174   1.648   3.192   2.953  0.0419 -0.4212  0.4243
17920TIP3    H175175   1.735   3.151   2.958 -0.7040 -2.0544  0.7598
17920TIP3    H275176   1.663   3.283   2.978  1.3497 -1.1516  2.6062
17921TIP3   OH275177   0.753   0.048  10.521 -0.5851 -0.0568 -0.0951
17921TIP3    H175178   0.726   0.022  10.610 -0.1945 -0.8387 -0.1930
17921TIP3    H275179   0.699  -0.006  10.464 -3.0180  2.5241 -0.4569
17922TIP3   OH275180   4.473   2.243   5.230 -0.0772 -0.1482 -0.1134
17922TIP3    H175181   4.528   2.193   5.169 -0.4690 -0.9293  0.1730
17922TIP3    H275182   4.522   2.324   5.244  0.0300  0.0504 -1.4612
17923TIP3   OH275183   4.667   4.693   3.651  0.6898 -0.0574 -0.1576
17923TIP3    H175184   4.720   4.771   3.638 -0.2459  1.3065  3.2377
17923TIP3    H275185   4.617   4.684   3.570  0.1323  3.4714 -0.3558
17924TIP3   OH275186   0.844   5.111   3.570  0.7379  0.1124  0.3822
17924TIP3    H175187   0.755   5.079   3.560  0.9546 -0.4934  0.3300
17924TIP3    H275188   0.841   5.201   3.539 -0.1343  0.5295  1.6109
17925TIP3   OH275189   5.579   0.391  15.215 -0.2290 -0.2377 -0.6034
17925TIP3    H175190   5.592   0.316  15.273 -0.9005  1.4364  1.8643
17925TIP3    H275191   5.665   0.432  15.210 -0.3924  0.2074  0.1126
17926TIP3   OH275192   6.552   1.910  15.577  0.1523 -0.0966 -0.1355
17926TIP3    H175193   6.634   1.939  15.615  0.7023 -0.7390 -0.8046
17926TIP3    H275194   6.515   1.851  15.643  0.9693 -0.9902 -0.4502
17927TIP3   OH275195   6.358   0.723  16.985 -0.2870  0.2080 -0.3479
17927TIP3    H175196   6.424   0.788  16.959  1.6610 -1.1447  0.8565
17927TIP3    H275197   6.331   0.681  16.904  2.5894 -1.1657 -0.7243
17928TIP3   OH275198   2.959   0.930  10.752  0.3251 -0.0107 -0.2205
17928TIP3    H175199   3.054   0.931  10.761  0.4702  1.0576 -1.5304
17928TIP3    H275200   2.940   1.002  10.691 -1.3475 -0.0093  0.2577
17929TIP3   OH275201   6.490   6.486   4.109 -0.0481 -0.0944  0.1644
17929TIP3    H175202   6.580   6.455   4.098  0.7971  1.2301  2.5964
17929TIP3    H275203   6.469   6.529   4.026  1.1247 -1.3695 -0.8403
17930TIP3   OH275204   6.707   2.174  13.131 -0.6653 -0.1378 -0.3649
17930TIP3    H175205   6.645   2.186  13.059  0.3123  1.4534 -0.9909
17930TIP3    H275206   6.762   2.252  13.128  3.5382 -2.8643 -1.9439
17931TIP3   OH275207   1.884   3.935  14.041 -0.4526  0.1218 -0.2951
17931TIP3    H175208   1.910   3.850  14.077  0.4002  0.9848  1.2414
17931TIP3    H275209   1.927   3.999  14.098  0.8138  1.6152 -2.7715
17932TIP3   OH275210   6.412   1.412  14.239  0.4287 -0.1064  0.3842
17932TIP3    H175211   6.329   1.374  14.268  0.0299  1.0479  0.8410
17932TIP3    H275212   6.400   1.429  14.146  0.9671 -1.9542 -0.0507
17933TIP3   OH275213   1.221   0.683   5.332  0.6386  0.1854  0.3613
17933TIP3    H175214   1.291   0.644   5.279 -0.0970 -1.9728  0.8759
17933TIP3    H275215   1.144   0.679   5.276  0.5514  1.0391  0.4017
17934TIP3   OH275216   5.546   2.488  16.680 -0.2158  0.1169  0.1401
17934TIP3    H175217   5.610   2.420  16.700 -1.0506 -0.8516 -0.4196
17934TIP3    H275218   5.472   2.470  16.738 -0.3158  0.7338  0.2112
17935TIP3   OH275219   5.517   1.964  12.829 -0.3871  0.4316  0.4607
17935TIP3    H175220   5.464   1.959  12.749 -0.5623 -0.7741  0.6399
17935TIP3    H275221   5.603   1.992  12.799 -0.5164  0.2166 -0.1216
17936TIP3   OH275222   5.125   6.654  12.379 -0.4218 -0.7230 -0.2515
17936TIP3    H175223   5.177   6.700  12.445  0.6617  0.6868 -1.9856
17936TIP3    H275224   5.167   6.569  12.371  0.4804 -0.2846 -0.3051
17937TIP3   OH275225   3.245   6.738  11.793 -0.4808 -0.3676 -0.8741
17937TIP3    H175226   3.309   6.669  11.809 -0.4371 -0.1727 -0.1577
17937TIP3    H275227   3.191   6.740  11.872 -1.7924 -0.9566 -1.7271
17938TIP3   OH275228   0.902   6.274  15.861 -0.2450  0.3109 -0.1183
17938TIP3    H175229   0.934   6.310  15.944  0.6612  0.8457 -0.6818
17938TIP3    H275230   0.881   6.183  15.881  2.5083 -0.3462  0.1045
17939TIP3   OH275231   0.207   5.445   1.056 -0.0194 -0.4774  0.8890
17939TIP3    H175232   0.195   5.378   0.989  2.4977  0.9735 -1.2226
17939TIP3    H275233   0.259   5.403   1.124  0.5018 -1.0143  0.1735
17940TIP3   OH275234   2.882   4.524   3.634  0.2001 -0.3961 -0.0071
17940TIP3    H175235   2.913   4.525   3.725 -0.3759  0.3735  0.1942
17940TIP3    H275236   2.954   4.564   3.584  0.5612 -0.9180  0.0903
17941TIP3   OH275237   5.794   1.254  12.637  0.4809  0.2603 -0.1264
17941TIP3    H175238   5.742   1.300  12.570  1.4385  2.0727  0.3094
17941TIP3    H275239   5.737   1.252  12.714  1.1725  2.7796  0.5386
17942TIP3   OH275240   4.888   5.415  11.649 -0.2513  0.4952  0.8109
17942TIP3    H175241   4.978   5.393  11.673 -0.2466  1.5508  1.8940
17942TIP3    H275242   4.897   5.487  11.586 -0.3297  0.0676  0.3078
17943TIP3   OH275243   0.839   3.032  12.418 -0.2732  0.3571  0.5467
17943TIP3    H175244   0.854   3.126  12.415 -1.3738  0.5525  0.7353
17943TIP3    H275245   0.885   2.998  12.341  0.5327  0.9720  0.7343
17944TIP3   OH275246   6.488   1.927  16.277 -0.3848  0.3394  0.3444
17944TIP3    H175247   6.507   1.876  16.198 -0.2991  1.9053 -0.6897
17944TIP3    H275248   6.540   1.885  16.346  2.6634  1.2081 -1.2463
17945TIP3   OH275249   3.176   4.949   5.672 -0.0120 -0.1904 -0.1158
17945TIP3    H175250   3.243   5.017   5.660 -1.6578  1.5699  0.2018
17945TIP3    H275251   3.121   4.982   5.743 -0.7303 -2.0063  0.2185
17946TIP3   OH275252   6.023   1.965  14.107 -0.0134 -0.1731 -0.1534
17946TIP3    H175253   6.106   1.920  14.091 -0.0104 -0.8840  1.6399
17946TIP3    H275254   5.969   1.942  14.032  1.2899  0.0686 -1.2132
17947TIP3   OH275255   4.084   0.868   4.811 -0.0271 -0.1488  0.0390
17947TIP3    H175256   4.048   0.914   4.887 -1.6321 -0.8066 -0.2809
17947TIP3    H275257   4.177   0.890   4.812  0.3682 -1.3468  3.0850
17948TIP3   OH275258   4.827   2.600  12.816  0.3116  0.1085 -0.1465
17948TIP3    H175259   4.894   2.661  12.786 -0.1123 -0.0097 -1.3627
17948TIP3    H275260   4.780   2.573  12.737  0.1950 -1.4544  0.4049
17949TIP3   OH275261   1.059   2.971   2.658  0.8722 -0.3356 -0.0976
17949TIP3    H175262   0.977   2.958   2.705  1.6719 -0.9587  1.1571
17949TIP3    H275263   1.036   3.031   2.587 -0.7823 -0.9225 -0.1033
17950TIP3   OH275264   2.376   6.710   0.155  0.0183  0.8017  1.0002
17950TIP3    H175265   2.439   6.640   0.174  0.8324  1.0542 -0.5608
17950TIP3    H275266   2.332   6.726   0.238 -1.8660 -3.1210  0.9945
17951TIP3   OH275267   3.971   1.032  14.848  0.1730  0.9612  0.1987
17951TIP3    H175268   3.895   1.062  14.896  0.0409 -0.5167  0.9681
17951TIP3    H275269   4.007   1.111  14.807 -2.0178  1.6272 -0.5784
17952TIP3   OH275270   4.024   3.682   4.703  1.0901  0.1773 -0.1327
17952TIP3    H175271   4.070   3.603   4.676  0.9682  0.0477  0.0391
17952TIP3    H275272   4.035   3.685   4.798  2.9923  1.5303 -0.3379
17953TIP3   OH275273   0.986   3.808  12.876 -0.1350  0.3072  0.0429
17953TIP3    H175274   0.997   3.861  12.955  1.8002  1.2064 -0.7678
17953TIP3    H275275   1.036   3.854  12.809  2.1109 -2.7345 -0.6131
17954TIP3   OH275276   4.455   0.113  16.823 -0.2088  0.2196  0.8735
17954TIP3    H175277   4.395   0.095  16.895 -0.4970 -1.9439  0.1679
17954TIP3    H275278   4.415   0.070  16.747  0.6161  1.5254 -0.3577
17955TIP3   OH275279   3.755   0.038   4.874  0.0590  0.7264  0.4393
17955TIP3    H175280   3.671   0.017   4.916  0.6834  0.2410  1.4982
17955TIP3    H275281   3.809   0.072   4.945  1.4004 -0.8423  0.2242
17956TIP3   OH275282   4.910   4.852  11.473 -0.1071  0.1584  0.4190
17956TIP3    H175283   4.861   4.863  11.392 -0.5741  0.5047  0.7452
17956TIP3    H275284   4.970   4.780  11.455 -0.3545  0.0922 -0.1633
17957TIP3   OH275285   3.530   2.528  12.609  0.0400 -0.0635  0.2614
17957TIP3    H175286   3.607   2.577  12.581 -0.6276  0.5022 -0.6637
17957TIP3    H275287   3.506   2.475  12.532  0.0613 -0.9522  0.8558
17958TIP3   OH275288   4.625   3.735   4.611  0.1564  0.4377  0.0582
17958TIP3    H175289   4.649   3.809   4.554 -2.6764  1.9588  0.6795
17958TIP3    H275290   4.590   3.669   4.551  0.5561  0.5192 -0.2751
17959TIP3   OH275291   5.448   0.551   1.922 -0.2152 -0.3484  0.1375
17959TIP3    H175292   5.438   0.638   1.959  0.8047 -0.0157 -0.3177
17959TIP3    H275293   5.418   0.492   1.991 -1.1671  0.3610  0.3541
17960TIP3   OH275294   0.443   1.772  16.669 -0.4621  0.4432  0.0272
17960TIP3    H175295   0.448   1.809  16.581 -2.7935  1.1961  0.1585
17960TIP3    H275296   0.468   1.845  16.726 -0.0720  0.2818  0.0726
17961TIP3   OH275297   2.351   4.382  13.714 -0.3267 -0.4370 -0.4541
17961TIP3    H175298   2.330   4.331  13.792  0.6440  0.0635  0.1540
17961TIP3    H275299   2.268   4.424  13.690 -0.2762  0.7448  1.3170
17962TIP3   OH275300   1.822   3.300   2.152  0.6539  0.0781  0.3303
17962TIP3    H175301   1.773   3.218   2.158  0.7760 -0.2110 -1.9041
17962TIP3    H275302   1.764   3.365   2.193 -0.5463 -0.7026 -0.0650
17963TIP3   OH275303   5.107   3.254  12.338  0.0328  0.0006 -0.4018
17963TIP3    H175304   5.202   3.258  12.322 -0.0700  2.7364 -0.7298
17963TIP3    H275305   5.099   3.270  12.432 -0.1079 -0.4449 -0.3361
17964TIP3   OH275306   1.027   0.017  11.957  0.0845  0.0515 -0.1234
17964TIP3    H175307   1.088   0.083  11.924  0.3160 -0.6889 -1.2087
17964TIP3    H275308   0.944   0.036  11.912 -0.4252  0.8435  1.0910
17965TIP3   OH275309   0.809   2.470  13.251  0.5548 -0.5045 -0.0162
17965TIP3    H175310   0.813   2.473  13.346 -0.4143  1.3204  0.0093
17965TIP3    H275311   0.863   2.544  13.222  1.8237 -1.7379 -0.9587
17966TIP3   OH275312   5.392   4.208   0.029  0.2745 -0.1251  0.5758
17966TIP3    H175313   5.440   4.125   0.024 -0.4103 -0.4886 -0.0056
17966TIP3    H275314   5.306   4.184   0.062  0.2494  0.4353  0.9280
17967TIP3   OH275315   1.076   1.090   4.789  0.0884 -0.1384  0.5678
17967TIP3    H175316   1.169   1.096   4.771  0.4691 -1.3100  1.9151
17967TIP3    H275317   1.044   1.180   4.786  1.6770  0.5207  2.1197
17968TIP3   OH275318   6.075   4.398   1.564  0.0014 -0.2528 -0.1597
17968TIP3    H175319   6.026   4.479   1.548  2.2223  0.9184 -1.5475
17968TIP3    H275320   6.055   4.343   1.489 -0.0980 -0.2529 -0.1337
17969TIP3   OH275321   2.568   0.927  13.669  0.3630  0.1380  0.6701
17969TIP3    H175322   2.591   0.841  13.634 -0.9107 -0.8065  2.0080
17969TIP3    H275323   2.584   0.919  13.763 -0.0918  1.2502  0.8534
17970TIP3   OH275324   4.557   2.318   5.980  0.8133 -0.1754  0.4468
17970TIP3    H175325   4.636   2.288   6.025  2.1624  1.0142 -1.0200
17970TIP3    H275326   4.580   2.402   5.943 -1.3414  0.4582  0.3802
17971TIP3   OH275327   2.675   3.100   4.398 -0.0429  0.2481  0.1154
17971TIP3    H175328   2.735   3.173   4.379  0.6265 -0.3391 -0.0513
17971TIP3    H275329   2.611   3.137   4.459 -0.6074  1.3983 -1.1272
17972TIP3   OH275330   4.719   4.446  10.778 -0.0953  0.4532 -0.4232
17972TIP3    H175331   4.778   4.379  10.743  1.1742  1.8091 -0.9609
17972TIP3    H275332   4.636   4.399  10.792  0.9356 -1.3895 -0.0873
17973TIP3   OH275333   3.378   3.237  15.681 -0.2856  0.1740 -0.2146
17973TIP3    H175334   3.370   3.179  15.606 -0.2718 -0.1263  0.0156
17973TIP3    H275335   3.314   3.307  15.664  1.5215  1.5545 -1.7979
17974TIP3   OH275336   1.380   4.004  16.175  0.6836 -0.3065 -0.5880
17974TIP3    H175337   1.324   3.983  16.100 -0.0409 -0.3740 -0.0412
17974TIP3    H275338   1.420   3.920  16.198 -0.8928 -0.8035  0.5282
17975TIP3   OH275339   4.553   6.187   3.141 -0.2045 -0.0871 -0.5687
17975TIP3    H175340   4.509   6.103   3.156 -0.3698  0.1309  0.2169
17975TIP3    H275341   4.507   6.249   3.198  0.4664  0.3565 -0.4980
17976TIP3   OH275342   3.555   2.559  14.444 -0.3898  0.0685 -0.4658
17976TIP3    H175343   3.533   2.512  14.524 -3.0148  1.1393 -0.4731
17976TIP3    H275344   3.640   2.599  14.462 -0.2672 -0.8805  1.2209
17977TIP3   OH275345   5.260   6.643  15.663  0.6328 -0.1865 -0.3049
17977TIP3    H175346   5.239   6.735  15.680 -1.0875 -0.5701 -0.1855
17977TIP3    H275347   5.332   6.624  15.723 -0.5810  0.4582  1.4571
17978TIP3   OH275348   0.778   2.422   2.226  0.6976 -0.2503  0.1723
17978TIP3    H175349   0.689   2.447   2.202  0.2942  1.1405  2.7108
17978TIP3    H275350   0.801   2.352   2.165 -2.1126 -0.6431 -0.5760
17979TIP3   OH275351   2.217   5.874  15.747 -0.0129 -0.7074 -0.3211
17979TIP3    H175352   2.305   5.839  15.739 -0.4672 -1.7253 -1.0970
17979TIP3    H275353   2.219   5.956  15.699  0.5432 -0.6751 -0.2451
17980TIP3   OH275354   1.838   5.614  16.130  0.2107 -0.3250  0.5873
17980TIP3    H175355   1.893   5.608  16.208  0.0113 -1.6288  0.6533
17980TIP3    H275356   1.886   5.565  16.063 -0.7094 -1.2311  0.5621
17981TIP3   OH275357   5.317   1.963   1.018  0.0975  0.8175  0.0152
17981TIP3    H175358   5.383   1.903   0.983  0.7061  0.5556  1.5347
17981TIP3    H275359   5.234   1.934   0.978  0.6120 -0.0606 -0.4374
17982TIP3   OH275360   0.352   0.843   4.440  0.2942  0.1189  0.4664
17982TIP3    H175361   0.414   0.915   4.429  2.7230 -1.7923  0.6686
17982TIP3    H275362   0.375   0.805   4.525 -0.0023 -1.6487 -0.1997
17983TIP3   OH275363   1.872   6.382  17.360  0.3900  0.0290 -0.2691
17983TIP3    H175364   1.958   6.412  17.389  0.4215  0.0308 -0.3665
17983TIP3    H275365   1.811   6.449  17.391  0.3178 -0.4009  0.5747
17984TIP3   OH275366   2.261   6.227   6.316 -0.0035  0.0230  0.3685
17984TIP3    H175367   2.340   6.276   6.338  0.7595 -0.0561 -1.9283
17984TIP3    H275368   2.219   6.278   6.247 -0.9067 -0.9419  0.1810
17985TIP3   OH275369   4.173   2.005   2.984 -0.6207 -0.2891  0.7314
17985TIP3    H175370   4.234   1.963   2.923  0.6367 -0.0107  1.7509
17985TIP3    H275371   4.140   2.081   2.937  0.7970  0.2652  0.5925
17986TIP3   OH275372   5.465   5.204  16.318  0.6091  0.4254 -0.2243
17986TIP3    H175373   5.552   5.226  16.285  0.6152  0.5200 -0.1441
17986TIP3    H275374   5.482   5.154  16.398  0.5889  0.4627 -0.1956
17987TIP3   OH275375   1.306   0.765   1.729 -0.3746 -0.5447 -0.2236
17987TIP3    H175376   1.310   0.841   1.670 -0.1324 -0.6754 -0.3761
17987TIP3    H275377   1.389   0.767   1.776 -0.8972  0.0285  0.7026
17988TIP3   OH275378   3.998   1.490  12.644 -0.4196  0.0165 -0.2803
17988TIP3    H175379   3.951   1.520  12.722  0.2426 -1.0078  0.5415
17988TIP3    H275380   3.938   1.429  12.602 -0.0512 -0.8736  0.4696
17989TIP3   OH275381   1.443   6.738   5.179 -0.6854 -0.7181 -0.2556
17989TIP3    H175382   1.487   6.822   5.194 -0.8672 -0.7132  0.2774
17989TIP3    H275383   1.428   6.703   5.267 -1.7156 -0.7261 -0.4244
17990TIP3   OH275384   3.506   5.938  17.115  0.1199  0.1518 -0.0884
17990TIP3    H175385   3.455   6.010  17.154 -0.9547 -1.1494  1.0026
17990TIP3    H275386   3.597   5.958  17.139 -0.3658  0.1429  1.9086
17991TIP3   OH275387   6.068   3.320  16.504 -0.0914  0.3786 -0.6124
17991TIP3    H175388   5.975   3.340  16.515 -0.6115 -2.4237  0.8944
17991TIP3    H275389   6.112   3.375  16.568 -1.0829 -0.5781  0.9409
17992TIP3   OH275390   6.281   6.641   2.277  0.2998 -0.0630  0.1239
17992TIP3    H175391   6.195   6.664   2.311  0.2790  1.0390 -0.6398
17992TIP3    H275392   6.340   6.705   2.316  0.2885  1.1904 -1.7967
17993TIP3   OH275393   0.545   3.074  14.520  1.1696  0.6238  0.3118
17993TIP3    H175394   0.601   3.011  14.566  2.6441 -0.1361 -2.3092
17993TIP3    H275395   0.459   3.062  14.559  1.8734 -1.4977  1.3927
17994TIP3   OH275396   0.534   0.661  14.893 -0.3572 -0.0045  0.0313
17994TIP3    H175397   0.487   0.739  14.922  1.0971  0.9488 -0.1289
17994TIP3    H275398   0.624   0.675  14.920  0.3315 -0.7357 -1.7190
17995TIP3   OH275399   0.986   3.324  11.459  0.2335  0.0194  0.5160
17995TIP3    H175400   0.968   3.341  11.551  2.2099  0.2131  0.9105
17995TIP3    H275401   1.013   3.232  11.456  1.1461  0.2785  0.3221
17996TIP3   OH275402   1.073   6.157   0.523 -0.3372 -0.0715 -0.5140
17996TIP3    H175403   1.103   6.243   0.494 -2.6221  1.4452  1.2263
17996TIP3    H275404   1.003   6.177   0.585 -1.3315 -3.2281 -0.4913
17997TIP3   OH275405   6.450   2.298   1.774  0.3179 -0.2523 -0.0170
17997TIP3    H175406   6.370   2.345   1.801  0.0305 -0.9955  0.4494
17997TIP3    H275407   6.479   2.253   1.853  0.6164 -0.8265 -0.4457
17998TIP3   OH275408   5.017   0.555   4.263 -0.3835 -0.3899  0.1593
17998TIP3    H175409   5.092   0.614   4.258 -2.1037  1.9434  0.3093
17998TIP3    H275410   5.016   0.511   4.178 -0.9167  2.2950 -1.3416
17999TIP3   OH275411   6.371   1.403  16.943  0.3173 -0.6472 -0.2179
17999TIP3    H175412   6.322   1.482  16.923 -1.2921 -0.8407  2.3771
17999TIP3    H275413   6.341   1.339  16.879 -0.2770  0.1693 -0.7710
18000TIP3   OH275414   0.551   5.859  14.410  0.0312  0.2769 -0.3061
18000TIP3    H175415   0.526   5.768  14.393  0.3326 -0.1454  1.2692
18000TIP3    H275416   0.643   5.854  14.436  0.3250  1.1678 -1.1064
18001TIP3   OH275417   3.875   3.749   4.284 -0.2649 -0.2256  0.2407
18001TIP3    H175418   3.786   3.742   4.250 -0.0872  0.1610 -0.3252
18001TIP3    H275419   3.906   3.658   4.287 -0.5775 -0.3369  0.1618
18002TIP3   OH275420   0.491   5.203  17.042 -0.5733 -0.0246  0.3956
18002TIP3    H175421   0.508   5.190  17.135  1.2077  0.2563  0.1490
18002TIP3    H275422   0.535   5.129  17.000 -0.2843  0.5209 -0.2797
18003TIP3   OH275423   5.695   4.126  11.527  0.0195 -0.4523  0.1162
18003TIP3    H175424   5.650   4.192  11.475  1.2872  0.3151 -0.0735
18003TIP3    H275425   5.750   4.079  11.464  0.9456 -0.0589  0.5939
18004TIP3   OH275426   2.550   2.291  15.834 -0.2230  0.1381  0.4409
18004TIP3    H175427   2.505   2.339  15.765  1.6027  0.4928 -0.5870
18004TIP3    H275428   2.514   2.203  15.830 -1.8784  0.7800  0.7063
18005TIP3   OH275429   4.343   5.978   5.423  0.1292 -0.0928 -0.2002
18005TIP3    H175430   4.258   5.937   5.407 -0.2359  1.1272 -1.5685
18005TIP3    H275431   4.405   5.905   5.424 -0.7519 -0.8625 -0.5442
18006TIP3   OH275432   1.543   2.499   4.365 -0.1806 -0.1036  0.1932
18006TIP3    H175433   1.525   2.429   4.303  1.0833  0.5205 -0.9370
18006TIP3    H275434   1.506   2.577   4.324 -1.4322 -0.0379  1.3595
18007TIP3   OH275435   0.827   4.588  17.137  0.2712 -0.0478 -0.1243
18007TIP3    H175436   0.769   4.526  17.181  2.7746 -2.3385  0.1910
18007TIP3    H275437   0.769   4.637  17.079 -1.7397 -3.9357 -1.8155
18008TIP3   OH275438   5.703   3.539  11.224  0.0051 -0.1626  0.3721
18008TIP3    H175439   5.690   3.460  11.171 -0.4537 -0.3424  0.7446
18008TIP3    H275440   5.790   3.570  11.200 -0.0153 -0.4950 -0.1549
18009TIP3   OH275441   3.872   1.613   0.457  0.3053  0.4961 -0.2400
18009TIP3    H175442   3.821   1.694   0.457 -0.3664  0.0870  0.5296
18009TIP3    H275443   3.893   1.598   0.365 -1.9015  0.1073 -0.7181
18010TIP3   OH275444   6.359   5.023   3.752 -0.1636 -0.2952  0.1140
18010TIP3    H175445   6.419   4.956   3.721 -0.8496 -1.0135  0.3026
18010TIP3    H275446   6.283   5.016   3.693 -0.3662  0.1140  0.3187
18011TIP3   OH275447   4.581   4.045   9.884  0.2041  0.1909  0.4481
18011TIP3    H175448   4.544   3.976   9.939  0.8226  0.6864  1.5165
18011TIP3    H275449   4.650   4.084   9.937  1.5195  0.0361 -1.0594
18012TIP3   OH275450   1.017   4.343  14.619 -0.7046  0.1571 -0.6432
18012TIP3    H175451   1.083   4.389  14.567 -0.4341  0.7201  0.1881
18012TIP3    H275452   0.935   4.386  14.596 -0.2685  2.2645  1.3502
18013TIP3   OH275453   2.604   5.093  10.790 -0.4889 -0.2547  0.0447
18013TIP3    H175454   2.557   5.146  10.855  0.5567  0.4434  0.2487
18013TIP3    H275455   2.599   5.144  10.709 -0.9969 -0.6931 -0.2117
18014TIP3   OH275456   4.363   0.823   0.430 -0.6881 -0.0721 -0.2245
18014TIP3    H175457   4.279   0.841   0.472 -0.2638 -0.6588  0.9193
18014TIP3    H275458   4.391   0.908   0.396 -0.5132  0.6900  1.7045
18015TIP3   OH275459   6.337   3.456  11.166 -0.5578 -1.0294 -0.3130
18015TIP3    H175460   6.374   3.437  11.252 -0.9749  3.0918  0.9952
18015TIP3    H275461   6.409   3.496  11.117 -1.4586  0.8296 -0.1800
18016TIP3   OH275462   1.188   4.870  14.175  0.1768 -0.0329 -0.4081
18016TIP3    H175463   1.185   4.917  14.258  0.4413  0.6471 -0.7693
18016TIP3    H275464   1.281   4.856  14.158  0.0789 -1.5648  0.1519
18017TIP3   OH275465   3.791   4.939   1.068  0.1878 -0.3431 -0.1239
18017TIP3    H175466   3.785   4.853   1.108 -1.1055 -0.7094 -1.0807
18017TIP3    H275467   3.800   4.922   0.975  1.5484  0.5420 -0.1818
18018TIP3   OH275468   2.636   0.891   1.340  0.3179  0.6882  0.4496
18018TIP3    H175469   2.551   0.891   1.384 -0.0345  0.1692 -0.2143
18018TIP3    H275470   2.664   0.982   1.343 -1.3701  1.3521 -1.3786
18019TIP3   OH275471   6.683   3.485  15.837  0.5190 -0.3497  0.1531
18019TIP3    H175472   6.658   3.394  15.827 -1.5780  0.2767 -0.8019
18019TIP3    H275473   6.636   3.532  15.768  0.1951  1.6724  1.6311
18020TIP3   OH275474   2.219   3.045   4.848 -0.4026 -0.4239 -0.1515
18020TIP3    H175475   2.217   2.975   4.783  0.2549 -0.0669 -0.5768
18020TIP3    H275476   2.139   3.034   4.899 -0.6528 -1.0477 -0.6715
18021TIP3   OH275477   5.387   2.299  16.846  0.2631 -0.7936  0.1165
18021TIP3    H175478   5.421   2.211  16.830 -2.0341 -2.0115  1.4428
18021TIP3    H275479   5.336   2.291  16.927  0.7641  2.0054  0.8163
18022TIP3   OH275480   3.906   6.115  12.029 -0.5569 -0.5444  0.6713
18022TIP3    H175481   3.958   6.124  11.949 -0.7561 -0.6864  0.5269
18022TIP3    H275482   3.898   6.020  12.042 -0.4163 -0.5233  0.9298
18023TIP3   OH275483   4.280   6.086  13.281 -0.5127  0.4057  0.2597
18023TIP3    H175484   4.293   6.162  13.225 -0.2635  0.9376  1.0285
18023TIP3    H275485   4.369   6.057  13.303 -0.5677 -1.0334 -1.2424
18024TIP3   OH275486   3.294   3.566   4.678  0.2984 -0.3306  0.0303
18024TIP3    H175487   3.327   3.498   4.620  2.1129  0.4193  0.1191
18024TIP3    H275488   3.210   3.532   4.710 -0.7552 -0.7820 -2.9291
18025TIP3   OH275489   0.533   5.129   4.568 -0.2274 -0.0496 -0.5652
18025TIP3    H175490   0.469   5.188   4.607  0.3081 -1.6125  3.0452
18025TIP3    H275491   0.617   5.175   4.576 -0.1439 -0.2958  0.0536
18026TIP3   OH275492   0.570   2.797  16.762 -0.7045  0.6324  0.2937
18026TIP3    H175493   0.548   2.705  16.745 -0.4193  0.8817 -1.6184
18026TIP3    H275494   0.625   2.794  16.841 -0.2074 -0.9068 -0.0674
18027TIP3   OH275495   2.691   4.229   3.699  0.8340 -0.0544  0.1199
18027TIP3    H175496   2.654   4.227   3.787 -0.9078  0.2104 -0.5611
18027TIP3    H275497   2.720   4.320   3.686 -0.8279  0.4598 -0.2811
18028TIP3   OH275498   2.033   1.429   5.008 -0.0928  0.2490 -0.2779
18028TIP3    H175499   2.038   1.524   4.997  0.9745  0.3145  0.5934
18028TIP3    H275500   1.975   1.400   4.937  0.4478  1.4231 -1.2447
18029TIP3   OH275501   2.620   4.585  15.269  0.6840 -0.0391  0.0854
18029TIP3    H175502   2.665   4.502  15.289 -0.4537 -1.1541 -1.6814
18029TIP3    H275503   2.690   4.646  15.248  1.4959 -0.9507  0.0642
18030TIP3   OH275504   1.806   4.470   1.513 -0.8612  0.5478  0.2088
18030TIP3    H175505   1.787   4.514   1.430  0.1135  0.5308 -0.0390
18030TIP3    H275506   1.874   4.406   1.491  0.7187  1.7278  1.3144
18031TIP3   OH275507   6.382   0.202   1.453 -0.5233 -0.4989 -0.1068
18031TIP3    H175508   6.381   0.121   1.402  0.1076 -1.1181  0.8209
18031TIP3    H275509   6.334   0.265   1.400  0.5176 -0.9851 -1.6867
18032TIP3   OH275510   5.493   4.929   1.840  0.3598 -0.3333 -0.7757
18032TIP3    H175511   5.465   4.995   1.904 -1.6990  0.4129 -2.3407
18032TIP3    H275512   5.478   4.846   1.884  0.6290  0.1729  0.3202
18033TIP3   OH275513   3.580   3.470  13.505  0.3354  0.1614  0.0467
18033TIP3    H175514   3.605   3.394  13.453 -0.2743  0.0326 -0.0728
18033TIP3    H275515   3.521   3.520  13.448 -0.9641 -0.3809  0.8495
18034TIP3   OH275516   4.789   5.792  16.534 -0.2748  0.5090  0.6588
18034TIP3    H175517   4.863   5.825  16.584 -0.7793  0.6847  1.3066
18034TIP3    H275518   4.714   5.799  16.594 -1.1496  1.9809 -0.5250
18035TIP3   OH275519   0.841   2.166  11.425 -0.6322 -0.0489 -0.2092
18035TIP3    H175520   0.858   2.116  11.504 -0.3940 -0.2050 -0.3586
18035TIP3    H275521   0.781   2.235  11.452 -0.8593 -0.3378  0.0263
18036TIP3   OH275522   0.149   4.935   5.566  0.1756  0.3527 -0.0336
18036TIP3    H175523   0.209   4.874   5.523 -2.2769 -2.7627  0.6710
18036TIP3    H275524   0.159   4.917   5.659 -0.4810  1.1606  0.2014
18037TIP3   OH275525   3.825   3.114  16.299  0.0706 -0.2846  0.0499
18037TIP3    H175526   3.790   3.203  16.295  0.8854  0.0375 -0.1672
18037TIP3    H275527   3.765   3.067  16.358 -0.0449  0.5575  0.6237
18038TIP3   OH275528   1.594   5.615   0.742  0.3898 -0.7653 -0.3378
18038TIP3    H175529   1.525   5.554   0.714  0.7202 -0.5831 -1.5699
18038TIP3    H275530   1.624   5.579   0.826 -1.6098 -0.5125  0.5565
18039TIP3   OH275531   5.545   2.859   6.379 -0.0183  0.2561 -0.6189
18039TIP3    H175532   5.489   2.904   6.317 -0.7349 -1.5068 -1.3297
18039TIP3    H275533   5.610   2.814   6.324  0.0766 -0.3439 -0.0308
18040TIP3   OH275534   5.297   0.737   2.768 -0.1452  0.0662 -0.0728
18040TIP3    H175535   5.250   0.693   2.698  0.9623  0.0681 -0.8421
18040TIP3    H275536   5.281   0.682   2.845 -2.3183  0.6887 -0.0111
18041TIP3   OH275537   1.940   2.242   2.326  0.2724  0.3660 -0.8053
18041TIP3    H175538   1.969   2.324   2.364 -0.2639  1.3566 -2.4104
18041TIP3    H275539   1.941   2.258   2.231 -0.1533 -1.3715 -1.1400
18042TIP3   OH275540   0.093   0.145   4.389  0.4496 -0.0942  0.1592
18042TIP3    H175541   0.119   0.235   4.410  1.4635 -0.2991 -0.1609
18042TIP3    H275542   0.175   0.100   4.370 -0.2803 -0.2070 -3.2369
18043TIP3   OH275543   1.717   2.688  11.474 -0.3895 -0.1590  0.2521
18043TIP3    H175544   1.714   2.727  11.562  1.0197  1.9996 -0.5480
18043TIP3    H275545   1.663   2.747  11.421 -0.4422 -0.8911 -0.5134
18044TIP3   OH275546   5.914   3.863   5.341  0.4338 -0.1236  0.5979
18044TIP3    H175547   5.892   3.811   5.418 -1.5480  2.9713  2.3519
18044TIP3    H275548   5.832   3.907   5.317  1.1591 -0.4039 -2.9218
18045TIP3   OH275549   5.433   2.006   6.126 -0.0639 -0.3149  0.4747
18045TIP3    H175550   5.357   2.060   6.104  0.3657 -0.2512 -0.9146
18045TIP3    H275551   5.399   1.917   6.127 -0.1824 -0.2747  0.0117
18046TIP3   OH275552   5.551   0.385   3.671 -0.2582 -0.0945  0.0463
18046TIP3    H175553   5.633   0.433   3.683  0.9014 -2.0904  0.6821
18046TIP3    H275554   5.577   0.306   3.623 -1.6907 -1.0483  0.7609
18047TIP3   OH275555   3.146   6.046   3.694  0.0506  0.4474  0.2932
18047TIP3    H175556   3.149   6.015   3.603  2.4356  3.4030 -0.8079
18047TIP3    H275557   3.212   5.993   3.738  0.3493  0.3636 -0.2380
18048TIP3   OH275558   4.699   0.225   3.934  0.1168  0.1081  0.3977
18048TIP3    H175559   4.738   0.251   4.018  0.0175  0.0848  0.4516
18048TIP3    H275560   4.773   0.222   3.873  0.2654 -0.3462  0.5956
18049TIP3   OH275561   2.291   1.051   1.897 -0.4464 -0.7150 -0.2455
18049TIP3    H175562   2.342   1.016   1.970 -0.4949 -1.1498 -0.4191
18049TIP3    H275563   2.207   1.006   1.902 -1.4451  1.1933  1.0273
18050TIP3   OH275564   3.667   2.294  16.388  0.2492 -0.4434  0.8407
18050TIP3    H175565   3.684   2.370  16.333  0.7252 -0.7897  0.4952
18050TIP3    H275566   3.589   2.317  16.438 -0.2938 -0.1811 -0.0935
18051TIP3   OH275567   3.470   4.068  10.600  0.2088 -0.2494  0.0843
18051TIP3    H175568   3.382   4.044  10.573  0.5681 -0.3663 -1.0426
18051TIP3    H275569   3.525   4.047  10.525  1.6287 -2.6302  1.6648
18052TIP3   OH275570   5.117   0.597  14.697 -0.1903  0.0175 -0.1075
18052TIP3    H175571   5.062   0.630  14.625 -1.3108 -1.5605 -0.0455
18052TIP3    H275572   5.101   0.503  14.696 -0.8241  0.0198  2.6774
18053TIP3   OH275573   6.494   1.192   2.703 -0.3223  0.0320 -0.0056
18053TIP3    H175574   6.434   1.127   2.738  0.8212 -0.3117  1.4526
18053TIP3    H275575   6.581   1.152   2.714  0.1511  0.1021 -2.9185
18054TIP3   OH275576   0.134   3.737   0.726 -0.1140 -0.0704  0.0439
18054TIP3    H175577   0.100   3.719   0.639 -2.0414 -2.8556  1.2297
18054TIP3    H275578   0.119   3.656   0.775 -0.3120  1.7734  3.3220
18055TIP3   OH275579   4.572   5.232  15.036 -0.5046 -0.4910 -0.5231
18055TIP3    H175580   4.490   5.205  15.077 -0.5216  0.8307  0.3462
18055TIP3    H275581   4.640   5.184  15.083 -0.4478  1.6318  1.7239
18056TIP3   OH275582   5.118   2.241   1.122  0.2410 -0.7953 -0.0284
18056TIP3    H175583   5.105   2.156   1.163 -0.7588 -0.5619  0.1457
18056TIP3    H275584   5.124   2.222   1.028 -0.2001 -1.0268 -0.0083
18057TIP3   OH275585   0.530   5.540   3.849  0.1283 -0.1043  0.1862
18057TIP3    H175586   0.496   5.461   3.892 -3.3703  1.2380  0.2355
18057TIP3    H275587   0.538   5.603   3.920  1.5113  0.0542 -0.0853
18058TIP3   OH275588   6.698   3.224   1.313 -0.1040  0.0557 -0.0102
18058TIP3    H175589   6.707   3.299   1.371  0.1090  0.1527 -0.1662
18058TIP3    H275590   6.604   3.217   1.296 -0.1962 -0.1312  0.5511
18059TIP3   OH275591   6.508   1.261  14.652  0.0353  0.0845  0.6078
18059TIP3    H175592   6.435   1.298  14.702 -0.4287  1.4076 -0.9627
18059TIP3    H275593   6.512   1.170  14.680 -2.1996 -0.0197  0.8243
18060TIP3   OH275594   2.637   0.891  12.715 -0.0431  0.0770  0.2534
18060TIP3    H175595   2.668   0.925  12.631 -0.5247  0.8204  0.3654
18060TIP3    H275596   2.662   0.799  12.714  0.1878  0.1365 -0.5973
18061TIP3   OH275597   4.639   0.697   4.316 -0.1406 -1.0200  0.3536
18061TIP3    H175598   4.707   0.752   4.355 -1.6535  0.9221  0.4237
18061TIP3    H275599   4.560   0.718   4.366 -0.8610 -3.1339  0.2107
18062TIP3   OH275600   3.140   4.783  15.579 -0.0304  0.2563  0.2770
18062TIP3    H175601   3.183   4.867  15.595 -1.1644  0.3998  3.0934
18062TIP3    H275602   3.136   4.741  15.665 -1.5250 -1.7048 -0.6644
18063TIP3   OH275603   1.500   1.625   2.755 -0.1332  0.4627 -0.2014
18063TIP3    H175604   1.510   1.700   2.697  0.4592  1.2688  0.9071
18063TIP3    H275605   1.423   1.579   2.722 -0.1007  1.1714 -1.3088
18064TIP3   OH275606   2.314   3.370  13.083  0.3766  0.0703 -0.3869
18064TIP3    H175607   2.219   3.364  13.094  0.6075 -0.7984  1.4579
18064TIP3    H275608   2.332   3.318  13.005 -0.6528  0.2154 -0.7366
18065TIP3   OH275609   3.158   0.333   2.989 -0.1103  0.2177 -0.0549
18065TIP3    H175610   3.184   0.400   2.926  1.8199  1.6451  2.0723
18065TIP3    H275611   3.104   0.272   2.939 -1.4657  3.0019 -2.2703
18066TIP3   OH275612   3.342   3.085  11.903 -0.3540  0.5650 -0.7133
18066TIP3    H175613   3.302   3.089  11.816 -0.6971 -1.7412 -0.7248
18066TIP3    H275614   3.436   3.077  11.885 -0.4913 -0.7656 -0.9337
18067TIP3   OH275615   0.359   1.391  11.551 -0.0992  0.2790  0.4940
18067TIP3    H175616   0.442   1.344  11.551  0.0626  0.5376 -0.6128
18067TIP3    H275617   0.369   1.457  11.620  0.0289 -0.6607  1.4009
18068TIP3   OH275618   3.465   4.696  11.318 -0.0212  0.2209  0.6078
18068TIP3    H175619   3.374   4.679  11.292  0.3591  0.4716 -1.0039
18068TIP3    H275620   3.517   4.666  11.243  1.3429 -1.2776  2.0898
18069TIP3   OH275621   4.989   5.411   2.927 -0.0583 -0.0618 -0.1909
18069TIP3    H175622   4.978   5.441   2.837  1.0715  2.5253  0.4437
18069TIP3    H275623   4.971   5.488   2.981  0.6418 -1.1589  1.7296
18070TIP3   OH275624   5.512   3.708  13.598  0.0100  0.0489 -0.1866
18070TIP3    H175625   5.523   3.786  13.544 -2.6892 -1.1760 -2.8118
18070TIP3    H275626   5.568   3.642  13.557 -0.4758 -0.3321 -0.2528
18071TIP3   OH275627   4.703   2.484   3.692 -0.1109 -0.4931 -0.0751
18071TIP3    H175628   4.661   2.560   3.652  1.6267 -0.8457 -2.8767
18071TIP3    H275629   4.787   2.518   3.724  0.2323 -1.0233 -0.4116
18072TIP3   OH275630   2.916   0.637  11.483 -0.1532  0.3182  0.3403
18072TIP3    H175631   3.009   0.624  11.464 -0.2302  0.0965  0.1095
18072TIP3    H275632   2.870   0.601  11.407 -0.4488 -0.1546  0.7296
18073TIP3   OH275633   1.070   4.697  16.069  0.4531 -0.3339 -0.0468
18073TIP3    H175634   1.028   4.689  15.983  1.6346 -0.2981 -0.6397
18073TIP3    H275635   1.163   4.681  16.052  0.8347  0.5832  1.0836
18074TIP3   OH275636   2.101   1.997   5.567 -0.3962 -0.3693 -0.4921
18074TIP3    H175637   2.082   1.915   5.612  2.7928 -0.5976  0.6687
18074TIP3    H275638   2.066   2.065   5.625  3.2911 -0.6754  2.4533
18075TIP3   OH275639   0.733   3.992  13.502 -0.0354  0.2206 -0.7229
18075TIP3    H175640   0.684   3.930  13.558  0.2302 -0.8525 -1.6415
18075TIP3    H275641   0.795   4.034  13.562  0.9824 -1.6728 -0.3548
18076TIP3   OH275642   6.633   1.560  11.895 -0.0303 -0.5881  0.3172
18076TIP3    H175643   6.672   1.633  11.943 -0.3763 -0.5947  0.6099
18076TIP3    H275644   6.597   1.599  11.815  0.3291 -0.5383  0.1769
18077TIP3   OH275645   3.165   0.534   3.806 -0.2969 -0.2608 -0.4154
18077TIP3    H175646   3.253   0.557   3.837 -1.0016  1.4216  0.3943
18077TIP3    H275647   3.177   0.447   3.767  1.5750 -0.3917  0.3229
18078TIP3   OH275648   5.600   5.643  11.504 -0.7001  0.1573 -0.4425
18078TIP3    H175649   5.674   5.677  11.455  0.5384 -1.0692  0.4979
18078TIP3    H275650   5.622   5.658  11.596 -2.1839  0.8421 -0.1520
18079TIP3   OH275651   2.158   1.673   3.262  0.5480  0.1093  0.2454
18079TIP3    H175652   2.162   1.586   3.302  2.3153 -0.6370 -1.3691
18079TIP3    H275653   2.152   1.734   3.336  1.8629 -1.2796  1.5697
18080TIP3   OH275654   2.990   3.500   4.553 -0.1852 -0.0562  0.7694
18080TIP3    H175655   3.061   3.516   4.490 -1.4268  0.3614 -0.5785
18080TIP3    H275656   3.002   3.409   4.580 -0.8620 -0.9931 -1.7818
18081TIP3   OH275657   5.616   0.815   3.583  0.1534  0.4875 -0.0146
18081TIP3    H175658   5.581   0.875   3.516  2.1132  0.2851 -1.2989
18081TIP3    H275659   5.551   0.745   3.588 -1.7023  2.1734  0.8064
18082TIP3   OH275660   3.836   6.510  14.510  0.2707 -0.0334 -0.2479
18082TIP3    H175661   3.909   6.554  14.465  0.4028 -0.3592 -0.3561
18082TIP3    H275662   3.829   6.426  14.466 -0.9621  0.4635 -1.0465
18083TIP3   OH275663   2.414   6.682   3.139  0.6488 -0.7664 -0.1785
18083TIP3    H175664   2.340   6.624   3.155  0.0683 -0.4389 -1.5644
18083TIP3    H275665   2.375   6.768   3.124  1.0440 -1.0352 -3.3935
18084TIP3   OH275666   1.829   4.522  14.570 -0.2252  0.1647 -0.3626
18084TIP3    H175667   1.893   4.592  14.582  0.7858 -0.7869 -0.0153
18084TIP3    H275668   1.880   4.449  14.534 -1.2506 -0.3990 -0.7163
18085TIP3   OH275669   4.889   0.555  11.176  0.3043  0.0241  0.4697
18085TIP3    H175670   4.859   0.638  11.140  1.5981  0.8891  1.3018
18085TIP3    H275671   4.972   0.538  11.131 -0.7881 -1.8065 -1.0513
18086TIP3   OH275672   4.530   0.247  13.500 -0.2983  0.0007 -0.1128
18086TIP3    H175673   4.602   0.308  13.485  1.3483 -1.3514  1.7379
18086TIP3    H275674   4.513   0.253  13.594 -0.0366 -2.3663  0.1496
18087TIP3   OH275675   2.812   5.255  11.073  0.2849  0.0993 -0.1788
18087TIP3    H175676   2.825   5.306  10.993 -1.6191 -0.5155 -0.9327
18087TIP3    H275677   2.807   5.164  11.044 -0.7808 -0.1052  0.5851
18088TIP3   OH275678   5.796   0.995  16.960 -0.0155 -0.1620  0.2734
18088TIP3    H175679   5.748   1.037  16.889 -0.4940 -0.3918  0.4561
18088TIP3    H275680   5.886   1.024  16.948  0.0224 -0.6461 -0.7764
18089TIP3   OH275681   6.645   1.328   0.675 -0.4266  0.1780  0.0775
18089TIP3    H175682   6.565   1.278   0.657 -0.3819  0.0834  0.1475
18089TIP3    H275683   6.628   1.373   0.757  0.6794 -2.0954  1.6361
18090TIP3   OH275684   6.039   2.014   3.045 -0.3354 -0.0643 -0.7153
18090TIP3    H175685   6.001   2.082   2.990  0.8628  1.2189 -0.0226
18090TIP3    H275686   6.093   1.961   2.986 -1.0073 -0.2275 -1.1955
18091TIP3   OH275687   5.424   5.190   5.095  0.1041 -0.3622 -0.6331
18091TIP3    H175688   5.357   5.148   5.149  0.0050 -0.2272 -0.6477
18091TIP3    H275689   5.462   5.120   5.043 -0.6416 -0.3086 -1.2744
18092TIP3   OH275690   2.196   5.661  10.540  0.2733  1.0770 -0.2195
18092TIP3    H175691   2.181   5.717  10.617  1.1713  0.1041  0.6917
18092TIP3    H275692   2.176   5.717  10.466 -1.0202  1.9382  0.7201
18093TIP3   OH275693   4.164   2.036  13.701  0.4079  0.6687  0.0347
18093TIP3    H175694   4.118   1.953  13.688  0.3465  0.8499 -1.0709
18093TIP3    H275695   4.255   2.018  13.676  0.6615  0.6415  0.9480
18094TIP3   OH275696   4.706   1.013  10.663 -0.4302 -0.0609  0.2074
18094TIP3    H175697   4.802   1.009  10.657 -0.2944  2.8620 -1.2688
18094TIP3    H275698   4.676   0.953  10.595  0.4794  1.2897 -1.4707
18095TIP3   OH275699   0.215   5.869   1.817  0.3640  0.4979 -0.0186
18095TIP3    H175700   0.225   5.780   1.783 -1.7485 -0.3791  1.3865
18095TIP3    H275701   0.279   5.876   1.887  0.4633  0.0233 -0.0613
18096TIP3   OH275702   5.880   5.763   0.796 -0.5898  0.0748 -0.5147
18096TIP3    H175703   5.884   5.692   0.860  0.3482 -1.4086 -2.0925
18096TIP3    H275704   5.811   5.737   0.736 -2.2969  2.0466  0.4787
18097TIP3   OH275705   1.649   5.800   6.649  0.0985  0.5784  0.1333
18097TIP3    H175706   1.565   5.757   6.629 -0.0124  0.6520  0.4371
18097TIP3    H275707   1.713   5.753   6.595 -0.2245  0.9136 -0.5611
18098TIP3   OH275708   5.323   1.657   1.210  0.4349  0.0764  0.0549
18098TIP3    H175709   5.419   1.664   1.218  0.3127  0.6198  1.2494
18098TIP3    H275710   5.290   1.687   1.294 -0.7725 -0.8376 -0.0706
18099TIP3   OH275711   6.564   1.539  16.113 -0.1841 -0.0312 -0.1751
18099TIP3    H175712   6.495   1.602  16.093  0.7564  0.9882 -0.3087
18099TIP3    H275713   6.589   1.503  16.027 -2.3524 -2.4487  0.0766
18100TIP3   OH275714   6.490   3.801   1.304  0.0553 -0.2822  0.0094
18100TIP3    H175715   6.533   3.761   1.229 -0.9065 -0.3349 -0.5324
18100TIP3    H275716   6.521   3.891   1.306 -0.7038  0.0160 -1.0862
18101TIP3   OH275717   2.008   2.596   1.595  0.8036  0.1686  0.5878
18101TIP3    H175718   1.998   2.550   1.511 -0.3855  1.0091  0.2299
18101TIP3    H275719   1.967   2.538   1.659  2.7077 -0.9962  0.8106
18102TIP3   OH275720   4.174   2.059  15.169  0.1126  0.0237  0.4116
18102TIP3    H175721   4.237   2.129  15.150 -0.4154  1.2406  2.7317
18102TIP3    H275722   4.161   2.015  15.085  1.4504  1.8856 -0.8596
18103TIP3   OH275723   2.559   4.171  12.834 -0.6569 -0.3282  0.5644
18103TIP3    H175724   2.484   4.147  12.779 -0.1362 -1.4020  0.2954
18103TIP3    H275725   2.523   4.176  12.922 -0.8882 -1.7519  0.5786
18104TIP3   OH275726   0.323   5.822  16.942 -0.0368 -0.8482 -0.4454
18104TIP3    H175727   0.350   5.780  16.860 -1.3028 -2.1280 -0.2691
18104TIP3    H275728   0.278   5.902  16.914  1.6335 -0.0183 -0.8475
18105TIP3   OH275729   3.574   4.779  16.426 -0.1436 -0.2325 -0.5875
18105TIP3    H175730   3.554   4.855  16.372 -2.1638 -0.6610 -0.5349
18105TIP3    H275731   3.524   4.794  16.507  0.0289 -1.2511 -0.2823
18106TIP3   OH275732   4.677   5.292  16.384  0.3288 -0.6107 -0.1127
18106TIP3    H175733   4.746   5.317  16.323  1.7557 -0.0633  1.6310
18106TIP3    H275734   4.688   5.351  16.459 -0.3273 -2.2406  1.3548
18107TIP3   OH275735   6.588   0.810  11.925  0.0535 -0.3640  0.2610
18107TIP3    H175736   6.504   0.791  11.967 -0.0169  1.5291  1.0575
18107TIP3    H275737   6.620   0.724  11.898 -1.6336 -1.2516  0.8757
18108TIP3   OH275738   6.420   3.124  15.548 -0.1620 -0.0649 -0.1096
18108TIP3    H175739   6.446   3.090  15.462  0.1037 -0.1540  0.0062
18108TIP3    H275740   6.388   3.048  15.596 -0.2939 -0.0180 -0.1214
18109TIP3   OH275741   5.599   0.096   5.483 -0.0990 -0.1754  0.1855
18109TIP3    H175742   5.584   0.013   5.528 -1.0772  0.8972  1.9905
18109TIP3    H275743   5.512   0.122   5.453 -0.3939  1.5350  2.2480
18110TIP3   OH275744   4.387   5.632   5.852  0.4785  0.9115 -1.1462
18110TIP3    H175745   4.378   5.556   5.910 -0.5767 -0.0529 -2.5389
18110TIP3    H275746   4.470   5.617   5.806  0.6477  1.0098 -0.8811
18111TIP3   OH275747   2.004   2.342  14.482  0.0148  0.1659  0.5244
18111TIP3    H175748   1.989   2.429  14.518 -2.7767  0.4660 -1.0384
18111TIP3    H275749   1.918   2.315  14.450  1.1275 -2.5144 -0.4708
18112TIP3   OH275750   2.062   5.683   0.136 -0.0320  0.6297  0.1034
18112TIP3    H175751   2.027   5.620   0.074 -1.3914  0.2866  1.1739
18112TIP3    H275752   2.015   5.666   0.218 -0.2715  2.8663  0.4990
18113TIP3   OH275753   6.213   6.562  15.392 -0.0557 -0.0935 -0.3490
18113TIP3    H175754   6.179   6.535  15.477 -1.7182  1.6769 -0.3696
18113TIP3    H275755   6.306   6.542  15.396 -0.0699  0.0247  1.9336
18114TIP3   OH275756   5.999   2.710   2.874  0.1065 -0.2533  0.2864
18114TIP3    H175757   5.922   2.726   2.929 -0.9599 -1.0391 -0.9237
18114TIP3    H275758   6.054   2.652   2.926  0.1099  0.6670  1.3484
18115TIP3   OH275759   5.377   6.425  13.602  0.0347 -0.0142 -0.3202
18115TIP3    H175760   5.357   6.332  13.594 -0.9293  0.3113 -1.8910
18115TIP3    H275761   5.323   6.455  13.676 -0.9878 -0.3437 -0.9187
18116TIP3   OH275762   3.253   4.934  16.613 -0.2838  0.1446  0.6148
18116TIP3    H175763   3.159   4.928  16.626 -0.1014 -0.1895  1.9243
18116TIP3    H275764   3.279   5.013  16.660  0.3299 -0.7967  1.9298
18117TIP3   OH275765   5.192   3.207   3.951 -0.1499 -0.2480  0.5239
18117TIP3    H175766   5.241   3.189   4.031 -1.9606 -0.0095  1.7422
18117TIP3    H275767   5.102   3.184   3.972 -0.9428  1.3213 -0.9328
18118TIP3   OH275768   0.798   4.140  11.078 -0.0497  0.5840 -0.1166
18118TIP3    H175769   0.769   4.210  11.020 -0.1781  0.1296 -0.6056
18118TIP3    H275770   0.773   4.059  11.034  0.5188  0.2128  0.2148
18119TIP3   OH275771   0.736   5.490  15.595 -0.2473 -0.5538  0.6369
18119TIP3    H175772   0.760   5.561  15.536 -0.1614 -0.0454  1.2790
18119TIP3    H275773   0.811   5.479  15.652  0.0417 -1.6677  0.0788
18120TIP3   OH275774   5.358   3.600  14.045 -0.3137  0.0699  0.4366
18120TIP3    H175775   5.396   3.668  14.101  1.4816 -0.6007  0.1140
18120TIP3    H275776   5.364   3.520  14.097 -1.3568 -0.0611  0.3785
18121TIP3   OH275777   3.038   3.279  12.870  0.3334 -0.1642  0.5539
18121TIP3    H175778   3.092   3.219  12.920 -0.1740 -1.7998 -0.7645
18121TIP3    H275779   2.963   3.227  12.842 -0.1906  1.1087 -0.5490
18122TIP3   OH275780   3.478   0.911   1.969 -0.4884  0.2394 -0.3895
18122TIP3    H175781   3.400   0.892   1.917 -0.6012 -2.5378  0.6097
18122TIP3    H275782   3.465   0.862   2.051  1.6976  0.7616  0.3461
18123TIP3   OH275783   4.090   0.917   3.396 -0.3542  0.0011 -0.3840
18123TIP3    H175784   4.086   0.847   3.330 -0.6802 -0.8045  0.4643
18123TIP3    H275785   4.001   0.925   3.428  0.2117 -1.4773  1.8125
18124TIP3   OH275786   2.298   5.111  17.242  0.1489 -0.0680  0.3352
18124TIP3    H175787   2.350   5.173  17.294 -0.5842  1.6926 -0.9527
18124TIP3    H275788   2.346   5.103  17.160 -1.2220  1.0420 -0.5990
18125TIP3   OH275789   4.844   4.698  11.832  0.3198  0.0734  0.5373
18125TIP3    H175790   4.841   4.621  11.889  0.4883 -0.3664 -0.0349
18125TIP3    H275791   4.930   4.692  11.789  0.7832  1.1561  1.2645
18126TIP3   OH275792   4.039   6.574   2.352  0.2478  1.1490  0.0787
18126TIP3    H175793   4.121   6.604   2.314  0.7805  1.4347  1.4093
18126TIP3    H275794   3.997   6.524   2.282  1.7762  0.5695 -0.4677
18127TIP3   OH275795   0.759   1.001  14.741 -0.0171 -0.6792 -0.8171
18127TIP3    H175796   0.723   1.090  14.742  0.7207 -0.3709 -0.3054
18127TIP3    H275797   0.848   1.012  14.706 -0.5237 -1.4814 -2.4657
18128TIP3   OH275798   0.520   1.793  12.605 -0.0312  0.6062  0.0249
18128TIP3    H175799   0.453   1.770  12.540 -1.0977  1.3281  0.8254
18128TIP3    H275800   0.528   1.716  12.660  0.8620 -0.0017 -0.9407
18129TIP3   OH275801   6.347   4.564   1.077  0.5429  0.1564 -0.3128
18129TIP3    H175802   6.281   4.622   1.114  0.4535 -0.7974  1.0853
18129TIP3    H275803   6.301   4.516   1.008  0.8188  2.2432 -2.0987
18130TIP3   OH275804   1.903   0.599  12.956  0.2445 -0.0078  0.1692
18130TIP3    H175805   1.879   0.616  13.048 -1.1624 -1.8703  0.1998
18130TIP3    H275806   1.820   0.576  12.914  1.3217 -2.4820 -0.7830
18131TIP3   OH275807   4.490   2.538  15.175 -0.5348 -0.3437  0.6077
18131TIP3    H175808   4.553   2.521  15.105 -1.0103  1.4673 -0.3309
18131TIP3    H275809   4.537   2.593  15.238 -0.9218  0.3460  0.3044
18132TIP3   OH275810   3.374   6.748   1.470 -0.4819  0.5615 -0.2961
18132TIP3    H175811   3.415   6.776   1.552 -0.7160  0.3491 -0.1057
18132TIP3    H275812   3.363   6.829   1.420 -1.2821  0.8375  0.3029
18133TIP3   OH275813   6.562   3.808   4.773 -0.2722  0.4476  0.2790
18133TIP3    H175814   6.566   3.892   4.819 -0.0793  0.8153 -0.3830
18133TIP3    H275815   6.498   3.757   4.822  0.5660  0.4919  1.4637
18134TIP3   OH275816   2.292   0.354   3.582 -0.5896  0.0477  0.0119
18134TIP3    H175817   2.253   0.271   3.609 -0.1010 -1.2566 -2.8812
18134TIP3    H275818   2.365   0.329   3.525  0.0863  2.4681 -0.3100
18135TIP3   OH275819   0.748   2.081  11.765 -0.3265 -0.0514  0.1754
18135TIP3    H175820   0.794   2.005  11.731  0.1995  0.5614 -0.5075
18135TIP3    H275821   0.790   2.098  11.850  0.0321 -0.0957  0.0071
18136TIP3   OH275822   5.844   0.162  15.635 -0.2711  0.2603 -0.3909
18136TIP3    H175823   5.820   0.252  15.612 -0.5403  0.3746  0.2984
18136TIP3    H275824   5.935   0.168  15.663 -0.5680  0.5044  0.5766
18137TIP3   OH275825   6.064   0.432   3.783  0.3125 -0.1827  0.0073
18137TIP3    H175826   6.113   0.445   3.864  1.0322  1.9289 -0.7010
18137TIP3    H275827   6.132   0.422   3.716 -0.2597 -0.5245 -0.5296
18138TIP3   OH275828   6.304   4.274   2.432 -0.3604 -0.5055  0.1032
18138TIP3    H175829   6.270   4.330   2.363 -0.7045 -1.6174 -0.6587
18138TIP3    H275830   6.243   4.288   2.505 -0.2823  0.2978  0.0250
18139TIP3   OH275831   2.945   1.623  12.369 -0.0457  0.6355  0.2324
18139TIP3    H175832   2.868   1.676  12.347 -2.9359 -2.4289  2.0508
18139TIP3    H275833   2.929   1.538  12.327  2.3501 -0.1497  0.7587
18140TIP3   OH275834   3.666   5.110  15.536 -0.8186  0.2197  0.4009
18140TIP3    H175835   3.597   5.050  15.505  1.2954 -1.3380 -1.6077
18140TIP3    H275836   3.714   5.059  15.600  0.9626 -0.3318 -1.2781
18141TIP3   OH275837   0.806   6.402  16.126 -0.3752 -0.4309  0.2994
18141TIP3    H175838   0.749   6.348  16.182 -0.9284  0.2790  0.4311
18141TIP3    H275839   0.893   6.364  16.137 -0.8664 -1.7428 -0.1582
18142TIP3   OH275840   1.178   3.255   3.538 -0.2220  0.3348 -0.6503
18142TIP3    H175841   1.116   3.279   3.607 -0.4685  0.6634 -0.9865
18142TIP3    H275842   1.127   3.260   3.457 -1.3663 -4.5438 -0.5760
18143TIP3   OH275843   2.363   0.795  17.266 -0.1617 -0.3521  0.6974
18143TIP3    H175844   2.397   0.834  17.347  0.8576 -0.7249  0.4709
18143TIP3    H275845   2.400   0.706  17.266  0.5373 -0.0839 -0.5774
18144TIP3   OH275846   0.981   5.245   5.724 -0.1748  0.1525 -0.2804
18144TIP3    H175847   0.921   5.192   5.777  0.1440  1.5007  1.5296
18144TIP3    H275848   1.038   5.181   5.681 -0.9399 -1.0398  0.4129
18145TIP3   OH275849   1.308   3.998   5.259  0.0580  0.5280 -0.3261
18145TIP3    H175850   1.260   4.080   5.273 -3.1544 -1.3559  0.8623
18145TIP3    H275851   1.361   3.987   5.338 -1.5816  0.2467  0.7920
18146TIP3   OH275852   1.733   1.516   3.156  0.0045 -0.0237 -0.4890
18146TIP3    H175853   1.747   1.581   3.225  0.7755 -0.2382 -0.4299
18146TIP3    H275854   1.730   1.432   3.201 -2.4916  0.0540 -0.3955
18147TIP3   OH275855   0.936   4.627   0.006 -0.0574  0.1876  0.2578
18147TIP3    H175856   0.915   4.721   0.002 -1.3846 -0.0909  0.0806
18147TIP3    H275857   0.964   4.605  -0.082 -0.6571  0.2343  0.0503
18148TIP3   OH275858   1.783   3.382   3.690 -0.0796  0.3544  0.1485
18148TIP3    H175859   1.792   3.477   3.681 -1.9426  0.8701  2.5790
18148TIP3    H275860   1.703   3.361   3.641 -1.7800  0.7608  2.5347
18149TIP3   OH275861   1.973   1.319   1.213  0.9321 -0.1090  0.0748
18149TIP3    H175862   1.932   1.403   1.193 -0.2582 -0.6448  0.1942
18149TIP3    H275863   1.937   1.258   1.149  1.0624 -0.7323  0.5826
18150TIP3   OH275864   1.066   3.626  15.047  0.5003  0.1723  0.6881
18150TIP3    H175865   1.044   3.548  14.996 -0.3633 -0.3797  1.8429
18150TIP3    H275866   1.111   3.683  14.986 -2.2690  0.4429 -1.3094
18151TIP3   OH275867   3.128   5.381  10.292  0.6282 -0.4848  0.2640
18151TIP3    H175868   3.101   5.385  10.384  0.7204 -0.8656  0.3075
18151TIP3    H275869   3.213   5.338  10.294  1.1592  0.5232  0.1069
18152TIP3   OH275870   5.231   1.707  17.360  0.1580  0.4988  0.1034
18152TIP3    H175871   5.142   1.741  17.352 -0.1464 -0.1945  0.4846
18152TIP3    H275872   5.277   1.772  17.412  0.4610  1.9311 -1.8476
18153TIP3   OH275873   5.909   1.957   2.659 -0.3041 -0.6748 -0.4849
18153TIP3    H175874   5.858   1.929   2.583  0.3657 -0.6341 -0.9510
18153TIP3    H275875   6.000   1.960   2.628 -0.2901  1.8507 -0.4311
18154TIP3   OH275876   5.128   4.984  16.181  0.2216  0.2585  0.7092
18154TIP3    H175877   5.097   4.914  16.237  0.5216 -0.6114 -0.1882
18154TIP3    H275878   5.054   5.002  16.122  0.5942 -0.2349  0.0744
18155TIP3   OH275879   3.931   6.198   2.264 -0.6122 -0.1112 -0.2955
18155TIP3    H175880   4.013   6.185   2.311 -0.5220 -0.9084 -0.6572
18155TIP3    H275881   3.901   6.110   2.242 -3.0712 -0.0696  2.3612
18156TIP3   OH275882   0.243   2.547  14.885  0.1087 -0.1874  0.6389
18156TIP3    H175883   0.292   2.466  14.900  0.1336  0.2053  3.1234
18156TIP3    H275884   0.152   2.524  14.901 -0.1645 -0.1427 -0.6850
18157TIP3   OH275885   4.311   6.027   0.737 -0.8771  0.4369 -0.4228
18157TIP3    H175886   4.251   6.074   0.679  0.1985  1.5231 -0.6737
18157TIP3    H275887   4.370   6.094   0.772 -0.9397 -0.3331  1.2529
18158TIP3   OH275888   2.434   4.496   3.040  0.8746 -0.4880 -0.0246
18158TIP3    H175889   2.521   4.534   3.044  0.2594  1.1953 -1.2471
18158TIP3    H275890   2.376   4.565   3.074  0.1326 -2.2036  2.4487
18159TIP3   OH275891   4.503   0.050   3.065  0.5283  0.1917 -0.5382
18159TIP3    H175892   4.515   0.141   3.037 -1.2468  0.4296 -0.6219
18159TIP3    H275893   4.476   0.004   2.985 -0.3935 -0.0084 -0.1249
18160TIP3   OH275894   5.061   0.311  14.780 -0.6495 -0.2601  0.1421
18160TIP3    H175895   5.011   0.230  14.778  0.9737 -1.3020 -0.5833
18160TIP3    H275896   5.143   0.290  14.734  0.1985  1.5206  0.7362
18161TIP3   OH275897   4.067   6.093  15.405 -0.4398 -0.5007 -0.0061
18161TIP3    H175898   4.113   6.043  15.337 -1.1093 -0.5762 -0.4155
18161TIP3    H275899   4.116   6.075  15.485  1.0859  0.5475 -0.6661
18162TIP3   OH275900   0.361   1.486  11.052  0.0081  0.0644  0.3471
18162TIP3    H175901   0.351   1.519  10.963 -0.0310  2.0040  1.0163
18162TIP3    H275902   0.444   1.523  11.082  0.4744 -1.3097  0.8243
18163TIP3   OH275903   5.564   2.777  14.968 -0.3488  0.6181 -0.1946
18163TIP3    H175904   5.556   2.701  15.025 -2.1788 -0.1483 -1.3818
18163TIP3    H275905   5.636   2.755  14.909 -0.8125 -0.1597 -0.4785
18164TIP3   OH275906   0.102   0.678  15.964 -0.6050  0.4085  0.4193
18164TIP3    H175907   0.073   0.713  16.048  0.0241  0.6623  0.5404
18164TIP3    H275908   0.110   0.584  15.978 -2.3627  0.1872  0.0789
18165TIP3   OH275909   3.014   4.738  12.586 -0.3011 -0.3073 -0.4188
18165TIP3    H175910   2.995   4.646  12.602  0.3510 -0.2374  0.9283
18165TIP3    H275911   3.026   4.744  12.491  1.0730 -1.9021 -0.3917
18166TIP3   OH275912   4.006   6.488  16.095  0.0118 -0.1390  0.3572
18166TIP3    H175913   4.087   6.530  16.065  0.1757 -0.5967  0.1573
18166TIP3    H275914   4.002   6.508  16.188  0.4824 -0.3240  0.4191
18167TIP3   OH275915   4.147   0.001  13.085 -0.5525 -0.1894  0.6911
18167TIP3    H175916   4.092  -0.023  13.011 -0.3892  1.1970  0.0862
18167TIP3    H275917   4.087   0.041  13.148 -0.7819 -1.8311  1.5865
18168TIP3   OH275918   4.719   6.567   0.953 -0.1078  0.1746  0.3187
18168TIP3    H175919   4.660   6.577   0.878 -0.4271 -2.3093  0.1577
18168TIP3    H275920   4.797   6.526   0.916  0.1410 -0.1229  1.1718
18169TIP3   OH275921   3.667   1.793   6.263 -0.2952  0.0008 -0.5679
18169TIP3    H175922   3.625   1.859   6.318 -0.4044  0.9611 -1.7542
18169TIP3    H275923   3.714   1.737   6.324 -1.3436  0.3311  0.5918
18170TIP3   OH275924   3.865   0.687  12.722 -0.0990 -0.0861 -0.2881
18170TIP3    H175925   3.813   0.649  12.651 -0.7486 -1.1828  0.7279
18170TIP3    H275926   3.854   0.781  12.712 -3.8387 -0.2036  0.9017
18171TIP3   OH275927   2.803   2.914   4.901 -0.3965  0.2019 -0.4261
18171TIP3    H175928   2.801   3.009   4.909  0.3942  0.1994 -0.0852
18171TIP3    H275929   2.724   2.885   4.947 -0.2949  0.6624  0.0565
18172TIP3   OH275930   5.991   0.561   2.431 -0.5034  0.1634 -0.3187
18172TIP3    H175931   5.976   0.655   2.440 -0.7980  0.1441 -0.5970
18172TIP3    H275932   5.906   0.521   2.448  0.1160 -0.2478  2.3903
18173TIP3   OH275933   2.817   4.460  14.694  0.1968  0.7123 -0.5563
18173TIP3    H175934   2.878   4.534  14.692 -0.0289  0.9229  0.0429
18173TIP3    H275935   2.749   4.487  14.755  0.1796 -0.0409 -0.2258
18174TIP3   OH275936   3.966   4.344  10.252  0.5844 -0.5362 -0.2477
18174TIP3    H175937   3.957   4.396  10.332  1.9980  2.6729 -1.9647
18174TIP3    H275938   3.913   4.266  10.268  0.4009  0.1712  3.5752
18175TIP3   OH275939   0.923   1.845   4.636  0.2213 -0.0065 -0.4525
18175TIP3    H175940   1.016   1.840   4.612 -0.1237 -0.7178 -1.7374
18175TIP3    H275941   0.913   1.933   4.672  1.2912  0.2740 -0.7883
18176TIP3   OH275942   1.729   1.198  11.437 -0.1033 -0.3500 -0.2824
18176TIP3    H175943   1.697   1.108  11.428 -0.0253 -0.3394 -0.6757
18176TIP3    H275944   1.818   1.196  11.402  0.2699 -0.3378  0.6444
18177TIP3   OH275945   5.231   0.673  12.935  0.0903 -0.3000 -0.3561
18177TIP3    H175946   5.222   0.722  13.017  0.3375 -0.8840  0.0283
18177TIP3    H275947   5.304   0.716  12.890 -0.0795  0.0557 -0.2998
18178TIP3   OH275948   6.028   2.851  11.145  0.6275  0.5687  0.3025
18178TIP3    H175949   6.028   2.761  11.112  0.9085  0.1374  1.4453
18178TIP3    H275950   5.945   2.860  11.192  0.4480  1.0294 -0.0805
18179TIP3   OH275951   4.746   4.538   5.044  0.5553  0.2575 -0.3112
18179TIP3    H175952   4.673   4.493   5.004  0.3634 -0.1335  0.4697
18179TIP3    H275953   4.821   4.480   5.030  0.0296 -1.1198  2.0440
18180TIP3   OH275954   4.524   1.136   2.324  0.1453 -0.7350  0.0574
18180TIP3    H175955   4.542   1.149   2.231 -1.3660 -0.8815 -0.2731
18180TIP3    H275956   4.555   1.217   2.366  0.0274 -0.3048 -0.6789
18181TIP3   OH275957   5.334   1.261  12.302  0.8148 -0.1445  0.2717
18181TIP3    H175958   5.381   1.333  12.261  0.4210  0.9426  1.6373
18181TIP3    H275959   5.258   1.247  12.245  2.0885 -1.0703 -1.2551
18182TIP3   OH275960   2.030   5.513   2.420  0.3376 -0.2996 -0.5207
18182TIP3    H175961   2.114   5.558   2.421  0.6364 -0.8425 -0.1866
18182TIP3    H275962   1.973   5.566   2.476  0.6248 -0.2213 -0.3001
18183TIP3   OH275963   3.769   1.309   3.352  0.2047  0.1336  0.2014
18183TIP3    H175964   3.838   1.322   3.287  0.3180 -2.7966 -0.4017
18183TIP3    H275965   3.730   1.395   3.364  2.3627  1.3958 -1.2582
18184TIP3   OH275966   1.970   5.839   6.091  0.2293  0.4602  0.3400
18184TIP3    H175967   2.026   5.915   6.110 -1.9278  2.3426 -0.4143
18184TIP3    H275968   1.958   5.842   5.996 -0.5146 -0.3903  0.3982
18185TIP3   OH275969   3.401   5.634  12.497  0.0143  0.7069  0.1009
18185TIP3    H175970   3.369   5.716  12.458 -0.6410 -0.2614 -1.4835
18185TIP3    H275971   3.484   5.658  12.538 -0.6583  2.3782  0.5882
18186TIP3   OH275972   2.864   0.155   0.108  0.5084 -0.4345  0.8355
18186TIP3    H175973   2.934   0.109   0.152 -1.7728 -4.1997  0.9250
18186TIP3    H275974   2.850   0.106   0.027 -2.2252 -0.1264  1.0311
18187TIP3   OH275975   6.544   3.208  12.643 -0.2836  0.2434  0.4599
18187TIP3    H175976   6.552   3.194  12.738  1.7600 -1.7956  0.0821
18187TIP3    H275977   6.450   3.207  12.627 -0.6615 -0.0072  2.4008
18188TIP3   OH275978   0.352   6.717   1.610  0.0228 -0.0281  0.2634
18188TIP3    H175979   0.260   6.706   1.633 -0.2378 -0.0539 -0.7400
18188TIP3    H275980   0.376   6.802   1.647 -0.8463  0.6963 -0.7771
18189TIP3   OH275981   0.336   5.906   1.379  0.8312 -0.3330  0.1583
18189TIP3    H175982   0.310   5.814   1.384  3.0489 -1.0866 -0.9588
18189TIP3    H275983   0.292   5.947   1.453 -1.7197 -1.8599 -0.3716
18190TIP3   OH275984   5.371   5.109   0.160 -0.0024  0.1933  0.2470
18190TIP3    H175985   5.431   5.177   0.127  1.4213 -0.2581  1.7633
18190TIP3    H275986   5.371   5.042   0.092 -0.3811  1.0979 -0.6704
18191TIP3   OH275987   0.582   1.224   5.463 -0.1026  0.1438 -0.1996
18191TIP3    H175988   0.604   1.268   5.545  1.4942 -1.3890  0.2531
18191TIP3    H275989   0.501   1.177   5.482 -0.6531  1.1263 -0.0416
18192TIP3   OH275990   6.548   5.449   6.019  0.4490 -0.1365 -0.6061
18192TIP3    H175991   6.536   5.400   5.938 -1.0629  1.0430 -1.1532
18192TIP3    H275992   6.636   5.428   6.048  0.5797 -1.5146 -1.9182
18193TIP3   OH275993   1.168   5.947   3.857  0.2870  0.1344 -0.5896
18193TIP3    H175994   1.085   5.975   3.817 -0.3009  0.7263  0.9833
18193TIP3    H275995   1.168   5.988   3.943  1.6542 -0.8842 -0.0757
18194TIP3   OH275996   4.450   6.229  16.888  0.4253 -0.1362  0.3908
18194TIP3    H175997   4.465   6.146  16.931  0.9440 -0.7633 -0.9296
18194TIP3    H275998   4.496   6.293  16.942  1.3181 -0.9347  0.6080
18195TIP3   OH275999   3.887   2.760   6.266  0.0561 -0.3034 -0.2082
18195TIP3    H176000   3.820   2.822   6.294  0.5337  0.2867 -0.3664
18195TIP3    H276001   3.853   2.722   6.185 -0.3874 -0.5020  0.0659
18196TIP3   OH276002   4.665   4.172  12.450  0.8396  0.3082 -0.4805
18196TIP3    H176003   4.638   4.211  12.533  2.4879 -0.0174  0.2434
18196TIP3    H276004   4.607   4.213  12.385 -0.3358  0.7297  0.7719
18197TIP3   OH276005   3.668   2.553  13.478  0.0624 -0.1771  0.2163
18197TIP3    H176006   3.620   2.527  13.399  0.2280 -1.4504  0.5203
18197TIP3    H276007   3.600   2.558  13.546  0.1308 -0.5611  0.3189
18198TIP3   OH276008   1.608   6.141   3.114  0.2466 -0.4787  0.1120
18198TIP3    H176009   1.595   6.091   3.034 -0.6301  0.6622 -0.4946
18198TIP3    H276010   1.667   6.088   3.167 -0.1525 -1.8337 -0.7675
18199TIP3   OH276011   6.381   5.183  12.314 -0.1914  0.0930  0.8664
18199TIP3    H176012   6.286   5.181  12.324 -0.2529 -0.5255  0.2603
18199TIP3    H276013   6.413   5.109  12.365 -0.0299  0.3277  1.1068
18200TIP3   OH276014   6.313   3.548  15.973  0.0576  0.1902  0.0404
18200TIP3    H176015   6.231   3.596  15.963 -0.3093 -0.4853 -0.2710
18200TIP3    H276016   6.288   3.456  15.963  0.7125 -0.0799  0.8360
18201TIP3   OH276017   0.554   2.015   3.343 -0.6667 -0.5859  0.2634
18201TIP3    H176018   0.501   2.093   3.359 -1.0032 -0.3522 -1.7258
18201TIP3    H276019   0.628   2.024   3.403 -0.3814  1.5998 -0.3346
18202TIP3   OH276020   3.062   3.583  10.213 -0.1699 -0.3307 -0.1501
18202TIP3    H176021   3.063   3.490  10.236 -0.6575 -0.1133  0.8224
18202TIP3    H276022   2.992   3.620  10.267  2.6760  1.3714  2.7380
18203TIP3   OH276023   4.477   1.631   2.126  0.0255 -0.1345 -0.3385
18203TIP3    H176024   4.385   1.615   2.145 -0.1517  1.4176  0.2602
18203TIP3    H276025   4.476   1.708   2.068  0.9587  0.4360  0.3756
18204TIP3   OH276026   2.990   3.188   3.839 -0.0109  0.0463  0.2235
18204TIP3    H176027   3.025   3.228   3.759  2.1706  1.0562  1.5698
18204TIP3    H276028   2.911   3.238   3.859 -0.3653  0.0340 -1.0860
18205TIP3   OH276029   0.023   0.261  16.401  0.6341 -0.7455  0.6380
18205TIP3    H176030  -0.006   0.195  16.463  3.6747 -1.3112  1.6516
18205TIP3    H276031   0.107   0.291  16.436  0.9982  1.1687 -1.6191
18206TIP3   OH276032   5.301   5.166  16.121 -0.0254 -0.0317 -0.3674
18206TIP3    H176033   5.368   5.169  16.189  0.3485  2.1053 -0.7639
18206TIP3    H276034   5.233   5.109  16.157 -1.1355  3.0545  3.0597
18207TIP3   OH276035   3.318   6.629   1.016  0.6236  0.4085  0.0152
18207TIP3    H176036   3.351   6.575   1.088  0.9203  0.3997 -0.1270
18207TIP3    H276037   3.228   6.649   1.041 -0.5248 -2.5827 -1.2843
18208TIP3   OH276038   5.301   2.273   2.302  0.1720  0.4909 -0.1717
18208TIP3    H176039   5.283   2.179   2.309 -1.5572  0.9016  2.2098
18208TIP3    H276040   5.387   2.284   2.342 -0.1489  0.0358  0.6725
18209TIP3   OH276041   0.756   3.128   1.186  0.2027 -0.3856 -0.2177
18209TIP3    H176042   0.674   3.132   1.137  0.7323  1.9220 -1.0712
18209TIP3    H276043   0.817   3.084   1.127  0.0309 -0.4521 -0.3448
18210TIP3   OH276044   5.445   1.993  11.367 -0.4148  0.6638  0.0109
18210TIP3    H176045   5.504   1.917  11.364 -1.6703 -0.5927  2.7861
18210TIP3    H276046   5.501   2.068  11.354  1.3215 -0.6207 -0.2656
18211TIP3   OH276047   3.610   4.589  16.857 -0.0925  0.2677  0.7454
18211TIP3    H176048   3.629   4.579  16.950  1.9109  1.1419  0.4779
18211TIP3    H276049   3.545   4.660  16.853 -1.4757 -0.8946  1.5281
18212TIP3   OH276050   3.894   0.072   3.360 -0.3117 -0.6403 -0.7782
18212TIP3    H176051   3.887   0.023   3.442 -1.2619 -1.7782 -1.5080
18212TIP3    H276052   3.824   0.137   3.366 -0.2013 -0.5390 -0.5688
18213TIP3   OH276053   0.332   5.398  16.932 -0.6452  0.0316  0.1872
18213TIP3    H176054   0.404   5.357  16.980 -0.4717  1.3259  1.0875
18213TIP3    H276055   0.264   5.413  16.998 -0.4620  1.6983  0.0473
18214TIP3   OH276056   5.328   6.053  16.140 -0.0332  0.3155 -0.3567
18214TIP3    H176057   5.323   6.011  16.053 -1.9200  0.4598 -0.3548
18214TIP3    H276058   5.380   6.132  16.125  2.5495 -1.2833 -0.6155
18215TIP3   OH276059   3.376   1.605   5.362  0.1568 -0.2303 -0.4556
18215TIP3    H176060   3.424   1.537   5.314  1.0442  0.4674 -0.5833
18215TIP3    H276061   3.366   1.570   5.450  2.4311  0.2849  0.0649
18216TIP3   OH276062   5.679   4.725  10.886  0.0432  0.5549  0.8694
18216TIP3    H176063   5.627   4.805  10.896 -0.6319  0.1836  0.4343
18216TIP3    H276064   5.715   4.730  10.797  1.3126  1.1211  1.3947
18217TIP3   OH276065   1.513   3.302   3.251 -0.3359 -0.3492  0.1252
18217TIP3    H176066   1.483   3.340   3.169 -2.4859 -1.3300  0.3619
18217TIP3    H276067   1.525   3.209   3.231  0.2306 -0.3912  0.6496
18218TIP3   OH276068   3.498   5.030  16.023  0.3456  0.0443  0.3230
18218TIP3    H176069   3.500   4.988  15.937 -0.0562 -1.7484  1.1535
18218TIP3    H276070   3.445   5.109  16.010 -0.9890 -0.9890 -0.7470
18219TIP3   OH276071   2.858   2.916   3.762 -0.3228  0.6641  0.3589
18219TIP3    H176072   2.953   2.904   3.753 -0.2831  0.2885  1.2303
18219TIP3    H276073   2.848   3.009   3.781 -0.0194  0.4806  1.5010
18220TIP3   OH276074   5.493   3.192   2.710  0.3850  0.0173 -0.1536
18220TIP3    H176075   5.425   3.131   2.738  0.0357  0.4024 -0.1472
18220TIP3    H276076   5.545   3.208   2.788  0.8657 -0.7589 -0.3058
18221TIP3   OH276077   2.246   3.638  17.192  0.2900 -0.4128  0.2234
18221TIP3    H176078   2.174   3.622  17.253  0.9627  0.7543  1.3680
18221TIP3    H276079   2.322   3.651  17.248  0.7498  1.6550 -0.7994
18222TIP3   OH276080   1.273   5.391   0.218  0.3698  0.0567 -0.2432
18222TIP3    H176081   1.315   5.461   0.168  2.2058 -1.6258 -1.1768
18222TIP3    H276082   1.204   5.358   0.160 -0.9039  1.4108  0.4362
18223TIP3   OH276083   0.781   0.761  14.946  0.1417  0.0865 -0.3677
18223TIP3    H176084   0.864   0.730  14.908 -0.4677 -0.8131 -1.0165
18223TIP3    H276085   0.806   0.798  15.030  1.2677  0.2685 -0.7536
18224TIP3   OH276086   1.890   1.987   0.773 -0.1688 -0.3329  0.0702
18224TIP3    H176087   1.818   1.950   0.824 -0.3150 -2.2645 -1.3974
18224TIP3    H276088   1.952   1.915   0.765  2.0854  1.3463  1.4765
18225TIP3   OH276089   2.708   6.450  17.197 -0.0236 -0.0404  0.2086
18225TIP3    H176090   2.731   6.357  17.208 -1.4501 -0.2995  1.3119
18225TIP3    H276091   2.665   6.453  17.112 -0.3619 -0.4860  0.3564
18226TIP3   OH276092   3.911   1.592   3.276 -0.8083  0.6110  0.5689
18226TIP3    H176093   3.834   1.573   3.222 -1.8916  0.2775  2.1563
18226TIP3    H276094   3.889   1.674   3.320 -0.4030  0.3386  1.2883
18227TIP3   OH276095   4.655   1.266  12.625  0.5626  0.2079 -0.2569
18227TIP3    H176096   4.617   1.354  12.628 -0.4638 -0.1557 -1.5734
18227TIP3    H276097   4.731   1.275  12.568  0.4764  0.2372 -0.3664
18228TIP3   OH276098   3.709   1.891  10.750 -0.4835 -0.0596  0.5120
18228TIP3    H176099   3.656   1.925  10.678  1.8622  3.2336  0.1031
18228TIP3    H276100   3.720   1.798  10.730 -3.2777 -0.1698 -1.0675
18229TIP3   OH276101   4.940   0.885  12.758 -0.0835 -0.1351  0.0557
18229TIP3    H176102   4.911   0.943  12.829  0.6290 -2.1402  2.0867
18229TIP3    H276103   5.030   0.913  12.740  0.5936 -1.1309  1.6902
18230TIP3   OH276104   5.279   4.058  13.600  0.2769 -0.1068  0.0207
18230TIP3    H176105   5.250   3.979  13.646 -0.6549  0.1582 -0.0893
18230TIP3    H276106   5.346   4.095  13.656  1.0927 -1.2441 -0.1693
18231TIP3   OH276107   3.721   6.551  14.154  0.0668 -0.1080 -0.5452
18231TIP3    H176108   3.695   6.459  14.145 -0.3744 -0.1642  1.0657
18231TIP3    H276109   3.745   6.577  14.065 -1.2890 -1.3400 -1.3324
18232TIP3   OH276110   2.418   5.319  11.513 -0.3968  0.4816 -0.3170
18232TIP3    H176111   2.334   5.274  11.498 -0.9828  1.2430  0.5997
18232TIP3    H276112   2.400   5.410  11.491  0.2792  0.6031 -0.3717
18233TIP3   OH276113   5.857   2.684   1.352 -0.2930  0.0510  0.4220
18233TIP3    H176114   5.944   2.695   1.314  0.0050 -1.1279  0.7245
18233TIP3    H276115   5.809   2.631   1.288 -1.0300  1.2643 -0.0686
18234TIP3   OH276116   3.812   6.177   6.091  0.5559 -0.5902  0.6406
18234TIP3    H176117   3.853   6.191   6.177 -0.2159  0.6336  0.8347
18234TIP3    H276118   3.722   6.208   6.103 -0.0033 -1.8233 -0.1965
18235TIP3   OH276119   5.309   3.003  11.330 -0.5609 -0.8732  0.3692
18235TIP3    H176120   5.371   2.948  11.377  0.1885 -0.6991 -0.3799
18235TIP3    H276121   5.360   3.080  11.305 -1.4360 -0.0986  0.9029
18236TIP3   OH276122   6.593   0.209   4.534  0.2110  0.5311  0.0186
18236TIP3    H176123   6.522   0.182   4.592  0.9516 -1.0826  0.2379
18236TIP3    H276124   6.574   0.166   4.450  0.6624  0.4862 -0.0641
18237TIP3   OH276125   6.662   5.963  13.894  0.0398 -0.5294  0.0722
18237TIP3    H176126   6.606   5.889  13.919  0.3484 -0.2423  1.7286
18237TIP3    H276127   6.730   5.966  13.962  0.5759  0.7034 -0.4861
18238TIP3   OH276128   1.174   5.269  14.390  0.0526  0.0611  0.0030
18238TIP3    H176129   1.179   5.291  14.297 -1.0634 -0.1827 -0.1254
18238TIP3    H276130   1.179   5.174  14.392  3.2972  0.1262  0.4505
18239TIP3   OH276131   3.627   2.379  17.294  0.6735 -0.6529  0.1067
18239TIP3    H176132   3.550   2.369  17.238  0.8873 -3.4331  0.1467
18239TIP3    H276133   3.593   2.370  17.383  1.0421 -2.3537  0.1067
18240TIP3   OH276134   5.877   2.289  13.492 -0.1279  0.2504  0.3048
18240TIP3    H176135   5.916   2.341  13.421  0.7804  0.3093  0.8262
18240TIP3    H276136   5.783   2.295  13.477 -0.0018  1.2523 -0.2141
18241TIP3   OH276137   5.150   6.097  16.493  0.3598  0.1844  0.0810
18241TIP3    H176138   5.210   6.172  16.491  0.7551 -0.1475 -1.5401
18241TIP3    H276139   5.177   6.043  16.419 -0.3682 -1.2241  0.8108
18242TIP3   OH276140   2.746   0.063  11.662 -0.3763  0.2407 -0.3613
18242TIP3    H176141   2.822   0.115  11.639  0.3650 -1.4051 -1.8868
18242TIP3    H276142   2.782  -0.015  11.704 -0.9468 -1.5054 -2.8436
18243TIP3   OH276143   0.647   1.616   0.410 -0.0669 -0.5292 -0.4399
18243TIP3    H176144   0.708   1.543   0.403  1.7920  1.0663 -2.2210
18243TIP3    H276145   0.598   1.613   0.327 -0.8335 -0.4583  0.0040
18244TIP3   OH276146   3.964   0.848  11.241 -0.1821  0.6323  0.0071
18244TIP3    H176147   3.983   0.764  11.199  1.2167  0.6444  0.5400
18244TIP3    H276148   3.984   0.833  11.334 -0.6824  1.3311  0.2367
18245TIP3   OH276149   3.564   4.551   3.486 -0.0270  0.2956  0.2989
18245TIP3    H176150   3.584   4.537   3.579 -1.4468 -0.1241  0.5533
18245TIP3    H276151   3.533   4.642   3.482  0.4757  0.4682  0.1371
18246TIP3   OH276152   0.602   4.834   3.927 -0.3934 -0.4839 -0.3102
18246TIP3    H176153   0.680   4.879   3.894 -1.0268 -0.0665 -1.2478
18246TIP3    H276154   0.611   4.744   3.895 -0.7393 -0.2142 -1.1621
18247TIP3   OH276155   0.359   4.478  12.531  0.5655  0.0732 -0.1916
18247TIP3    H176156   0.265   4.466  12.514  0.7629  0.2178 -1.4877
18247TIP3    H276157   0.378   4.565  12.496  1.4041 -0.3898 -0.9228
18248TIP3   OH276158   4.506   2.254  10.946  1.0067 -0.1828 -0.4144
18248TIP3    H176159   4.600   2.256  10.929  0.8596 -0.9547 -1.3968
18248TIP3    H276160   4.498   2.223  11.036  1.6692 -1.7846 -0.8761
18249TIP3   OH276161   2.986   4.610   2.853 -0.0670  0.3020  0.2468
18249TIP3    H176162   2.960   4.589   2.942 -1.7198 -1.4123 -0.5664
18249TIP3    H276163   2.961   4.702   2.841  0.4837  0.6483  1.6223
18250TIP3   OH276164   3.248   1.949  15.452  0.1146 -0.3536 -0.1914
18250TIP3    H176165   3.219   1.862  15.481 -1.7655  1.0461  2.4974
18250TIP3    H276166   3.177   1.980  15.396  0.1658 -0.0561 -0.0929
18251TIP3   OH276167   5.926   1.202  15.132 -0.2466  0.3180 -0.7884
18251TIP3    H176168   5.902   1.201  15.225  2.0293  0.5541 -0.1562
18251TIP3    H276169   5.851   1.161  15.088 -0.5341 -1.6783  1.3520
18252TIP3   OH276170   5.662   2.456  13.447  0.0459  0.8069 -0.3036
18252TIP3    H176171   5.691   2.547  13.451  0.7473  0.5764  0.0168
18252TIP3    H276172   5.620   2.447  13.362  1.0326  1.1214 -0.8357
18253TIP3   OH276173   2.560   4.520  12.896 -0.4989 -0.4330 -0.4536
18253TIP3    H176174   2.619   4.467  12.949 -0.4525  1.3159  1.3747
18253TIP3    H276175   2.585   4.610  12.915 -1.3052  0.3040 -2.5690
18254TIP3   OH276176   4.746   2.727  13.887 -0.0892  0.2737  0.4185
18254TIP3    H176177   4.722   2.799  13.829  0.6536  0.3881  0.2398
18254TIP3    H276178   4.671   2.668  13.885 -0.2286  0.4718 -0.3582
18255TIP3   OH276179   4.443   2.628   5.311  0.5440 -0.4413 -0.0101
18255TIP3    H176180   4.348   2.615   5.317  0.5410 -0.4395 -0.0524
18255TIP3    H276181   4.471   2.569   5.242  0.7481 -1.3247  0.8142
18256TIP3   OH276182   4.915   3.368  14.680 -0.1142  0.4026 -0.1085
18256TIP3    H176183   4.908   3.460  14.656 -2.8216 -0.0450 -1.4205
18256TIP3    H276184   4.934   3.368  14.773 -1.2171  2.2915  0.1501
18257TIP3   OH276185   4.545   5.575  13.421  0.1710 -0.0859  0.4183
18257TIP3    H176186   4.504   5.520  13.487  0.1502 -0.3784  0.1589
18257TIP3    H276187   4.591   5.642  13.472  1.9941 -1.5731  0.8441
18258TIP3   OH276188   0.708   6.208  11.850 -0.1875 -0.5161 -0.1583
18258TIP3    H176189   0.624   6.193  11.893  0.3415 -1.1846  0.6821
18258TIP3    H276190   0.767   6.142  11.888  0.9028  0.4052 -0.1772
18259TIP3   OH276191   1.292   4.042  11.511 -0.0428  0.5759  0.0036
18259TIP3    H176192   1.375   4.085  11.534 -1.2537  2.3786  1.2588
18259TIP3    H276193   1.231   4.070  11.579 -2.3091  1.2866 -2.1665
18260TIP3   OH276194   5.017   5.970  10.994  0.0715  0.0465 -0.4962
18260TIP3    H176195   4.946   6.034  10.999  0.3747  0.3115  2.2246
18260TIP3    H276196   5.077   5.995  11.064  0.6444 -2.6902  0.1308
18261TIP3   OH276197   1.004   6.403  12.392  0.3019  0.7408  0.0202
18261TIP3    H176198   0.977   6.328  12.338  0.9889  0.1212  0.5099
18261TIP3    H276199   1.099   6.402  12.389  0.4007  0.0811  2.0098
18262TIP3   OH276200   6.238   3.207   1.109 -0.3865 -0.5535 -0.0350
18262TIP3    H176201   6.236   3.253   1.025 -0.8532  1.7150  1.1340
18262TIP3    H276202   6.189   3.126   1.093  0.1711 -0.5504 -2.1074
18263TIP3   OH276203   3.113   6.664  12.030 -0.3577  0.1907  0.0630
18263TIP3    H176204   3.141   6.576  12.055  1.2807  0.5672 -0.2921
18263TIP3    H276205   3.018   6.659  12.025 -0.4528 -1.0335  2.0275
18264TIP3   OH276206   0.323   5.048  12.883  0.6744 -0.2277  0.4495
18264TIP3    H176207   0.274   5.097  12.948  0.7322 -0.0480  0.3571
18264TIP3    H276208   0.274   5.060  12.802 -0.3790 -1.8738  0.7882
18265TIP3   OH276209   2.941   1.571  15.363  0.0675 -0.0710  0.3586
18265TIP3    H176210   3.014   1.589  15.422 -0.3705 -0.4173  1.0204
18265TIP3    H276211   2.941   1.644  15.301 -0.1003  0.8466  1.4180
18266TIP3   OH276212   6.256   4.722   3.238  0.1050 -0.2491  0.1164
18266TIP3    H176213   6.214   4.643   3.272  2.0398 -1.1501  0.5251
18266TIP3    H276214   6.268   4.706   3.145  0.0208 -0.2091  0.0987
18267TIP3   OH276215   2.295   0.184  14.011 -0.6550  0.2277 -0.5568
18267TIP3    H176216   2.221   0.223  14.057  0.3854  0.3890  1.0661
18267TIP3    H276217   2.352   0.153  14.081  0.1174 -1.2291 -1.7825
18268TIP3   OH276218   5.995   2.046  11.934 -0.0456 -0.1941 -0.7210
18268TIP3    H176219   5.943   1.968  11.913  0.2859 -0.9165  0.9653
18268TIP3    H276220   5.987   2.102  11.857 -4.5113  0.3819 -0.0890
18269TIP3   OH276221   1.829   0.974  15.126 -0.4507  0.0628 -0.0224
18269TIP3    H176222   1.909   0.933  15.156 -1.5078 -0.9041  1.5979
18269TIP3    H276223   1.831   0.964  15.031  2.4798  2.2602 -0.3541
18270TIP3   OH276224   2.565   5.000   3.415  0.3019  0.3156  0.5253
18270TIP3    H176225   2.497   5.040   3.470  0.1110  0.2366  0.3434
18270TIP3    H276226   2.608   5.075   3.373  1.6784  0.5362  2.1972
18271TIP3   OH276227   5.405   3.827  14.431  0.1885  0.0454 -0.3807
18271TIP3    H176228   5.449   3.777  14.499  1.4363  1.0045 -0.4422
18271TIP3    H276229   5.374   3.906  14.475  2.8973  1.7327 -1.2295
18272TIP3   OH276230   2.330   3.049   2.316 -0.1837 -0.4014  0.3454
18272TIP3    H176231   2.305   3.028   2.406  2.9726 -0.6215  1.2812
18272TIP3    H276232   2.379   3.130   2.323  0.2041 -0.4693 -1.1768
18273TIP3   OH276233   0.573   5.968  11.429  0.2846 -1.1023 -0.1540
18273TIP3    H176234   0.544   5.894  11.483  0.2242 -2.3082 -1.7589
18273TIP3    H276235   0.582   6.040  11.491  1.2632 -2.6702  1.6515
18274TIP3   OH276236   0.267   1.800   3.230 -0.2171 -1.0211  0.3948
18274TIP3    H176237   0.267   1.817   3.135 -1.9905 -0.9462  0.3711
18274TIP3    H276238   0.179   1.768   3.248  0.5331 -2.4081  1.8116
18275TIP3   OH276239   4.832   0.153  14.765 -0.6565  0.1629  0.3436
18275TIP3    H176240   4.845   0.089  14.834 -0.1175  1.0374  1.0618
18275TIP3    H276241   4.739   0.145  14.743 -0.9679  0.2848  1.5767
18276TIP3   OH276242   2.404   2.255   3.833  0.1494 -0.2014 -0.2891
18276TIP3    H176243   2.408   2.211   3.748 -0.0545  0.1336 -0.4755
18276TIP3    H276244   2.359   2.193   3.891  0.8599 -0.6955 -0.2549
18277TIP3   OH276245   3.037   6.085  13.640 -0.1696 -0.8762  0.0035
18277TIP3    H176246   2.956   6.089  13.590  0.0444  0.5829 -0.2983
18277TIP3    H276247   3.106   6.081  13.573  0.0098 -3.0039  0.2631
18278TIP3   OH276248   2.728   2.053   3.828 -0.0588 -0.1834  0.0163
18278TIP3    H176249   2.777   2.116   3.880  0.3994 -0.4252 -0.1124
18278TIP3    H276250   2.718   2.095   3.742  0.7761 -0.5194 -0.2606
18279TIP3   OH276251   6.118   5.575  12.058  0.2790  0.4576  0.0458
18279TIP3    H176252   6.153   5.637  12.122  0.1353 -0.6673  1.2554
18279TIP3    H276253   6.109   5.493  12.106  0.0962 -0.4168 -1.4132
18280TIP3   OH276254   6.060   0.521  14.775 -0.4592  0.0304 -0.7864
18280TIP3    H176255   6.031   0.468  14.701 -1.9646  1.6036 -1.4041
18280TIP3    H276256   6.089   0.603  14.736 -0.1993  0.4712  0.2906
18281TIP3   OH276257   0.499   0.762   1.931  0.1214 -0.2299 -0.3263
18281TIP3    H176258   0.562   0.690   1.930  1.5408  0.9406  0.3660
18281TIP3    H276259   0.479   0.779   1.839 -0.5347 -1.7332 -0.4827
18282TIP3   OH276260   0.624   2.275   5.422 -0.8148 -0.9445 -0.6728
18282TIP3    H176261   0.626   2.363   5.459 -0.6201 -0.6273 -1.4087
18282TIP3    H276262   0.550   2.232   5.465  0.1165 -0.9930  0.9334
18283TIP3   OH276263   2.610   4.624  16.536  0.0307 -0.0034 -0.0220
18283TIP3    H176264   2.656   4.687  16.592  1.1519 -1.2816  0.5233
18283TIP3    H276265   2.599   4.547  16.591  1.5661 -1.4658 -1.6698
18284TIP3   OH276266   0.098   0.070  12.293 -0.3426  0.3700 -0.0445
18284TIP3    H176267   0.084   0.138  12.227 -2.6713 -1.2882 -1.3968
18284TIP3    H276268   0.069   0.111  12.375  2.7610  2.5182  0.1681
18285TIP3   OH276269   3.198   3.256  14.589  0.4787 -0.6098 -0.0948
18285TIP3    H176270   3.199   3.352  14.586  2.8860 -0.5849 -1.3209
18285TIP3    H276271   3.195   3.230  14.497  0.8983 -1.6871  0.1865
18286TIP3   OH276272   0.279   0.998   3.141  0.6064  0.0600  0.0570
18286TIP3    H176273   0.234   0.923   3.179  0.3361  0.4731  0.5564
18286TIP3    H276274   0.368   0.992   3.175  0.7234 -0.2986 -0.2907
18287TIP3   OH276275   0.202   1.087  12.340  0.2974  0.0876  0.5176
18287TIP3    H176276   0.270   1.118  12.281 -1.6998  1.0317 -1.4630
18287TIP3    H276277   0.182   1.163  12.395  0.8098 -0.1928  1.1072
18288TIP3   OH276278   0.939   4.195   4.506 -0.3436 -0.2925  0.3625
18288TIP3    H176279   1.011   4.255   4.526 -0.3884  0.4006 -1.4276
18288TIP3    H276280   0.868   4.222   4.564  0.3143  0.0538  1.0159
18289TIP3   OH276281   4.526   4.153  16.900  0.4559  0.1573  0.8488
18289TIP3    H176282   4.513   4.226  16.840  0.1181  0.1960  0.9628
18289TIP3    H276283   4.616   4.125  16.885 -0.1997 -1.1533 -1.1667
18290TIP3   OH276284   4.399   2.434  12.194 -0.1553 -0.2900 -0.7101
18290TIP3    H176285   4.314   2.478  12.193 -0.2067 -0.3945 -1.4971
18290TIP3    H276286   4.389   2.363  12.131  0.6489 -0.0487 -1.1131
18291TIP3   OH276287   3.397   5.146   1.289 -0.0695  0.3641  0.7251
18291TIP3    H176288   3.303   5.139   1.268  0.3769  0.6422 -1.6418
18291TIP3    H276289   3.404   5.229   1.336 -0.6770  1.9411 -1.7581
18292TIP3   OH276290   6.521   0.543   5.049 -0.5005  0.2491 -0.6603
18292TIP3    H176291   6.448   0.491   5.083  1.0884 -0.4302  1.9227
18292TIP3    H276292   6.574   0.481   5.000 -1.0411  0.5057 -1.5934
18293TIP3   OH276293   0.166   4.536   1.103  0.1258 -0.3059 -0.2044
18293TIP3    H176294   0.235   4.543   1.037  0.5550 -1.7757  0.0476
18293TIP3    H276295   0.190   4.599   1.170  0.3392  0.3468 -0.8799
18294TIP3   OH276296   0.532   2.162   3.818 -0.1085 -0.4802  0.2793
18294TIP3    H176297   0.505   2.254   3.812 -2.2718 -1.1328 -2.1678
18294TIP3    H276298   0.628   2.165   3.820 -0.1343  1.8362  1.1940
18295TIP3   OH276299   4.727   2.854  11.417  0.0522 -0.7600 -0.5411
18295TIP3    H176300   4.754   2.764  11.436  0.6862 -0.4814 -0.1054
18295TIP3    H276301   4.637   2.859  11.448  0.1122 -1.1548 -0.2957
18296TIP3   OH276302   5.329   5.125  16.716  0.0937  0.0949  0.2756
18296TIP3    H176303   5.283   5.150  16.636  0.1952 -0.1937  0.1250
18296TIP3    H276304   5.260   5.122  16.782 -0.1364 -0.4866  0.0176
18297TIP3   OH276305   1.137   0.088  13.213 -0.3001  0.1643  0.3841
18297TIP3    H176306   1.164   0.094  13.122 -1.5344 -3.0373 -0.3366
18297TIP3    H276307   1.208   0.040  13.256  0.1920  1.4993  1.1497
18298TIP3   OH276308   2.833   0.242   2.598  0.0779  0.3710 -0.3079
18298TIP3    H176309   2.905   0.264   2.656 -1.8867  2.4939  1.5095
18298TIP3    H276310   2.783   0.176   2.646 -1.6889  2.3082  0.6857
18299TIP3   OH276311   4.056   4.084  13.264 -0.0855  0.3144  0.2287
18299TIP3    H176312   4.052   4.037  13.348  2.4478  2.2821  1.5825
18299TIP3    H276313   4.131   4.046  13.219 -0.4043  0.4462 -0.4211
18300TIP3   OH276314   0.361   0.735   1.308 -0.2139  0.2326 -0.1062
18300TIP3    H176315   0.289   0.681   1.342 -0.6878 -0.5658 -2.2049
18300TIP3    H276316   0.319   0.790   1.241  1.0160  0.1841 -0.9417
18301TIP3   OH276317   2.714   3.453   0.605  0.5631 -0.6368  0.0718
18301TIP3    H176318   2.666   3.456   0.523  1.1054  1.1136 -0.2137
18301TIP3    H276319   2.802   3.425   0.581  0.8817  0.4385 -0.0375
18302TIP3   OH276320   4.548   0.993   3.509 -0.0105 -0.4417  0.0546
18302TIP3    H176321   4.460   0.990   3.546 -0.0755 -1.4415 -0.1452
18302TIP3    H276322   4.598   0.931   3.563  0.4716 -0.1647 -0.0731
18303TIP3   OH276323   2.351   6.052   3.382  0.3583  0.3139 -0.2637
18303TIP3    H176324   2.283   6.036   3.316 -0.0124  1.7763 -0.2497
18303TIP3    H276325   2.404   6.123   3.346  1.6116 -0.4709 -0.0478
18304TIP3   OH276326   2.384   0.624  13.928 -0.4661  0.0584  0.0438
18304TIP3    H176327   2.478   0.609  13.938 -0.7244 -1.6595  0.1932
18304TIP3    H276328   2.364   0.593  13.840 -1.6011 -4.0192  1.5201
18305TIP3   OH276329   2.999   2.102   0.708  0.3541 -0.3928 -0.0622
18305TIP3    H176330   3.069   2.072   0.649  0.4306 -2.1233  0.8387
18305TIP3    H276331   2.918   2.078   0.663  0.2923  1.2486 -0.9183
18306TIP3   OH276332   5.494   0.961  17.404  0.4472 -0.0907  0.1589
18306TIP3    H176333   5.562   0.999  17.348  0.3450  0.1511  0.2014
18306TIP3    H276334   5.504   0.866  17.391 -0.0826 -0.0209 -0.8679
18307TIP3   OH276335   1.092   6.616   2.138  0.1665 -0.2956  0.0118
18307TIP3    H176336   1.019   6.669   2.169  0.7328  0.0965  0.6855
18307TIP3    H276337   1.125   6.572   2.216  0.5131 -0.6460 -0.3279
18308TIP3   OH276338   5.560   2.838   1.068  0.2206  0.0411 -0.3287
18308TIP3    H176339   5.553   2.744   1.049 -0.8136 -0.2487  1.3665
18308TIP3    H276340   5.651   2.860   1.045  0.2423 -1.1619 -1.5336
18309TIP3   OH276341   1.682   5.073  13.492 -0.0125  0.3615 -0.3525
18309TIP3    H176342   1.769   5.110  13.498  0.9867 -1.9470  0.5236
18309TIP3    H276343   1.690   5.005  13.424 -0.5303 -1.2663  1.1524
18310TIP3   OH276344   4.604   5.610   5.176 -0.1505  0.1457 -0.0308
18310TIP3    H176345   4.628   5.658   5.097 -1.9835 -0.2979 -0.9002
18310TIP3    H276346   4.516   5.577   5.159 -0.9042  0.6219  2.4664
18311TIP3   OH276347   3.650   0.935  13.479  0.0744 -0.1502 -0.2564
18311TIP3    H176348   3.642   1.030  13.487 -2.1299 -0.3122  0.3362
18311TIP3    H276349   3.729   0.921  13.426 -0.1299  2.0480 -1.2527
18312TIP3   OH276350   0.114   2.587  11.095  0.0918 -0.1979 -0.7093
18312TIP3    H176351   0.181   2.520  11.079  1.1741  0.8371 -0.6676
18312TIP3    H276352   0.083   2.611  11.008 -1.8360 -2.1955 -0.6584
18313TIP3   OH276353   5.712   5.642   1.025  0.1368 -0.3014 -0.0974
18313TIP3    H176354   5.644   5.582   1.057  0.8873 -0.9531  0.2890
18313TIP3    H276355   5.663   5.721   0.999 -0.8096 -0.8975 -0.1835
18314TIP3   OH276356   0.614   4.929   5.332 -1.2001 -0.4256  0.2807
18314TIP3    H176357   0.647   4.853   5.379 -1.9146 -1.3697 -0.7104
18314TIP3    H276358   0.690   4.987   5.325 -0.5936 -1.1249  0.8642
18315TIP3   OH276359   3.564   2.259   5.352 -0.3481  0.5139 -0.2617
18315TIP3    H176360   3.549   2.181   5.299 -0.5479  0.3061  0.0955
18315TIP3    H276361   3.648   2.243   5.396 -0.6252  0.2779  0.1931
18316TIP3   OH276362   5.435   0.128  12.707  0.1536  0.2638  0.2334
18316TIP3    H176363   5.381   0.161  12.779 -0.4741 -1.2852  0.5158
18316TIP3    H276364   5.523   0.122  12.743 -0.1269 -0.3350  0.8340
18317TIP3   OH276365   1.953   4.631  10.875 -0.6183  0.1041 -0.5425
18317TIP3    H176366   2.044   4.620  10.904 -0.7902 -2.5287 -0.8183
18317TIP3    H276367   1.926   4.545  10.845 -3.0671  0.9434 -0.9997
18318TIP3   OH276368   1.352   1.406  14.760  0.5818  0.1083 -0.5063
18318TIP3    H176369   1.406   1.399  14.839  0.6976  0.8016 -0.5162
18318TIP3    H276370   1.376   1.329  14.708  2.4570  0.9943 -1.0348
18319TIP3   OH276371   0.346   6.502   5.329 -0.3442  0.1705 -0.4495
18319TIP3    H176372   0.259   6.541   5.326  0.0759  1.1942  0.3508
18319TIP3    H276373   0.364   6.479   5.237 -1.7569 -0.8056 -0.5291
18320TIP3   OH276374   2.274   3.510   3.581 -0.0540  0.1157  0.3942
18320TIP3    H176375   2.338   3.465   3.636  0.6313  1.2091  0.5236
18320TIP3    H276376   2.189   3.472   3.606  0.5934 -2.1874 -0.5850
18321TIP3   OH276377   1.617   2.693   5.313  0.1145  0.2240 -0.2571
18321TIP3    H176378   1.595   2.786   5.319  0.6800  0.4257 -1.1172
18321TIP3    H276379   1.533   2.648   5.311 -0.1896  0.5066  2.6033
18322TIP3   OH276380   4.286   2.475  10.714  0.0360 -0.1712  0.2983
18322TIP3    H176381   4.360   2.532  10.693 -0.0226  0.2323  1.1386
18322TIP3    H276382   4.242   2.461  10.631  0.5616  0.2904 -0.0641
18323TIP3   OH276383   2.012   3.889   3.250 -0.2022  1.0213  0.1360
18323TIP3    H176384   2.095   3.853   3.282 -0.5753 -0.3686 -0.3824
18323TIP3    H276385   2.038   3.965   3.198  0.4617  2.9479  3.0726
18324TIP3   OH276386   1.189   6.112  16.591 -0.0097 -0.0973  0.2969
18324TIP3    H176387   1.266   6.118  16.647  0.9776  0.7049 -1.1026
18324TIP3    H276388   1.164   6.020  16.594  1.5693 -0.5526  0.0518
18325TIP3   OH276389   0.719   5.379  13.573 -0.0748  0.4478 -0.5792
18325TIP3    H176390   0.679   5.359  13.489 -2.0158 -4.2853  1.1028
18325TIP3    H276391   0.648   5.416  13.625  0.2655  0.5116 -0.1559
18326TIP3   OH276392   6.466   6.589  14.312  0.2148  0.2566  0.2348
18326TIP3    H176393   6.508   6.521  14.365 -0.2326  0.5468  0.9919
18326TIP3    H276394   6.372   6.574  14.324  0.1076  1.2315  0.7462
18327TIP3   OH276395   2.407   5.356  11.982 -0.1331  0.8845 -0.1824
18327TIP3    H176396   2.462   5.305  12.040  0.0944  1.2090 -0.1077
18327TIP3    H276397   2.461   5.374  11.906 -0.0090  1.4963  0.0398
18328TIP3   OH276398   2.242   5.256   5.673  0.2825  0.3966 -0.3102
18328TIP3    H176399   2.161   5.212   5.697 -0.3962  1.4960 -0.5291
18328TIP3    H276400   2.301   5.239   5.746 -0.1242 -0.4377 -0.1624
18329TIP3   OH276401   4.170   5.346   5.559  0.0386 -0.0955 -0.1870
18329TIP3    H176402   4.218   5.412   5.510 -0.6320 -0.9845 -2.1498
18329TIP3    H276403   4.236   5.285   5.589  0.2716 -0.8938 -2.1982
18330TIP3   OH276404   0.489   4.738  15.626 -0.2551  0.2935 -0.2223
18330TIP3    H176405   0.563   4.792  15.653  0.1473 -0.6762  0.6534
18330TIP3    H276406   0.525   4.682  15.557 -0.6042  0.9126 -0.9326
18331TIP3   OH276407   4.365   4.837  14.040 -0.1749 -0.7626  0.0507
18331TIP3    H176408   4.320   4.838  13.956 -0.7165 -1.7666  0.3186
18331TIP3    H276409   4.404   4.750  14.046  0.4274 -0.4694  0.5441
18332TIP3   OH276410   4.685   1.463   1.998 -0.1096 -0.6496  0.2108
18332TIP3    H176411   4.611   1.514   2.031 -0.6194 -0.7407 -0.7556
18332TIP3    H276412   4.712   1.408   2.072 -1.7362 -1.4417  0.2453
18333TIP3   OH276413   2.817   1.777  16.200 -0.0764 -0.0840  0.1244
18333TIP3    H176414   2.741   1.817  16.158 -0.4959 -2.0482 -1.0805
18333TIP3    H276415   2.865   1.735  16.129  2.2479  1.1723  0.8227
18334TIP3   OH276416   2.101   6.668   0.947 -0.2247  0.6031  0.3892
18334TIP3    H176417   2.090   6.685   1.041  1.1421  2.1545  0.3001
18334TIP3    H276418   2.132   6.577   0.943 -0.9193  0.2989  1.3677
18335TIP3   OH276419   1.967   0.128   1.203 -0.4979 -0.1824  0.3264
18335TIP3    H176420   1.984   0.034   1.207 -0.2861 -0.1053  1.8356
18335TIP3    H276421   1.995   0.161   1.289 -2.0943  0.9905  0.4420
18336TIP3   OH276422   3.630   0.920  17.126 -0.1314 -0.0213 -0.0793
18336TIP3    H176423   3.615   0.949  17.216  1.1259  0.7348 -0.0842
18336TIP3    H276424   3.699   0.978  17.094 -1.0764  0.2242 -1.7871
18337TIP3   OH276425   1.909   1.564  11.872  0.2076  0.1719  0.2600
18337TIP3    H176426   1.853   1.525  11.940 -0.0166  0.8001  0.4420
18337TIP3    H276427   1.914   1.497  11.804 -0.3551 -0.0869  0.4683
18338TIP3   OH276428   4.350   3.075  12.769 -0.1192  0.1908  0.0469
18338TIP3    H176429   4.339   3.007  12.836  2.5744  1.2948  1.7641
18338TIP3    H276430   4.438   3.060  12.735 -0.6235  1.0264 -1.7513
18339TIP3   OH276431   5.515   3.286   1.133 -0.2082 -0.5886 -0.1061
18339TIP3    H176432   5.442   3.344   1.154  1.4240  1.2807  0.7197
18339TIP3    H276433   5.491   3.202   1.172 -0.5824  0.8158  3.0016
18340TIP3   OH276434   1.724   2.712  15.937  0.4794 -0.1928 -0.4930
18340TIP3    H176435   1.724   2.617  15.935  0.0905 -0.1894 -2.4772
18340TIP3    H276436   1.791   2.735  16.001  0.6453 -1.7835 -0.0597
18341TIP3   OH276437   1.413   5.707  12.933 -0.0027  0.0371 -0.5609
18341TIP3    H176438   1.325   5.709  12.895 -1.4134  3.2168  2.3612
18341TIP3    H276439   1.399   5.685  13.025  2.1942  1.0229  0.0814
18342TIP3   OH276440   6.579   6.072   3.792  0.9967  0.6112 -0.3208
18342TIP3    H176441   6.673   6.075   3.779  0.8366  0.3156 -1.6548
18342TIP3    H276442   6.542   6.065   3.704 -0.4081  3.6482 -0.0911
18343TIP3   OH276443   4.191   6.397  15.357  0.1848 -0.3112  0.0469
18343TIP3    H176444   4.279   6.362  15.370  0.8550  1.8430  1.8765
18343TIP3    H276445   4.181   6.401  15.261  1.8012 -1.2014 -0.1970
18344TIP3   OH276446   2.952   0.321   1.671  0.2672 -0.1516  0.2563
18344TIP3    H176447   3.023   0.256   1.666  0.8568  0.5277 -0.3353
18344TIP3    H276448   2.994   0.398   1.709 -0.4117 -0.0822  0.8705
18345TIP3   OH276449   5.007   4.854   0.442  0.0110 -0.4214 -0.0293
18345TIP3    H176450   5.040   4.925   0.387 -1.2895  1.0487  0.9834
18345TIP3    H276451   5.080   4.835   0.502  0.9638 -1.1469 -1.3647
18346TIP3   OH276452   1.480   2.939   5.299 -0.3276  0.1475 -0.1232
18346TIP3    H176453   1.465   2.921   5.392  2.1037 -1.4407  0.0567
18346TIP3    H276454   1.438   3.023   5.284  0.9385  1.4889  2.9608
18347TIP3   OH276455   6.074   1.403  15.022  0.3688  0.2115 -0.1448
18347TIP3    H176456   6.039   1.329  15.073  0.1779  0.2827 -0.1725
18347TIP3    H276457   6.167   1.405  15.044  0.3576  0.0171 -0.0751
18348TIP3   OH276458   5.465   4.554   0.484  0.3703  0.0253 -0.2462
18348TIP3    H176459   5.464   4.606   0.564  0.1593 -1.4579  0.7542
18348TIP3    H276460   5.557   4.530   0.473  0.2244 -0.8406  0.3015
18349TIP3   OH276461   6.316   2.465  12.295 -0.3201  0.3191 -0.6871
18349TIP3    H176462   6.362   2.385  12.320 -0.4882  0.7628  1.1351
18349TIP3    H276463   6.231   2.435  12.262 -0.9004 -0.2263  1.1964
18350TIP3   OH276464   2.592   3.319   0.204 -0.0338  0.3837  0.0933
18350TIP3    H176465   2.635   3.288   0.284 -1.4358 -1.2291  0.2647
18350TIP3    H276466   2.588   3.414   0.215  0.8381  0.2987  1.3992
18351TIP3   OH276467   2.699   4.007   4.066 -0.2185 -0.1571 -0.5120
18351TIP3    H176468   2.635   4.015   4.136  0.1057 -0.6320 -0.1514
18351TIP3    H276469   2.727   4.097   4.047  2.6363 -0.1454  2.7400
18352TIP3   OH276470   2.884   5.990   2.340 -0.3563  0.1847  0.1526
18352TIP3    H176471   2.886   6.085   2.354  2.3719  0.1556  0.4629
18352TIP3    H276472   2.832   5.957   2.413  0.1461  1.3158  1.0656
18353TIP3   OH276473   1.577   3.992  13.639 -0.2112 -0.3096 -0.2616
18353TIP3    H176474   1.586   3.957  13.728  2.0376  1.6854  0.4145
18353TIP3    H276475   1.520   4.068  13.649 -1.2877 -1.0094 -0.8694
18354TIP3   OH276476   4.064   5.972   0.286  0.4340  0.6774  0.2266
18354TIP3    H176477   4.126   5.946   0.355 -1.4864 -1.8681  1.1150
18354TIP3    H276478   4.115   5.967   0.205  1.9090  0.6513  1.1217
18355TIP3   OH276479   4.458   3.736  15.326  0.1864 -0.1355 -0.0969
18355TIP3    H176480   4.436   3.722  15.233  3.1384  0.1401 -0.9517
18355TIP3    H276481   4.467   3.647  15.361  0.1930 -0.2544 -0.3890
18356TIP3   OH276482   5.354   3.394  14.607 -0.5293 -0.0049 -0.1493
18356TIP3    H176483   5.422   3.399  14.540 -1.2355  0.4491 -0.8498
18356TIP3    H276484   5.399   3.361  14.684  0.8416  1.8583 -0.0910
18357TIP3   OH276485   0.533   4.818  11.293  0.0711 -0.1645 -0.0110
18357TIP3    H176486   0.526   4.752  11.224 -1.2715 -1.8701  1.6516
18357TIP3    H276487   0.540   4.768  11.374  0.3749  1.7685  1.2352
18358TIP3   OH276488   5.520   4.896  11.772  0.1721 -0.1571  0.5893
18358TIP3    H176489   5.598   4.949  11.784  0.0150  0.3113 -0.3605
18358TIP3    H276490   5.498   4.906  11.679 -2.3412  1.6313  1.2558
18359TIP3   OH276491   0.244   5.602   2.620  0.5953 -0.7431  0.0066
18359TIP3    H176492   0.236   5.508   2.632 -1.5188 -0.5809  0.3559
18359TIP3    H276493   0.217   5.639   2.704  1.6960  0.1915 -0.0273
18360TIP3   OH276494   2.746   5.328   6.335  0.2842  0.3368  0.7539
18360TIP3    H176495   2.718   5.331   6.427  1.0542  2.3779  0.9749
18360TIP3    H276496   2.667   5.354   6.286 -0.1733 -0.9099  0.7928
18361TIP3   OH276497   5.744   3.986   2.189  0.5245  0.4235  0.0576
18361TIP3    H176498   5.777   4.071   2.158 -0.6140  1.1760  0.8376
18361TIP3    H276499   5.822   3.931   2.196  1.4088  1.6745  0.3648
18362TIP3   OH276500   3.952   0.584  11.746 -0.1473  0.3165  0.3802
18362TIP3    H176501   3.871   0.633  11.755 -0.4156  0.3069 -1.5292
18362TIP3    H276502   3.924   0.493  11.736  0.2323  0.0369  1.6340
18363TIP3   OH276503   0.710   6.216  13.099 -0.2561  0.1181  0.4496
18363TIP3    H176504   0.651   6.141  13.102  1.7131 -1.5736 -0.3229
18363TIP3    H276505   0.755   6.215  13.184  1.2285 -0.9303 -0.2852
18364TIP3   OH276506   0.950   0.827  11.540  0.0193  0.0164  0.5383
18364TIP3    H176507   0.897   0.760  11.496  1.4963 -0.8086 -0.0831
18364TIP3    H276508   0.995   0.872  11.470  2.1389 -1.0756  1.1039
18365TIP3   OH276509   4.231   1.679   2.871 -0.2529 -0.1774 -0.0311
18365TIP3    H176510   4.312   1.726   2.888 -0.9013  0.4348  1.5934
18365TIP3    H276511   4.257   1.588   2.856  0.6181 -0.4835  2.7431
18366TIP3   OH276512   4.954   6.450  11.524 -0.1820  0.3584 -0.0286
18366TIP3    H176513   4.912   6.523  11.569 -0.8995  0.0771 -0.2256
18366TIP3    H276514   5.019   6.418  11.586 -1.0568  0.0681  0.7716
18367TIP3   OH276515   6.546   3.637  13.804 -0.3648 -0.3131  0.5438
18367TIP3    H176516   6.546   3.705  13.871 -0.0690 -0.2733  0.5015
18367TIP3    H276517   6.536   3.684  13.721 -2.7174 -0.4611  0.6598
18368TIP3   OH276518   4.323   4.484   4.297  0.0694  0.2964 -0.0333
18368TIP3    H176519   4.411   4.518   4.315  0.6024 -0.9487 -0.1556
18368TIP3    H276520   4.271   4.512   4.373  1.2352 -1.1673  1.3984
18369TIP3   OH276521   3.814   1.798  14.870 -0.1805 -0.1991  0.4048
18369TIP3    H176522   3.753   1.725  14.883  1.3901 -1.6046  0.2839
18369TIP3    H276523   3.849   1.816  14.957 -0.2693  0.1346  0.3713
18370TIP3   OH276524   2.896   5.719   1.782 -0.5923  0.6546  0.3249
18370TIP3    H176525   2.902   5.676   1.868  2.1415 -0.0113 -0.0725
18370TIP3    H276526   2.976   5.771   1.777 -1.7834  2.4225 -0.9759
18371TIP3   OH276527   3.119   2.511   0.262  0.2670 -0.3534 -0.0540
18371TIP3    H176528   3.201   2.463   0.254 -0.3748 -1.5018  0.1144
18371TIP3    H276529   3.086   2.517   0.172  1.5130  1.9692 -0.4601
18372TIP3   OH276530   4.277   6.642  15.701 -0.4152  0.6382  0.0945
18372TIP3    H176531   4.189   6.605  15.696  0.3773 -1.4295  0.5231
18372TIP3    H276532   4.323   6.603  15.627  0.0500  2.0388 -0.3785
18373TIP3   OH276533   5.765   3.278   5.057  0.6350 -0.0073 -0.2698
18373TIP3    H176534   5.706   3.248   5.126  1.6030  0.9155  1.0144
18373TIP3    H276535   5.812   3.199   5.029  0.4261 -0.3575  0.3393
18374TIP3   OH276536   0.218   4.073   6.145  0.3714 -0.0187  0.4753
18374TIP3    H176537   0.271   4.122   6.081  1.1013 -2.5892 -1.0540
18374TIP3    H276538   0.204   3.988   6.103 -1.3679 -0.9136  2.7086
18375TIP3   OH276539   0.674   6.472  11.744 -0.1892 -0.2688  0.5832
18375TIP3    H176540   0.676   6.397  11.802  0.3052 -0.5974  0.1566
18375TIP3    H276541   0.766   6.501  11.738  0.3321 -2.0387 -2.2726
18376TIP3   OH276542   1.291   5.041   6.399  0.1009  0.1010  0.2430
18376TIP3    H176543   1.336   4.957   6.413 -1.8104 -0.8970  0.7332
18376TIP3    H276544   1.353   5.093   6.348  1.8235 -1.1651  0.9315
18377TIP3   OH276545   5.681   5.717  12.712  0.2361 -0.0241  0.0692
18377TIP3    H176546   5.585   5.721  12.705  0.3189  0.5729 -0.7466
18377TIP3    H276547   5.709   5.808  12.709  1.0937 -0.2537 -3.8620
18378TIP3   OH276548   3.084   3.750   0.173 -0.3802 -0.0725 -0.0057
18378TIP3    H176549   3.138   3.826   0.152 -0.0868 -0.2570  0.0789
18378TIP3    H276550   2.994   3.779   0.156 -0.3278  0.5166  0.6928
18379TIP3   OH276551   5.984   1.792   0.361  0.2603  0.2355 -0.3200
18379TIP3    H176552   5.933   1.783   0.442 -1.0926  2.1333 -0.8833
18379TIP3    H276553   5.969   1.882   0.334  1.6752 -0.0068 -2.0666
18380TIP3   OH276554   1.473   0.297   1.091  0.4470 -0.4048  0.3436
18380TIP3    H176555   1.556   0.288   1.137  0.4268 -0.6199  0.3379
18380TIP3    H276556   1.491   0.266   1.003  0.7148  0.8126 -0.0599
18381TIP3   OH276557   5.837   3.912   0.631  0.2264 -0.2515  0.0131
18381TIP3    H176558   5.797   3.982   0.579  0.2888 -1.5132 -1.7988
18381TIP3    H276559   5.820   3.938   0.722 -0.6782  1.5645 -0.6258
18382TIP3   OH276560   3.103   3.019  11.306 -0.0020  0.1318 -0.4754
18382TIP3    H176561   3.188   3.000  11.346  0.4842  0.9285 -1.0911
18382TIP3    H276562   3.063   2.933  11.292  0.6809 -0.2504 -0.1344
18383TIP3   OH276563   3.761   6.147  13.744 -0.6121 -0.1873  0.3553
18383TIP3    H176564   3.786   6.183  13.658 -1.6669 -1.4562 -0.5240
18383TIP3    H276565   3.719   6.063  13.723 -1.3940 -0.2604  2.0812
18384TIP3   OH276566   5.992   1.119   5.366  0.6073 -0.4437 -0.2129
18384TIP3    H176567   5.939   1.045   5.337  0.7859 -1.3987  1.6778
18384TIP3    H276568   5.934   1.168   5.424  0.4329  1.0490 -1.6048
18385TIP3   OH276569   1.565   1.206   3.726 -0.4984  0.0347  1.0155
18385TIP3    H176570   1.506   1.240   3.793 -0.2638  0.3138  1.0764
18385TIP3    H276571   1.633   1.272   3.716 -0.4476 -0.0711  0.6089
18386TIP3   OH276572   3.018   3.532  14.479 -0.1122  0.2580 -0.0376
18386TIP3    H176573   3.099   3.576  14.506 -0.0719  0.7991 -1.0054
18386TIP3    H276574   2.957   3.604  14.461 -0.6593 -0.1371  0.2144
18387TIP3   OH276575   1.567   1.265   1.255 -0.7598 -0.1122  0.3184
18387TIP3    H176576   1.479   1.303   1.254 -0.1554  1.3756 -1.1983
18387TIP3    H276577   1.623   1.332   1.215  1.0125 -1.1687  0.8979
18388TIP3   OH276578   1.460   6.583  16.266 -1.1167 -0.2947  0.2085
18388TIP3    H176579   1.528   6.620  16.210 -1.0371 -1.1527 -0.2864
18388TIP3    H276580   1.495   6.592  16.355 -0.3111 -0.7925 -0.0454
18389TIP3   OH276581   5.934   3.429  11.477  0.3149  0.0846  0.2000
18389TIP3    H176582   5.865   3.377  11.437  0.8790 -0.8996  0.4811
18389TIP3    H276583   5.900   3.452  11.564  0.2194 -0.1508  0.2249
18390TIP3   OH276584   1.870   0.751  11.906 -0.2493  0.2166  0.4561
18390TIP3    H176585   1.814   0.674  11.898  0.3748 -0.0156 -3.6935
18390TIP3    H276586   1.958   0.719  11.884  0.0188  2.0388 -1.4003
18391TIP3   OH276587   0.933   6.184   5.339 -0.3234  0.2557 -0.2937
18391TIP3    H176588   0.866   6.124   5.372  0.7027 -1.0743 -0.5315
18391TIP3    H276589   0.990   6.129   5.285  1.5807  1.0798  0.7424
18392TIP3   OH276590   4.561   4.063   3.459  0.0035 -0.3628  0.2972
18392TIP3    H176591   4.608   4.035   3.380 -0.7798 -0.9948  0.0364
18392TIP3    H276592   4.475   4.088   3.427 -0.6176 -1.4443  1.0493
18393TIP3   OH276593   5.805   0.341  14.898 -0.2238  0.1458 -0.2892
18393TIP3    H176594   5.836   0.420  14.943 -3.5005  0.3704  1.9914
18393TIP3    H276595   5.752   0.374  14.826  0.7270 -0.0956 -1.1165
18394TIP3   OH276596   0.848   1.664  15.013  0.3681  0.5430  0.0630
18394TIP3    H176597   0.905   1.618  14.951  0.3717 -0.2742  0.6591
18394TIP3    H276598   0.813   1.738  14.963  0.3822 -0.0884 -0.9178
18395TIP3   OH276599   1.804   4.420   3.552  0.7117  0.5594  0.2648
18395TIP3    H176600   1.847   4.489   3.604  1.6271 -1.0993  1.8513
18395TIP3    H276601   1.875   4.361   3.528 -0.2749 -0.7338  0.4277
18396TIP3   OH276602   3.732   0.111   2.170 -0.7132 -0.0752  0.4000
18396TIP3    H176603   3.827   0.098   2.171 -0.7441 -0.3348  1.6252
18396TIP3    H276604   3.714   0.159   2.252 -1.8829 -1.9888  1.3254
18397TIP3   OH276605   1.447   6.730  15.949  0.5128  0.2175  0.6663
18397TIP3    H176606   1.492   6.800  15.997 -0.0345  0.9279  0.1610
18397TIP3    H276607   1.452   6.756  15.858  1.7929 -1.2725  0.2541
18398TIP3   OH276608   6.476   5.391  14.152 -0.1166  0.4753  0.8173
18398TIP3    H176609   6.546   5.381  14.216  2.1583  0.1815 -1.5490
18398TIP3    H276610   6.464   5.304  14.114 -0.2162  0.9460 -0.2937
18399TIP3   OH276611   1.079   1.018  15.590 -0.8836  0.4081  0.3225
18399TIP3    H176612   1.031   1.096  15.617 -1.5146 -0.5344  2.0737
18399TIP3    H276613   1.160   1.053  15.551 -2.3041  1.9716 -1.4140
18400TIP3   OH276614   4.664   4.064   4.154  1.1673 -0.7394  0.0788
18400TIP3    H176615   4.656   4.158   4.169  0.3164 -1.0421  1.7225
18400TIP3    H276616   4.590   4.042   4.098  0.7723 -0.5907  0.5397
18401TIP3   OH276617   5.141   6.497  11.104  0.2026  0.8828 -0.1723
18401TIP3    H176618   5.049   6.471  11.110  0.0998  1.0841 -0.8597
18401TIP3    H276619   5.154   6.518  11.012  0.9788  0.7179 -0.1017
18402TIP3   OH276620   0.050   1.476   4.835 -0.3309  0.5006  0.0476
18402TIP3    H176621   0.072   1.569   4.838 -0.4250  0.5078  0.6229
18402TIP3    H276622   0.133   1.432   4.822 -0.1943  0.6269  0.4851
18403TIP3   OH276623   6.212   0.835   4.622 -0.9769 -0.0647 -0.0711
18403TIP3    H176624   6.266   0.773   4.574 -2.7513 -0.7377 -1.2545
18403TIP3    H276625   6.225   0.811   4.714 -1.1499 -1.8062 -0.4639
18404TIP3   OH276626   5.693   6.634  12.650  0.1753  0.7185 -0.4079
18404TIP3    H176627   5.632   6.614  12.720  0.9743  0.4258  0.2133
18404TIP3    H276628   5.727   6.720  12.671  0.5283  0.5672 -0.3569
18405TIP3   OH276629   2.824   6.292  15.305 -0.1619 -0.1864 -0.4239
18405TIP3    H176630   2.806   6.208  15.262 -1.0359  0.1858 -0.8067
18405TIP3    H276631   2.751   6.348  15.279 -1.4810 -0.3237  2.5833
18406TIP3   OH276632   4.811   0.592   0.295 -0.3433 -0.4130  0.3539
18406TIP3    H176633   4.742   0.593   0.361  1.4885  1.9841  2.4306
18406TIP3    H276634   4.797   0.671   0.244  0.2643 -0.4409  0.1325
18407TIP3   OH276635   0.871   4.632   4.928 -0.3304  0.4538  0.1662
18407TIP3    H176636   0.822   4.681   4.994 -1.0488  1.2322 -0.8886
18407TIP3    H276637   0.822   4.646   4.847 -0.4819 -1.9504 -0.2244
18408TIP3   OH276638   1.001   2.735  13.951 -0.0989 -1.1780 -0.5464
18408TIP3    H176639   1.050   2.669  13.900  0.1439 -0.1500 -1.7011
18408TIP3    H276640   1.058   2.754  14.025  0.3876 -1.3798 -0.8596
18409TIP3   OH276641   6.560   4.815   5.788  0.2923  0.8625  0.6877
18409TIP3    H176642   6.612   4.737   5.808  0.0469  0.8229  1.2072
18409TIP3    H276643   6.535   4.849   5.874 -0.9892  0.5725  0.4588
18410TIP3   OH276644   3.864   1.438  14.017  0.3377 -0.4007 -0.2854
18410TIP3    H176645   3.818   1.383  13.955 -0.3546 -0.4531  0.2619
18410TIP3    H276646   3.917   1.376  14.069  0.1586 -0.4678 -0.1809
18411TIP3   OH276647   1.076   2.030  15.613  0.5010  0.4767 -0.2661
18411TIP3    H176648   1.126   2.014  15.693  0.1537  1.8217  0.2491
18411TIP3    H276649   1.129   1.993  15.543  0.6375 -1.0703  0.6129
18412TIP3   OH276650   5.532   6.263   3.730 -0.1444  0.3512 -0.2275
18412TIP3    H176651   5.607   6.272   3.671 -0.9700 -0.7465 -1.5017
18412TIP3    H276652   5.473   6.205   3.684 -1.4942  0.6566  1.0623
18413TIP3   OH276653   4.779   3.599  11.012  0.9315 -0.2547  0.4250
18413TIP3    H176654   4.790   3.538  10.938  1.6058  0.6095 -0.2090
18413TIP3    H276655   4.687   3.589  11.037  0.1276  0.8125 -1.7986
18414TIP3   OH276656   0.284   2.356  11.135 -0.3993 -0.4448 -0.2092
18414TIP3    H176657   0.303   2.401  11.217 -2.5237  1.3489 -0.5927
18414TIP3    H276658   0.364   2.307  11.115  0.8239  0.5118  1.9743
18415TIP3   OH276659   3.850   3.071  11.944 -0.1138 -0.0928 -0.3105
18415TIP3    H176660   3.885   3.079  11.856  0.3315 -1.4212 -0.2811
18415TIP3    H276661   3.906   3.005  11.986 -2.3586 -2.0532 -0.1524
18416TIP3   OH276662   2.407   1.786  15.032 -0.2415 -0.5603 -0.5648
18416TIP3    H176663   2.331   1.801  14.975 -0.4286 -2.2990 -0.8219
18416TIP3    H276664   2.482   1.809  14.977 -0.5290  0.5162 -0.5345
18417TIP3   OH276665   2.035   1.220  16.714 -0.1870 -0.4353 -0.0667
18417TIP3    H176666   2.027   1.129  16.743 -1.9957 -0.0649  0.7626
18417TIP3    H276667   2.018   1.216  16.620 -0.9976 -0.8809  0.0885
18418TIP3   OH276668   3.350   1.298  14.712  0.4361  0.4893  0.0338
18418TIP3    H176669   3.320   1.326  14.626 -1.7586  0.6742  0.7979
18418TIP3    H276670   3.401   1.219  14.695 -1.9503 -0.8750 -1.2862
18419TIP3   OH276671   3.547   1.931  17.315 -0.0425 -0.5007 -0.1155
18419TIP3    H176672   3.576   1.975  17.235  2.3092 -0.3334  0.7207
18419TIP3    H276673   3.581   1.842  17.307  0.2311 -0.4763  0.6740
18420TIP3   OH276674   3.237   0.012   3.739 -0.3974 -0.4782  0.1519
18420TIP3    H176675   3.175  -0.045   3.784 -0.2019  0.3667  1.5616
18420TIP3    H276676   3.185   0.089   3.716 -0.3113 -0.5776 -0.3749
18421TIP3   OH276677   5.935   3.069   3.397  0.2287  0.3207  0.1877
18421TIP3    H176678   5.966   3.152   3.433 -0.2053  1.5022 -2.0215
18421TIP3    H276679   5.950   3.006   3.468 -0.1350  2.3796  2.2238
18422TIP3   OH276680   5.034   0.786   4.966 -0.3820 -0.2407  0.0300
18422TIP3    H176681   5.030   0.838   5.046  0.9359 -0.8369  0.5219
18422TIP3    H276682   5.032   0.850   4.895  2.7976  0.7346  0.6416
18423TIP3   OH276683   1.140   4.881  13.069 -0.4003 -0.2261 -0.2926
18423TIP3    H176684   1.074   4.888  13.138 -0.4290  0.9596 -0.4192
18423TIP3    H276685   1.224   4.894  13.114 -0.4297  0.7017 -0.4979
18424TIP3   OH276686   2.298   2.374   0.856 -0.2509  0.3683  0.6664
18424TIP3    H176687   2.278   2.467   0.852  0.0044  0.3969 -0.3341
18424TIP3    H276688   2.373   2.363   0.797 -0.5764 -0.5297  0.3998
18425TIP3   OH276689   0.673   1.259  14.695 -0.1189 -0.2667 -0.4850
18425TIP3    H176690   0.598   1.301  14.735 -0.4260 -1.1158 -0.1353
18425TIP3    H276691   0.739   1.327  14.689  1.0010 -0.6457  4.0617
18426TIP3   OH276692   3.032   6.665   1.039 -0.1709 -0.0748  0.5860
18426TIP3    H176693   2.999   6.718   0.967  0.2230 -0.5301  0.0671
18426TIP3    H276694   2.962   6.667   1.104  0.2153  1.8918  1.0101
18427TIP3   OH276695   6.080   3.332  11.130  0.1836 -0.1552 -0.7358
18427TIP3    H176696   6.141   3.402  11.153  0.3251 -0.6920  0.6368
18427TIP3    H276697   6.036   3.363  11.050 -0.4116  1.9368  0.3226
18428TIP3   OH276698   1.481   6.598  17.325  0.6424  0.1744 -0.1770
18428TIP3    H176699   1.387   6.600  17.307  1.0251 -0.4777 -2.6651
18428TIP3    H276700   1.496   6.514  17.368  0.2013 -0.1397 -0.6314
18429TIP3   OH276701   1.348   1.892   5.326  0.4395 -0.4365 -0.2774
18429TIP3    H176702   1.395   1.858   5.250  0.0700  1.4553 -1.4126
18429TIP3    H276703   1.257   1.901   5.295 -0.3104 -2.0629  1.2307
18430TIP3   OH276704   4.938   1.506   0.756 -0.7949  0.4250 -0.6396
18430TIP3    H176705   4.884   1.575   0.795 -1.6629 -0.5735 -0.0549
18430TIP3    H276706   4.913   1.426   0.802  0.0291 -0.3383 -1.4772
18431TIP3   OH276707   5.293   1.929   2.314  0.1768 -0.4695  0.0185
18431TIP3    H176708   5.243   1.906   2.236  1.1344  0.1325 -0.7916
18431TIP3    H276709   5.338   1.848   2.339 -1.1169 -0.9966  0.7134
18432TIP3   OH276710   6.366   1.817  10.324  0.4429 -0.0548  0.3730
18432TIP3    H176711   6.321   1.825  10.240  1.1641  0.1680  0.0023
18432TIP3    H276712   6.370   1.723  10.340  0.1180 -0.0892  0.2661
18433TIP3   OH276713   2.886   3.865  15.390 -0.0729 -0.7971 -0.5025
18433TIP3    H176714   2.872   3.780  15.348  0.6436 -1.3245  0.2870
18433TIP3    H276715   2.967   3.854  15.440 -0.4448  0.0751  0.3209
18434TIP3   OH276716   4.037   4.532   1.066  0.4820 -0.0180  0.4061
18434TIP3    H176717   4.052   4.441   1.041 -1.2834 -0.4123  0.5947
18434TIP3    H276718   4.071   4.584   0.994 -1.9452 -1.0146 -1.6122
18435TIP3   OH276719   2.447   2.777   1.513 -0.1717  0.8153  0.4516
18435TIP3    H176720   2.404   2.693   1.526  0.0094  0.3107 -1.7908
18435TIP3    H276721   2.421   2.830   1.588 -1.4032 -0.7824  1.1979
18436TIP3   OH276722   1.221   5.350   3.061 -0.5017 -0.2186  0.3839
18436TIP3    H176723   1.261   5.418   3.114  1.6255 -0.7516 -0.4240
18436TIP3    H276724   1.237   5.378   2.971 -3.1976  0.1937 -0.0663
18437TIP3   OH276725   2.470   0.376  11.174  0.0623  0.1736  0.0729
18437TIP3    H176726   2.527   0.300  11.183 -0.8259 -0.5244 -0.0819
18437TIP3    H276727   2.512   0.429  11.106 -0.4130 -1.2295 -1.3918
18438TIP3   OH276728   2.514   3.813   5.818  0.2977 -0.4669  0.1459
18438TIP3    H176729   2.486   3.851   5.901 -2.1041 -0.2669 -0.6889
18438TIP3    H276730   2.481   3.723   5.820 -0.2607 -0.2938 -0.7973
18439TIP3   OH276731   4.989   1.583  14.175  0.4924 -0.0914  0.4004
18439TIP3    H176732   4.960   1.512  14.233 -1.5456  0.7858  0.5351
18439TIP3    H276733   4.974   1.549  14.087  2.5448 -1.0023  0.3599
18440TIP3   OH276734   4.906   0.948   5.595  0.0162 -0.3723 -0.3886
18440TIP3    H176735   4.931   0.866   5.637 -1.7496 -0.9123 -0.3261
18440TIP3    H276736   4.811   0.953   5.607  0.0744  1.6163 -0.5112
18441TIP3   OH276737   2.566   1.914  16.578 -0.2188  0.2350  0.1239
18441TIP3    H176738   2.547   1.820  16.568  2.8164 -0.4967  0.2067
18441TIP3    H276739   2.641   1.929  16.519 -1.7496  3.0887 -1.2936
18442TIP3   OH276740   0.647   5.095   2.694  0.2003 -0.1295 -0.1204
18442TIP3    H176741   0.577   5.030   2.685  1.0134 -0.8075 -2.0828
18442TIP3    H276742   0.603   5.179   2.684 -1.0796 -0.1376  3.6448
18443TIP3   OH276743   3.945   4.319   3.524 -0.2664 -0.1605  0.0106
18443TIP3    H176744   3.959   4.252   3.457  0.1278  0.3676 -0.4404
18443TIP3    H276745   3.896   4.389   3.479 -1.9600 -0.7424  0.8396
18444TIP3   OH276746   6.401   1.841  11.879 -0.8161 -0.5085  0.2100
18444TIP3    H176747   6.493   1.829  11.855 -1.0534 -0.7015 -0.6418
18444TIP3    H276748   6.363   1.889  11.805 -1.4570 -0.6373  0.4507
18445TIP3   OH276749   3.568   2.754   2.491  0.4263 -0.0396 -0.0947
18445TIP3    H176750   3.647   2.772   2.440  0.6751  1.1646  0.6761
18445TIP3    H276751   3.503   2.816   2.459 -0.2395 -1.0438 -0.7456
18446TIP3   OH276752   5.741   2.794  14.248  0.7477  0.5711  0.2077
18446TIP3    H176753   5.700   2.846  14.317  2.2620  1.9816  0.1116
18446TIP3    H276754   5.763   2.711  14.290  0.5564  0.9507  1.0725
18447TIP3   OH276755   0.719   3.008  15.681  1.0959  0.2163  0.1683
18447TIP3    H176756   0.715   2.986  15.588 -0.7198  1.2618 -0.0518
18447TIP3    H276757   0.672   3.092  15.687 -0.5944 -0.7997  2.2962
18448TIP3   OH276758   5.095   1.180  11.331 -0.9503  0.6922 -0.1474
18448TIP3    H176759   5.190   1.192  11.340 -1.0040  0.6662  0.4996
18448TIP3    H276760   5.081   1.170  11.236  0.0684 -2.2876 -0.1015
18449TIP3   OH276761   5.606   1.614  15.716 -0.2713  0.0986 -0.2661
18449TIP3    H176762   5.633   1.581  15.630 -1.2616  2.9331 -1.8050
18449TIP3    H276763   5.683   1.604  15.771  0.3144 -2.0359 -1.3723
18450TIP3   OH276764   0.268   2.651  15.716  0.1662  0.0032 -0.0690
18450TIP3    H176765   0.363   2.640  15.709  0.0579 -0.4352 -0.9294
18450TIP3    H276766   0.251   2.654  15.811  0.8404 -1.6629  0.1309
18451TIP3   OH276767   4.346   0.367  16.264  0.5629  0.4947 -0.1083
18451TIP3    H176768   4.263   0.318  16.265  1.5690 -1.2828 -0.5895
18451TIP3    H276769   4.388   0.339  16.183  0.9742  2.5728 -0.6583
18452TIP3   OH276770   3.767   5.993  15.112  0.1590 -0.6302 -0.1285
18452TIP3    H176771   3.807   6.020  15.195 -0.3514  1.2181 -0.4208
18452TIP3    H276772   3.806   5.908  15.093 -0.1973 -1.4413  2.3182
18453TIP3   OH276773   2.909   1.782  10.807  0.0723  0.2126  0.3105
18453TIP3    H176774   3.004   1.782  10.802  0.2550  1.4107  2.4575
18453TIP3    H276775   2.883   1.693  10.783  1.8245 -0.4714  0.8078
18454TIP3   OH276776   6.183   4.871  11.294 -0.0774 -0.0206 -0.2627
18454TIP3    H176777   6.116   4.932  11.327 -1.3169 -1.2622 -0.3984
18454TIP3    H276778   6.220   4.916  11.218 -0.2027  1.0265  0.2763
18455TIP3   OH276779   1.505   2.754  12.746  0.6700 -0.1140  0.3140
18455TIP3    H176780   1.584   2.707  12.774  0.6165 -2.0232 -2.3926
18455TIP3    H276781   1.538   2.838  12.714  1.1466  0.4661  2.1646
18456TIP3   OH276782   3.901   3.543   0.379 -0.1176 -0.2186 -0.1732
18456TIP3    H176783   3.879   3.488   0.455  1.1683 -0.4454  0.0613
18456TIP3    H276784   3.828   3.604   0.372 -1.6234 -1.9804 -0.4785
18457TIP3   OH276785   0.667   0.772   1.562  0.1915 -0.4821  0.4526
18457TIP3    H176786   0.584   0.731   1.586 -1.5475  1.7939 -1.2435
18457TIP3    H276787   0.722   0.699   1.533 -1.7563 -1.9007  0.1403
18458TIP3   OH276788   1.623   1.291   0.885  0.1789 -0.1452  0.8901
18458TIP3    H176789   1.618   1.380   0.849  1.3429 -0.1368  0.7169
18458TIP3    H276790   1.537   1.254   0.868 -0.0933  0.7108  0.3271
18459TIP3   OH276791   4.527   1.832  16.112 -0.2378  0.2778 -0.4047
18459TIP3    H176792   4.474   1.855  16.036 -3.7863 -2.1936  1.0766
18459TIP3    H276793   4.509   1.901  16.175 -1.2923 -0.2075 -0.1454
18460TIP3   OH276794   6.255   4.292  11.794  0.2495 -0.0178  0.4819
18460TIP3    H176795   6.344   4.322  11.775  0.3218 -0.4338  0.1633
18460TIP3    H276796   6.262   4.197  11.799 -0.7757 -0.4107 -2.9226
18461TIP3   OH276797   3.351   4.489   2.384  0.1156 -0.2259 -0.6305
18461TIP3    H176798   3.335   4.463   2.475  0.5100 -2.0181 -1.0283
18461TIP3    H276799   3.435   4.536   2.387 -0.6582  1.1495  0.1377
18462TIP3   OH276800   1.127   5.031   6.655 -0.0030  0.0970 -0.0560
18462TIP3    H176801   1.199   5.051   6.715  1.1252 -1.2172 -0.9253
18462TIP3    H276802   1.150   4.947   6.616 -1.4339  0.2139 -1.2548
18463TIP3   OH276803   0.367   0.487   4.132  0.2417 -0.0229 -0.1417
18463TIP3    H176804   0.383   0.530   4.048 -1.1595 -1.5000 -1.2417
18463TIP3    H276805   0.380   0.394   4.113 -1.6643 -0.5409  0.8171
18464TIP3   OH276806   1.383   2.802  14.846 -0.3403  0.1258 -0.1416
18464TIP3    H176807   1.290   2.802  14.869  0.1818  0.4934  2.3379
18464TIP3    H276808   1.416   2.884  14.882  1.3607 -1.0533  1.1698
18465TIP3   OH276809   3.571   6.195   2.601 -0.3329 -0.4480  0.4388
18465TIP3    H176810   3.617   6.267   2.559  0.1272  0.1209  1.8683
18465TIP3    H276811   3.498   6.175   2.541  0.2046  0.4119 -0.5368
18466TIP3   OH276812   0.571   5.081  10.846  0.3368  0.0946  0.0829
18466TIP3    H176813   0.553   5.019  10.917 -0.4696  0.4339  0.1923
18466TIP3    H276814   0.529   5.043  10.769 -2.5769  1.7230  0.7063
18467TIP3   OH276815   2.200   1.005   1.170 -0.5612 -0.1275  0.1653
18467TIP3    H176816   2.226   1.097   1.157 -0.7875 -0.0917 -0.0530
18467TIP3    H276817   2.279   0.962   1.202 -0.4616  0.1513  0.3024
18468TIP3   OH276818   1.238   4.582   1.651  0.3294 -0.2215 -0.6412
18468TIP3    H176819   1.316   4.569   1.598  0.2644 -1.6101 -0.4304
18468TIP3    H276820   1.182   4.506   1.631 -0.2366 -0.1157  0.4495
18469TIP3   OH276821   3.401   5.263  12.327 -0.2379  0.1333  0.0765
18469TIP3    H176822   3.331   5.311  12.282 -0.8976 -1.5225 -0.7317
18469TIP3    H276823   3.358   5.223  12.402 -0.6927 -2.5146 -1.4908
18470TIP3   OH276824   4.372   0.188  17.401  0.6214 -0.3052  0.7228
18470TIP3    H176825   4.385   0.280  17.376 -0.8455  0.0299  1.0533
18470TIP3    H276826   4.459   0.157  17.425  0.9571  1.4070  1.9474
18471TIP3   OH276827   1.783   0.617  15.034  0.5178  0.2422  0.2232
18471TIP3    H176828   1.847   0.626  15.105  1.3814 -3.3769  0.1306
18471TIP3    H276829   1.705   0.581  15.077  0.0809  0.5582 -0.2988
18472TIP3   OH276830   4.341   3.933  12.485  0.0767  0.0801 -0.6903
18472TIP3    H176831   4.323   4.026  12.470 -1.5060 -0.0832 -0.0570
18472TIP3    H276832   4.367   3.929  12.577  0.9682 -0.0156 -0.9372
18473TIP3   OH276833   5.687   6.192   0.342  0.4392 -0.0709  0.0518
18473TIP3    H176834   5.637   6.175   0.422  1.1213 -0.5380  0.3852
18473TIP3    H276835   5.664   6.121   0.283  0.5199 -0.1446  0.1099
18474TIP3   OH276836   5.876   3.588  13.121  0.3782 -0.0187  0.1821
18474TIP3    H176837   5.968   3.571  13.103  0.0344 -0.6419 -1.1991
18474TIP3    H276838   5.873   3.619  13.211  1.6748 -2.5321  1.1863
18475TIP3   OH276839   4.687   1.389  12.277 -0.0210  0.2542 -0.3729
18475TIP3    H176840   4.663   1.376  12.186  0.3046  0.1875 -0.4497
18475TIP3    H276841   4.782   1.399  12.276 -0.0624  0.6990 -0.0917
18476TIP3   OH276842   6.117   5.594  13.501 -0.5898 -0.2079  0.1398
18476TIP3    H176843   6.121   5.668  13.562  1.0877 -0.1640  0.0305
18476TIP3    H276844   6.095   5.519  13.556  0.2906 -0.0628  0.7089
18477TIP3   OH276845   4.017   5.954   6.099 -0.1420  0.4644 -0.0713
18477TIP3    H176846   3.967   6.027   6.061 -0.6333 -0.4500 -1.2475
18477TIP3    H276847   3.987   5.877   6.050  1.1427 -0.3717  0.4194
18478TIP3   OH276848   2.051   1.198  13.460 -0.4261 -0.0884  0.0625
18478TIP3    H176849   2.119   1.151  13.413  0.0555  0.6959 -0.0495
18478TIP3    H276850   2.057   1.167  13.550  0.9311  0.8653  0.3345
18479TIP3   OH276851   1.300   1.498   5.988 -0.1737  0.1110 -0.6088
18479TIP3    H176852   1.347   1.415   5.985  0.5261  0.3847  1.3497
18479TIP3    H276853   1.368   1.564   6.003 -0.8222  0.9411 -1.2122
18480TIP3   OH276854   6.153   0.014   1.414 -0.4831 -0.0229 -0.0656
18480TIP3    H176855   6.213   0.025   1.340  0.2807  1.6515  0.7521
18480TIP3    H276856   6.180  -0.069   1.453  0.3816  0.0135 -0.5475
18481TIP3   OH276857   2.435   5.259   5.895 -0.4498  0.2184  0.1436
18481TIP3    H176858   2.399   5.348   5.892 -0.1140  0.3656  0.3333
18481TIP3    H276859   2.502   5.258   5.826 -0.2373  0.2137  0.3469
18482TIP3   OH276860   2.448   2.467  15.625 -0.2580 -0.0194 -0.0308
18482TIP3    H176861   2.386   2.538  15.609  0.1595  0.0087 -1.7003
18482TIP3    H276862   2.534   2.509  15.627 -0.0851 -0.3568 -0.1364
18483TIP3   OH276863   2.436   2.729  13.299  0.6622  0.4928  0.0158
18483TIP3    H176864   2.417   2.688  13.214  0.4100 -1.4701  0.9529
18483TIP3    H276865   2.365   2.699  13.356 -0.1569  3.2008  0.5370
18484TIP3   OH276866   1.542   3.932  12.964  0.5977 -0.0832 -0.1155
18484TIP3    H176867   1.526   3.893  13.049  1.9688 -0.2889  0.0764
18484TIP3    H276868   1.567   3.859  12.908 -0.6261  0.0025 -0.8013
18485TIP3   OH276869   4.577   6.448  14.307  0.8198  0.3209  0.2897
18485TIP3    H176870   4.664   6.432  14.271 -0.2067 -0.8040 -1.8785
18485TIP3    H276871   4.525   6.373  14.280 -0.6728  0.5675  2.2205
18486TIP3   OH276872   4.895   5.177  12.713 -0.4102  0.2612  0.4746
18486TIP3    H176873   4.850   5.117  12.772  0.7948  1.9295  3.2483
18486TIP3    H276874   4.984   5.185  12.749  0.2840  1.6670 -1.3508
18487TIP3   OH276875   1.222   5.725  14.887 -0.1309  0.3110  0.0596
18487TIP3    H176876   1.302   5.696  14.930 -2.0591 -3.0041  1.8587
18487TIP3    H276877   1.226   5.821  14.889  4.0062  0.3355 -0.6330
18488TIP3   OH276878   3.691   6.515  16.891  0.5565 -0.1007  0.2044
18488TIP3    H176879   3.753   6.542  16.959  2.1825 -0.0223 -1.2437
18488TIP3    H276880   3.718   6.564  16.814 -0.1961 -1.4291 -0.9373
18489TIP3   OH276881   4.576   3.197  11.190 -0.4994 -0.7138  0.1123
18489TIP3    H176882   4.541   3.286  11.194 -0.5047 -0.7690  2.0109
18489TIP3    H276883   4.537   3.152  11.265 -0.0203 -2.1505 -0.4658
18490TIP3   OH276884   4.264   2.745   4.358 -0.3822 -0.3820  0.1198
18490TIP3    H176885   4.323   2.821   4.350  1.2205 -1.5815  0.0264
18490TIP3    H276886   4.296   2.697   4.434  0.4383 -2.4067 -1.3974
18491TIP3   OH276887   3.166   1.694  17.338 -0.0722  0.6246 -0.0422
18491TIP3    H176888   3.082   1.676  17.380  0.1151  0.4660  0.2760
18491TIP3    H276889   3.230   1.678  17.407  0.2279  0.6022 -0.3242
18492TIP3   OH276890   0.544   5.823   4.723 -0.3474 -0.3819  0.2637
18492TIP3    H176891   0.451   5.841   4.718 -0.1344  0.5547 -0.5596
18492TIP3    H276892   0.557   5.745   4.669 -0.3806  0.6286 -1.2564
18493TIP3   OH276893   4.558   0.337   6.105  1.1073  0.0295  0.7612
18493TIP3    H176894   4.552   0.406   6.171 -2.1592  0.8429 -0.1723
18493TIP3    H276895   4.586   0.260   6.153  0.0673  0.8865  2.8870
18494TIP3   OH276896   5.305   1.399  16.673  0.2575 -0.0561  0.6990
18494TIP3    H176897   5.331   1.431  16.587  0.1379 -3.4387 -0.7765
18494TIP3    H276898   5.211   1.418  16.678  0.3051  0.3487  0.1510
18495TIP3   OH276899   5.030   0.456   5.467  0.3508 -0.0538 -0.1787
18495TIP3    H176900   4.979   0.471   5.546 -1.1385 -1.9129 -0.7018
18495TIP3    H276901   5.097   0.524   5.468  0.9832 -0.5613  3.1617
18496TIP3   OH276902   5.743   1.041   2.314  0.3310 -0.7827  0.4651
18496TIP3    H176903   5.719   0.983   2.386  0.7669 -0.7615  0.6311
18496TIP3    H276904   5.741   0.984   2.236  0.3169 -0.9163  0.5628
18497TIP3   OH276905   3.827   2.715  12.219 -0.4702 -0.4097 -0.3130
18497TIP3    H176906   3.776   2.667  12.154  0.2903 -0.3362 -0.9800
18497TIP3    H276907   3.912   2.729  12.177 -0.4496  0.9206  0.1347
18498TIP3   OH276908   3.119   6.459  14.242  0.9457  0.2675 -0.2591
18498TIP3    H176909   3.169   6.540  14.257  0.5775  0.2732  1.0490
18498TIP3    H276910   3.076   6.473  14.157  0.4176  1.7032  0.2183
18499TIP3   OH276911   6.301   6.046  13.425  0.2158 -0.0553 -0.1968
18499TIP3    H176912   6.225   5.996  13.395  0.3865 -2.2482  2.6271
18499TIP3    H276913   6.263   6.121  13.471 -0.1490  0.1982 -0.8905
18500TIP3   OH276914   3.801   0.852   3.404 -0.3907  0.3911  0.0446
18500TIP3    H176915   3.776   0.817   3.489  0.1699 -1.0140 -0.3485
18500TIP3    H276916   3.745   0.929   3.393 -0.4654  0.6095  1.6730
18501TIP3   OH276917   3.138   4.685  17.258 -0.6409  0.2481 -0.6051
18501TIP3    H176918   3.048   4.719  17.251 -1.3664 -1.7080 -1.5293
18501TIP3    H276919   3.183   4.722  17.183 -1.4561 -0.8266 -1.6733
18502TIP3   OH276920   3.851   2.243  17.240 -0.6226 -0.2917 -0.2256
18502TIP3    H176921   3.797   2.165  17.224 -0.2239 -1.3710  3.1180
18502TIP3    H276922   3.789   2.309  17.272 -0.3871 -0.6111  0.9097
18503TIP3   OH276923   4.493   3.430   2.101  0.8978  0.4683 -0.5064
18503TIP3    H176924   4.523   3.502   2.157  1.2635 -0.1182  0.0676
18503TIP3    H276925   4.564   3.366   2.105 -0.0750 -0.5806  0.1990
18504TIP3   OH276926   0.678   6.630  12.075 -0.2386  0.2451  0.7602
18504TIP3    H176927   0.709   6.674  11.996 -2.0979 -0.8309 -0.6327
18504TIP3    H276928   0.755   6.584  12.109  0.5467  0.5792 -0.5144
18505TIP3   OH276929   4.772   0.303   2.395  0.2456 -0.7675 -0.0203
18505TIP3    H176930   4.755   0.259   2.478 -1.5537 -0.1516 -0.0064
18505TIP3    H276931   4.685   0.330   2.364  1.1496  2.0972 -0.3732
18506TIP3   OH276932   0.364   2.767  14.280 -0.2490 -0.3907 -0.3924
18506TIP3    H176933   0.281   2.811  14.300 -0.0390 -0.6351  1.1340
18506TIP3    H276934   0.404   2.751  14.365  1.3450 -0.3611 -1.0990
18507TIP3   OH276935   5.212   5.558   2.760  0.1006 -0.1507  0.3502
18507TIP3    H176936   5.283   5.519   2.709  0.4090  1.1208 -0.2275
18507TIP3    H276937   5.132   5.515   2.728  0.4507 -0.4744 -0.0962
18508TIP3   OH276938   2.217   0.195  11.299  0.1963 -0.4658 -0.2868
18508TIP3    H176939   2.158   0.254  11.347  0.0119 -0.4840 -0.4867
18508TIP3    H276940   2.222   0.233  11.212  2.0534  0.6480  0.2526
18509TIP3   OH276941   4.471   5.770   2.960 -0.9565  0.0407  0.7226
18509TIP3    H176942   4.560   5.805   2.969 -0.6347 -0.2823 -0.8580
18509TIP3    H276943   4.483   5.675   2.954 -1.1160  0.1014 -1.8331
18510TIP3   OH276944   4.254   3.699   0.176  0.4297  0.2913  0.5566
18510TIP3    H176945   4.257   3.616   0.127 -0.5250 -0.4848  1.7622
18510TIP3    H276946   4.339   3.740   0.158  0.0031  0.2331 -2.0182
18511TIP3   OH276947   6.352   4.268  11.500  0.2537  0.2777 -0.0991
18511TIP3    H176948   6.293   4.197  11.472  0.6980 -1.3111  2.6224
18511TIP3    H276949   6.294   4.337  11.531 -0.2221 -0.6070  1.0428
18512TIP3   OH276950   5.557   0.073   1.418 -0.6231  0.4879  0.0464
18512TIP3    H176951   5.523  -0.003   1.466 -2.7575 -0.1741 -2.2770
18512TIP3    H276952   5.631   0.038   1.369  0.5686  0.8003  1.5359
18513TIP3   OH276953   2.648   3.359  15.463 -0.1774  0.3536  0.2136
18513TIP3    H176954   2.595   3.405  15.529 -2.0093 -1.0226 -0.1915
18513TIP3    H276955   2.583   3.325  15.401  1.3518 -0.0748 -1.2075
18514TIP3   OH276956   3.110   6.124  11.001  0.0737 -0.4934 -0.1146
18514TIP3    H176957   3.123   6.197  10.940  2.2172 -0.4010  0.3794
18514TIP3    H276958   3.106   6.166  11.087  2.0778 -0.9804  0.2435
18515TIP3   OH276959   4.666   1.764  17.019  0.1856  0.2637  0.1946
18515TIP3    H176960   4.625   1.813  16.947 -1.9441  0.6478  1.5697
18515TIP3    H276961   4.642   1.673  17.003 -0.3255  0.3543  0.4358
18516TIP3   OH276962   1.313   2.435   1.082 -0.7268 -0.0910  0.1968
18516TIP3    H176963   1.337   2.409   1.171  3.5901  0.6041 -0.5530
18516TIP3    H276964   1.330   2.358   1.029 -0.4905  0.3384 -0.3619
18517TIP3   OH276965   1.304   2.937   2.033 -0.7761 -0.2543 -0.3120
18517TIP3    H176966   1.353   2.907   1.956  0.5344  0.9054  0.0163
18517TIP3    H276967   1.348   2.894   2.107 -0.0726  0.9571  0.0034
18518TIP3   OH276968   2.948   6.052  15.463  0.0301  0.0728  0.0359
18518TIP3    H176969   2.904   6.131  15.434 -1.2314 -0.9644 -0.9876
18518TIP3    H276970   2.917   6.038  15.552 -2.1290 -0.8620 -0.7978
18519TIP3   OH276971   5.632   4.038  16.707  0.0895  0.6926 -0.1622
18519TIP3    H176972   5.722   4.021  16.734  0.4719  3.0139  0.2090
18519TIP3    H276973   5.579   4.009  16.781  0.6279  0.6011  0.1938
18520TIP3   OH276974   5.810   5.947  13.751 -0.1810  0.2634  0.1186
18520TIP3    H176975   5.795   5.869  13.805  0.2880  0.2132  0.1794
18520TIP3    H276976   5.894   5.982  13.782 -0.4514  0.8632  0.1719
18521TIP3   OH276977   4.342   6.696  15.070 -0.8658  0.2928  0.3825
18521TIP3    H176978   4.363   6.751  15.146  2.7832 -0.5567  0.2230
18521TIP3    H276979   4.417   6.708  15.011 -2.4572 -0.8955 -2.0151
18522TIP3   OH276980   0.684   3.847   0.320  0.3536  0.1314 -0.3300
18522TIP3    H176981   0.736   3.789   0.376  0.1263  1.6107  1.5149
18522TIP3    H276982   0.664   3.923   0.375 -0.7441  1.2377 -2.1264
18523TIP3   OH276983   0.633   6.437   2.344 -0.0829 -0.2299  0.2562
18523TIP3    H176984   0.686   6.436   2.264 -1.7725 -1.8903 -0.9112
18523TIP3    H276985   0.672   6.370   2.399 -1.8669 -2.7313 -1.3256
18524TIP3   OH276986   5.387   1.945   3.207 -0.4790  0.2603  0.3892
18524TIP3    H176987   5.399   1.937   3.112 -1.1511  0.0091  0.3163
18524TIP3    H276988   5.407   1.857   3.240 -1.0570  0.1251  0.3839
18525TIP3   OH276989   6.421   4.147   0.283 -0.0589 -0.0518  0.5554
18525TIP3    H176990   6.358   4.214   0.256  1.0426  1.3525  1.2913
18525TIP3    H276991   6.472   4.129   0.204  0.0989  0.5276  0.5205
18526TIP3   OH276992   5.255   4.394  15.148  0.2801 -0.1713  0.4514
18526TIP3    H176993   5.278   4.482  15.178  2.0794 -0.2196 -0.6191
18526TIP3    H276994   5.275   4.395  15.054 -3.2025 -0.6347 -0.4410
18527TIP3   OH276995   5.806   0.865   3.880 -0.0961  0.5353 -0.0398
18527TIP3    H176996   5.838   0.832   3.796 -1.4299 -0.6664 -0.1029
18527TIP3    H276997   5.732   0.921   3.857  0.4237  1.3670  0.2625
18528TIP3   OH276998   1.589   3.495   2.059  0.3059  0.1653  0.5664
18528TIP3    H176999   1.576   3.404   2.086  0.0105  0.8367  2.9527
18528TIP3    H277000   1.556   3.498   1.970 -1.4670 -1.6640  1.0681
18529TIP3   OH277001   6.455   3.702   3.789  0.6431 -0.2405  0.5395
18529TIP3    H177002   6.518   3.770   3.812  1.5631 -0.7213 -0.4485
18529TIP3    H277003   6.421   3.670   3.873  0.8939  0.7867  1.0390
18530TIP3   OH277004   6.713   2.907   1.271 -0.2435  0.6206  0.1480
18530TIP3    H177005   6.778   2.977   1.280 -0.1527  0.8032 -1.6294
18530TIP3    H277006   6.702   2.896   1.177  0.1641 -2.1498  0.3227
18531TIP3   OH277007   1.984   5.645  12.873  0.5786 -0.3571 -0.0022
18531TIP3    H177008   2.011   5.694  12.795 -0.8026  1.3709  0.5431
18531TIP3    H277009   1.963   5.558  12.840  2.8377 -0.5986 -1.0589
18532TIP3   OH277010   4.861   5.230  10.841 -0.0120  0.7654 -0.5535
18532TIP3    H177011   4.804   5.159  10.810  0.6864 -0.3254  0.5591
18532TIP3    H277012   4.803   5.289  10.888 -0.3634  0.1197 -0.1672
18533TIP3   OH277013   5.754   5.405  11.440  0.5385 -0.3862 -0.1537
18533TIP3    H177014   5.665   5.436  11.427  0.7975  0.1589 -0.6925
18533TIP3    H277015   5.746   5.309  11.447 -0.3109 -0.2119  1.9257
18534TIP3   OH277016   0.602   0.160  13.307  0.2009 -0.1875 -0.0765
18534TIP3    H177017   0.620   0.115  13.225  1.1167  0.0633 -0.0209
18534TIP3    H277018   0.573   0.247  13.281  1.0320  0.0775 -0.1240
18535TIP3   OH277019   0.586   2.576  15.808  0.0574 -0.7053 -0.1588
18535TIP3    H177020   0.597   2.668  15.833 -2.0612 -0.5664  0.4845
18535TIP3    H277021   0.556   2.533  15.888  1.5906 -2.1164 -0.2985
18536TIP3   OH277022   6.068   0.531  15.423 -0.3483 -0.2824  0.2722
18536TIP3    H177023   6.148   0.486  15.394 -0.2474 -0.7758  1.2530
18536TIP3    H277024   6.100   0.607  15.471 -0.5126  0.5142 -0.8341
18537TIP3   OH277025   1.953   0.459  13.890 -0.0152  0.2683  0.1750
18537TIP3    H177026   1.918   0.485  13.975 -0.3432  1.5886 -0.3285
18537TIP3    H277027   1.911   0.519  13.828  1.5133  0.4783 -0.7029
18538TIP3   OH277028   6.128   5.470   0.186  0.3052 -0.0707  0.3117
18538TIP3    H177029   6.151   5.378   0.177  1.9361  0.4237 -1.0018
18538TIP3    H277030   6.105   5.480   0.279  0.5663 -1.6901  0.5745
18539TIP3   OH277031   3.189   2.778  13.503 -0.3560 -0.1795 -0.0885
18539TIP3    H177032   3.270   2.827  13.516  0.8578 -2.0205 -0.3502
18539TIP3    H277033   3.121   2.845  13.496  1.5613  1.6787 -3.4816
18540TIP3   OH277034   4.342   6.106   2.770 -0.3400  0.1909  0.2079
18540TIP3    H177035   4.376   6.092   2.681 -1.1589  1.5156 -0.3497
18540TIP3    H277036   4.350   6.021   2.812  0.8976 -0.2567 -0.8392
18541TIP3   OH277037   6.033   2.954   5.964  0.1035  0.1686  0.3660
18541TIP3    H177038   6.030   3.044   5.997  0.6681  0.3042  0.0474
18541TIP3    H277039   6.015   2.900   6.040  2.2144  0.4342  1.1145
18542TIP3   OH277040   0.737   6.447   2.091  0.1059 -0.2469  0.0180
18542TIP3    H177041   0.650   6.420   2.061  0.7369 -1.0648 -1.1263
18542TIP3    H277042   0.790   6.368   2.086  0.9183  0.2385  0.7325
18543TIP3   OH277043   6.313   0.815   4.279  0.0444  0.0759 -0.2702
18543TIP3    H177044   6.221   0.817   4.250 -0.2815 -1.0756  0.6314
18543TIP3    H277045   6.329   0.904   4.311 -0.2203  0.7844 -1.9796
18544TIP3   OH277046   3.927   3.944  16.968  0.1461  0.2439  0.3031
18544TIP3    H177047   3.990   4.005  17.006 -0.8359  1.8838 -0.5653
18544TIP3    H277048   3.842   3.988  16.980 -0.3971 -0.1210 -1.8983
18545TIP3   OH277049   3.089   6.050   0.086  0.0626 -0.4859  0.4280
18545TIP3    H177050   3.014   6.110   0.086  1.6887  1.6837  0.5319
18545TIP3    H277051   3.122   6.053  -0.004 -0.6677 -2.4123  0.0587
18546TIP3   OH277052   1.073   5.212   4.112 -0.2220  0.2798 -0.7073
18546TIP3    H177053   1.109   5.135   4.155 -1.5811 -0.8749 -1.5661
18546TIP3    H277054   1.094   5.284   4.172 -1.6125 -1.1730  1.7302
18547TIP3   OH277055   4.291   5.855  11.103 -0.4626  0.0821  0.9966
18547TIP3    H177056   4.281   5.841  11.009  0.5813 -0.2818  0.9249
18547TIP3    H277057   4.204   5.882  11.132 -0.0797  3.4758 -0.5977
18548TIP3   OH277058   3.646   2.549   2.676  0.1690 -0.6252  0.5241
18548TIP3    H177059   3.607   2.628   2.639  1.5277 -0.3335 -0.3528
18548TIP3    H277060   3.686   2.505   2.601  1.4553 -0.9265  1.3576
18549TIP3   OH277061   5.328   5.073   2.041 -0.3579 -0.1355  0.3374
18549TIP3    H177062   5.318   4.983   2.073  0.9045 -0.2683  0.4032
18549TIP3    H277063   5.243   5.114   2.059 -1.5389 -1.7411 -1.1387
18550TIP3   OH277064   0.524   4.020   0.471 -0.3574  0.0961 -0.3495
18550TIP3    H177065   0.472   4.032   0.392 -0.3229  0.2472 -0.3499
18550TIP3    H277066   0.463   4.038   0.543 -0.8468 -1.6961 -0.2831
18551TIP3   OH277067   2.340   1.577   0.439  0.7463 -0.0383 -0.3886
18551TIP3    H177068   2.363   1.626   0.360  1.7431 -1.5038 -1.0330
18551TIP3    H277069   2.282   1.508   0.408  0.8330 -0.3904  0.2305
18552TIP3   OH277070   6.068   2.018   0.060 -0.3934 -0.2844 -0.0550
18552TIP3    H177071   6.034   1.929   0.062  0.3314 -0.5569  1.3596
18552TIP3    H277072   6.155   2.010   0.020 -0.2992 -0.2264  0.1371
18553TIP3   OH277073   0.029   2.379  13.909 -0.1279 -1.1218 -0.3259
18553TIP3    H177074   0.070   2.462  13.936 -2.5285  0.0470 -0.0171
18553TIP3    H277075   0.045   2.374  13.815 -0.6318  0.1194 -0.4944
18554TIP3   OH277076   5.955   2.552  12.380 -0.5238 -0.3674 -0.4506
18554TIP3    H177077   5.915   2.589  12.302  1.4743  0.7770 -0.9805
18554TIP3    H277078   5.913   2.598  12.453 -0.9619  0.0045 -0.9376
18555TIP3   OH277079   4.523   2.326   4.657 -0.2878  0.0401 -0.1114
18555TIP3    H177080   4.580   2.398   4.633  1.1880 -1.0770 -0.1144
18555TIP3    H277081   4.517   2.331   4.753  2.3361 -1.5465  0.2444
18556TIP3   OH277082   5.636   5.867  15.399  0.0285  0.2602  0.1222
18556TIP3    H177083   5.562   5.807  15.389  0.9762 -1.4175  2.3574
18556TIP3    H277084   5.709   5.823  15.356  0.4950  0.2831  0.8731
18557TIP3   OH277085   1.569   2.138   5.057 -0.8668  0.4806  0.2782
18557TIP3    H177086   1.483   2.152   5.016 -0.0906  2.3624 -0.7999
18557TIP3    H277087   1.565   2.189   5.138 -1.4159 -1.0219  1.2440
18558TIP3   OH277088   6.120   6.694   2.698 -0.6909 -0.0682 -0.0445
18558TIP3    H177089   6.202   6.676   2.652  0.7755  1.2306  1.9000
18558TIP3    H277090   6.056   6.704   2.628  0.7271 -1.3556 -1.6251
18559TIP3   OH277091   2.498   5.482  14.504  0.5186 -0.8183 -0.1065
18559TIP3    H177092   2.416   5.506  14.462  0.7427  2.4653  1.0406
18559TIP3    H277093   2.478   5.480  14.598  1.9882  1.9428  0.3846
18560TIP3   OH277094   0.688   0.474   4.506 -0.3270 -0.5813 -1.1525
18560TIP3    H177095   0.662   0.480   4.598  1.3878  0.5548 -0.6804
18560TIP3    H277096   0.606   0.468   4.458 -1.4308  1.4861  0.2929
18561TIP3   OH277097   1.302   0.373  10.459 -0.1554  0.1188  0.2285
18561TIP3    H177098   1.307   0.443  10.394 -0.1931  0.4488  0.5776
18561TIP3    H277099   1.385   0.379  10.506  0.1142 -0.4885 -0.1606
18562TIP3   OH277100   0.075   1.684   1.140 -0.1321  0.4153  0.0509
18562TIP3    H177101   0.065   1.594   1.170  1.9788 -0.3780 -1.4103
18562TIP3    H277102   0.037   1.684   1.052 -0.7919  1.1700  0.3186
18563TIP3   OH277103   4.531   1.719   0.734 -0.2537  0.0355 -0.1092
18563TIP3    H177104   4.624   1.718   0.760 -0.5787 -2.0587  1.2581
18563TIP3    H277105   4.525   1.654   0.665 -0.9282 -0.9198  0.8261
18564TIP3   OH277106   5.361   0.526  12.373 -0.0368  0.8725  0.6834
18564TIP3    H177107   5.276   0.536  12.415 -1.3971  1.3013 -1.9319
18564TIP3    H277108   5.402   0.453  12.420 -1.3157  1.3952  2.7719
18565TIP3   OH277109   6.551   2.936  14.934 -0.3074 -0.3658  0.1033
18565TIP3    H177110   6.469   2.985  14.924  0.2115  0.3719 -0.6983
18565TIP3    H277111   6.559   2.923  15.029 -0.8185  0.4858  0.2810
18566TIP3   OH277112   5.154   6.501   5.878  0.1510 -0.1231 -0.0778
18566TIP3    H177113   5.093   6.455   5.935 -1.4174  1.8853  0.0169
18566TIP3    H277114   5.241   6.474   5.907 -0.4472  1.6933  4.2177
18567TIP3   OH277115   1.271   0.615   5.991 -0.5255  0.0402 -0.6622
18567TIP3    H177116   1.185   0.633   6.030 -1.1420 -2.3044 -0.7473
18567TIP3    H277117   1.316   0.562   6.056  0.4341  0.3396 -1.0688
18568TIP3   OH277118   4.038   4.128  12.344  0.1157  0.1561  0.7326
18568TIP3    H177119   4.089   4.048  12.330  0.3494  0.1478  1.5553
18568TIP3    H277120   4.076   4.166  12.423  1.8822  2.5601 -1.1132
18569TIP3   OH277121   3.874   2.794   5.156  0.0379  0.2745  0.0503
18569TIP3    H177122   3.797   2.838   5.120  0.0966 -0.4466 -0.9912
18569TIP3    H277123   3.847   2.703   5.167  0.4157  0.2352  0.6748
18570TIP3   OH277124   2.069   2.647  10.687 -0.8134 -0.3420 -0.2790
18570TIP3    H177125   2.013   2.686  10.754 -0.8981 -0.3010 -0.3732
18570TIP3    H277126   2.014   2.645  10.608 -0.2939  0.8113 -0.6915
18571TIP3   OH277127   1.298   0.083  13.735 -0.0285 -0.2305 -0.5651
18571TIP3    H177128   1.216   0.125  13.711  0.7476  0.2558 -2.6614
18571TIP3    H277129   1.361   0.116  13.670  1.8436 -0.5153  1.0082
18572TIP3   OH277130   6.556   0.891   4.571 -0.5617 -0.6093  0.4615
18572TIP3    H177131   6.641   0.920   4.538 -0.5478  1.1245  1.8166
18572TIP3    H277132   6.548   0.800   4.543  2.5945 -1.4490  1.8584
18573TIP3   OH277133   5.744   1.289  11.708  0.6395 -0.1255  0.4521
18573TIP3    H177134   5.650   1.283  11.722  0.5398  0.5237  0.0860
18573TIP3    H277135   5.776   1.341  11.782  1.0504 -2.1967  1.8378
18574TIP3   OH277136   1.060   5.230   1.497 -0.5226 -0.0899 -0.1340
18574TIP3    H177137   1.088   5.267   1.413  1.4219  2.7424  1.5549
18574TIP3    H277138   0.971   5.263   1.509 -1.4052 -1.7453 -1.6358
18575TIP3   OH277139   0.524   3.502   5.302 -0.2745  0.1696 -0.1961
18575TIP3    H177140   0.518   3.430   5.239 -2.5961  1.1164 -1.1999
18575TIP3    H277141   0.609   3.542   5.285  0.6748 -1.7306 -0.2250
18576TIP3   OH277142   0.663   6.431   2.666  0.3451  0.0986  0.3235
18576TIP3    H177143   0.675   6.525   2.675 -1.0564  0.2737  0.6283
18576TIP3    H277144   0.624   6.404   2.749  1.4539 -0.9004  0.5547
18577TIP3   OH277145   1.675   5.644  15.478  0.5677 -0.0313 -0.5027
18577TIP3    H177146   1.689   5.624  15.570  3.3273  0.0738 -0.8200
18577TIP3    H277147   1.763   5.658  15.442 -0.3078 -1.0420 -3.3771
18578TIP3   OH277148   6.617   2.231   2.642 -0.4684 -0.4847 -0.5664
18578TIP3    H177149   6.662   2.262   2.563  0.3954 -1.0170 -0.3076
18578TIP3    H277150   6.679   2.169   2.681 -0.3575  0.6400  1.1621
18579TIP3   OH277151   5.795   1.536   6.092 -0.5618  0.0528 -0.4380
18579TIP3    H177152   5.845   1.607   6.051 -0.2343 -0.0243 -0.1775
18579TIP3    H277153   5.808   1.548   6.186  0.9460 -1.3526 -0.4224
18580TIP3   OH277154   0.009   2.238  17.097 -0.3141 -0.0986  0.2166
18580TIP3    H177155  -0.015   2.268  17.009 -2.0076  0.2196  0.7599
18580TIP3    H277156   0.073   2.302  17.127 -0.8741  0.6791 -0.2021
18581TIP3   OH277157   4.370   3.648  16.732 -0.5362 -0.1713  0.5106
18581TIP3    H177158   4.277   3.646  16.710 -0.2129  0.4340 -1.0942
18581TIP3    H277159   4.392   3.741  16.734  0.3989 -0.3029 -1.0406
18582TIP3   OH277160   0.689   0.465  12.362 -0.1542  0.5860 -0.5001
18582TIP3    H177161   0.744   0.455  12.284  1.9183  0.5478  0.8758
18582TIP3    H277162   0.726   0.540  12.409 -1.3435  0.6126  0.4561
18583TIP3   OH277163   6.125   2.756   1.283 -0.1859 -0.5054  0.0383
18583TIP3    H177164   6.197   2.816   1.264 -0.1106 -1.0285 -1.3738
18583TIP3    H277165   6.157   2.670   1.258 -1.9763 -0.5012 -2.5988
18584TIP3   OH277166   1.128   1.251   3.327 -0.3824  0.1097  0.0120
18584TIP3    H177167   1.181   1.193   3.274 -0.4825 -0.2861  0.3427
18584TIP3    H277168   1.087   1.194   3.392  0.9462  0.7602  1.5129
18585TIP3   OH277169   6.025   0.197   4.008 -0.2659 -0.0434  0.8173
18585TIP3    H177170   6.057   0.189   3.918 -0.0838 -0.7411  0.9416
18585TIP3    H277171   5.982   0.113   4.026  2.2702 -1.1112  2.3764
18586TIP3   OH277172   5.325   3.383  13.249  1.0261 -0.0258 -0.5563
18586TIP3    H177173   5.335   3.466  13.296  2.3803  0.7276 -2.0852
18586TIP3    H277174   5.234   3.382  13.220  0.1343 -0.5265  2.0174
18587TIP3   OH277175   4.861   6.375  13.629  0.6139  0.5735 -0.0727
18587TIP3    H177176   4.832   6.296  13.584  1.5103 -0.2713  0.7957
18587TIP3    H277177   4.815   6.446  13.584 -1.0253 -0.5143 -0.2064
18588TIP3   OH277178   1.311   6.726   4.680 -0.8321  0.4224  0.2248
18588TIP3    H177179   1.299   6.821   4.685  0.1169  0.6115 -0.7373
18588TIP3    H277180   1.343   6.701   4.766 -1.0636  0.9747  0.4759
18589TIP3   OH277181   5.537   1.032  15.385 -0.1693  0.4104  0.3218
18589TIP3    H177182   5.511   1.107  15.332  2.1321  0.4380 -0.8846
18589TIP3    H277183   5.591   1.070  15.455  1.4751 -0.0982 -0.6146
18590TIP3   OH277184   4.127   5.865  15.225  0.5842  0.2294 -0.1197
18590TIP3    H177185   4.173   5.804  15.168 -0.7634 -0.1850 -0.7977
18590TIP3    H277186   4.059   5.812  15.267  1.5396  0.5054  1.9390
18591TIP3   OH277187   5.063   1.909   0.866  0.0226 -0.1947  0.0698
18591TIP3    H177188   5.062   1.937   0.774 -0.3157 -3.3425 -0.9945
18591TIP3    H277189   5.005   1.972   0.910  1.8722  2.7239 -1.3230
18592TIP3   OH277190   1.575   4.714  13.175  0.5479  0.6242  0.1407
18592TIP3    H177191   1.508   4.686  13.113 -0.5134  2.5906  0.2866
18592TIP3    H277192   1.575   4.647  13.244 -1.9258  0.9807  0.5693
18593TIP3   OH277193   5.355   2.073   4.698  0.3452 -0.0154 -0.0344
18593TIP3    H177194   5.386   2.008   4.761  0.1141  2.3158  2.6614
18593TIP3    H277195   5.278   2.112   4.739  0.7276  2.2711 -1.3178
18594TIP3   OH277196   5.727   2.312   4.342 -0.3870 -0.4478 -0.4380
18594TIP3    H177197   5.815   2.298   4.376  0.1728 -1.6792 -2.2747
18594TIP3    H277198   5.716   2.246   4.273 -2.7071 -0.2619 -0.3411
18595TIP3   OH277199   5.231   4.967   5.115 -0.0782 -0.0750 -0.2147
18595TIP3    H177200   5.294   4.895   5.119  2.0008  1.6791  0.6728
18595TIP3    H277201   5.160   4.939   5.172  1.4239 -0.8080  1.4224
18596TIP3   OH277202   1.912   0.578  11.614  0.2121 -0.3957  0.0997
18596TIP3    H177203   1.880   0.513  11.677 -0.3710  1.9005  2.3870
18596TIP3    H277204   1.999   0.600  11.646  0.0397  0.5595 -0.0541
18597TIP3   OH277205   2.227   0.740  16.405 -0.1690 -0.8310  0.0936
18597TIP3    H177206   2.137   0.709  16.401 -0.7210  0.5309  1.0019
18597TIP3    H277207   2.251   0.733  16.497  1.1396 -2.3785 -0.3182
18598TIP3   OH277208   4.898   0.476   6.514  0.1716  0.3578 -0.0222
18598TIP3    H177209   4.868   0.423   6.439 -0.4789  0.5526  0.0897
18598TIP3    H277210   4.838   0.454   6.584  1.6744 -0.9321  0.9062
18599TIP3   OH277211   4.431   3.052   3.522 -0.1726  0.0393 -0.2424
18599TIP3    H177212   4.395   2.975   3.479  1.3712 -1.7020  1.3450
18599TIP3    H277213   4.374   3.066   3.598  0.4413 -0.5744  0.3511
18600TIP3   OH277214   0.305   0.253   6.229  0.4372 -1.0753 -0.2478
18600TIP3    H177215   0.299   0.169   6.274 -0.9652 -2.0534 -2.1066
18600TIP3    H277216   0.336   0.231   6.141 -0.5335  0.2815 -0.9666
18601TIP3   OH277217   0.595   4.370  13.071  0.1004  0.3211  0.6192
18601TIP3    H177218   0.677   4.328  13.099 -0.4228 -1.4253 -0.3401
18601TIP3    H277219   0.531   4.300  13.070 -0.9171  1.2262 -0.6845
18602TIP3   OH277220   6.688   2.110   0.057 -0.3173  0.1027 -0.0602
18602TIP3    H177221   6.664   2.084  -0.032 -3.0303 -0.8023  0.8490
18602TIP3    H277222   6.773   2.069   0.072  0.0959  0.0959 -2.1183
18603TIP3   OH277223   2.468   3.231   5.678  0.0097 -0.1067 -0.2028
18603TIP3    H177224   2.544   3.209   5.732 -1.2756 -0.5974  1.4903
18603TIP3    H277225   2.418   3.150   5.674 -1.4955  0.7455  0.5717
18604TIP3   OH277226   6.100   0.959   3.305 -0.1284  0.0615  0.2855
18604TIP3    H177227   6.018   0.968   3.353 -0.6506 -2.0106 -0.0998
18604TIP3    H277228   6.153   1.034   3.333 -1.9798  1.2279  0.8420
18605TIP3   OH277229   4.961   2.183  12.840  0.1876 -0.3650  0.6034
18605TIP3    H177230   5.037   2.242  12.841 -1.1963  1.5253  0.2371
18605TIP3    H277231   4.889   2.236  12.874 -1.3531 -1.5248 -0.6859
18606TIP3   OH277232   4.406   0.228  14.900 -0.7811  1.2584  0.2151
18606TIP3    H177233   4.446   0.249  14.985  0.2848  0.6065 -0.1038
18606TIP3    H277234   4.412   0.309  14.850  1.9140  0.7132 -0.4807
18607TIP3   OH277235   1.829   5.359  15.640  0.2770  0.2457 -0.6974
18607TIP3    H177236   1.901   5.406  15.598 -0.7552  1.1339 -1.5117
18607TIP3    H277237   1.787   5.423  15.697  0.2719 -0.3475 -0.0004
18608TIP3   OH277238   1.059   6.210  16.894  0.4007  0.0507 -0.1240
18608TIP3    H177239   1.141   6.174  16.928  0.2012  0.1527  0.4816
18608TIP3    H277240   1.011   6.134  16.862 -0.0149 -0.2343  1.1412
18609TIP3   OH277241   6.704   2.828   0.999 -0.1798  0.3227  0.2653
18609TIP3    H177242   6.797   2.803   0.992  0.2306  1.7941  0.0224
18609TIP3    H277243   6.685   2.869   0.914 -0.9244  0.4268  0.4812
18610TIP3   OH277244   0.885   0.195   1.597  0.4608 -0.7341 -0.4180
18610TIP3    H177245   0.854   0.114   1.558 -1.2477 -0.5694  0.5274
18610TIP3    H277246   0.900   0.174   1.689 -3.7165  0.7970  0.8339
18611TIP3   OH277247   1.411   5.748  16.485 -0.0410 -0.5905 -0.0627
18611TIP3    H177248   1.387   5.839  16.504 -2.1228 -0.9684 -0.5849
18611TIP3    H277249   1.378   5.699  16.561 -0.6906 -1.1089 -0.6665
18612TIP3   OH277250   3.115   0.744   5.006 -0.1312 -0.2528 -0.0167
18612TIP3    H177251   3.120   0.825   5.058 -0.7051 -1.0371  1.3184
18612TIP3    H277252   3.156   0.678   5.062 -1.9702 -1.4057  0.0554
18613TIP3   OH277253   4.090   2.145   0.701 -0.2305  0.3519 -0.3773
18613TIP3    H177254   4.044   2.174   0.780 -1.4908 -1.2255 -0.4864
18613TIP3    H277255   4.046   2.064   0.675  0.0241  0.8920 -2.8015
18614TIP3   OH277256   0.710   2.965   6.106  0.4391 -0.6785 -0.2836
18614TIP3    H177257   0.679   2.944   6.018  1.5611 -1.3503 -0.5280
18614TIP3    H277258   0.785   3.022   6.092 -0.9628  1.4324  0.3230
18615TIP3   OH277259   0.758   0.350   0.635 -0.1786  0.0679  0.1470
18615TIP3    H177260   0.807   0.296   0.572  0.1441 -0.6441  0.9847
18615TIP3    H277261   0.775   0.440   0.609 -0.3183 -0.2199 -0.9803
18616TIP3   OH277262   2.919   3.378   0.834  0.6586 -0.0291  0.4412
18616TIP3    H177263   2.941   3.392   0.742  0.4585 -0.8173  0.2696
18616TIP3    H277264   2.993   3.416   0.882  0.3782  1.1441 -0.0039
18617TIP3   OH277265   5.420   6.461  14.328  0.2600 -0.0885  0.1905
18617TIP3    H177266   5.402   6.530  14.392 -2.4622  0.7891 -1.3356
18617TIP3    H277267   5.426   6.507  14.244 -1.2967 -1.5829 -0.8256
18618TIP3   OH277268   2.960   4.971  10.778 -0.8794 -0.0303 -0.3622
18618TIP3    H177269   2.949   5.048  10.721  0.6548  0.4307 -0.0932
18618TIP3    H277270   2.908   4.903  10.736 -0.4980  0.5425 -1.8458
18619TIP3   OH277271   0.135   3.240   2.219  0.1822 -0.0593 -0.5755
18619TIP3    H177272   0.228   3.263   2.215  0.3380 -0.9207 -2.8647
18619TIP3    H277273   0.101   3.260   2.133 -1.8926  0.5886  0.3353
18620TIP3   OH277274   1.221   3.496  13.082  0.0238  0.1455 -0.4308
18620TIP3    H177275   1.235   3.496  13.177  0.1500  0.6388 -0.4456
18620TIP3    H277276   1.236   3.406  13.056  1.0463  0.2115 -0.1261
18621TIP3   OH277277   2.666   5.928   5.123  0.4587  0.2128  0.3271
18621TIP3    H177278   2.611   5.893   5.193  0.6152  0.7908  0.7399
18621TIP3    H277279   2.711   5.851   5.088 -0.8116 -0.3125 -0.2041
18622TIP3   OH277280   3.875   4.735  11.698 -0.1671  0.4248  0.2805
18622TIP3    H177281   3.931   4.749  11.774  1.7014 -1.0544 -0.7502
18622TIP3    H277282   3.821   4.659  11.721  1.6668 -1.1834 -0.4648
18623TIP3   OH277283   1.155   1.621   0.951  0.6400 -0.3724  0.0688
18623TIP3    H177284   1.195   1.618   1.038  0.8979 -0.7711 -0.0618
18623TIP3    H277285   1.105   1.703   0.951 -0.4176 -0.9827  1.0596
18624TIP3   OH277286   4.441   2.132  12.992 -0.1612  0.4374 -0.1715
18624TIP3    H177287   4.520   2.160  13.038 -0.3993 -0.1928  0.6488
18624TIP3    H277288   4.413   2.210  12.943  0.9159  0.6854 -0.4202
18625TIP3   OH277289   5.677   6.525  15.477  0.2087  0.1023 -0.3353
18625TIP3    H177290   5.603   6.582  15.499  0.1371 -0.4745  1.0065
18625TIP3    H277291   5.638   6.455  15.424 -0.1760 -0.0780  0.1776
18626TIP3   OH277292   3.190   5.336  12.174 -0.0863  0.1154  0.2582
18626TIP3    H177293   3.120   5.400  12.184 -1.3619 -1.1490 -0.2581
18626TIP3    H277294   3.228   5.354  12.088  0.6395  1.1717  0.7788
18627TIP3   OH277295   0.265   4.513   5.528 -0.1368 -0.3502 -0.0730
18627TIP3    H177296   0.170   4.499   5.520 -0.7637  2.3640  1.5401
18627TIP3    H277297   0.282   4.513   5.622  0.7490  2.7704 -0.1098
18628TIP3   OH277298   0.145   3.261   5.521  0.1199  0.2703  0.4281
18628TIP3    H177299   0.073   3.311   5.483 -0.5901  0.3804  1.8534
18628TIP3    H277300   0.105   3.208   5.589  1.3145 -0.0386  0.9288
18629TIP3   OH277301   6.357   3.023  16.965  0.2653  0.1650 -0.1224
18629TIP3    H177302   6.290   3.007  16.899  1.7172 -1.8614 -1.2162
18629TIP3    H277303   6.420   3.080  16.921  0.5552 -0.0716 -0.0127
18630TIP3   OH277304   0.021   4.590  16.058 -0.0540  0.0931  0.1257
18630TIP3    H177305   0.040   4.623  16.146  0.4127  2.2459 -0.7055
18630TIP3    H277306   0.057   4.502  16.057  2.0654  0.8569  1.4092
18631TIP3   OH277307   4.893   2.403   1.184  0.7052  0.0782  0.1275
18631TIP3    H177308   4.961   2.337   1.172 -0.5783 -1.2810 -0.0339
18631TIP3    H277309   4.876   2.437   1.096  0.9855  0.2424  0.1345
18632TIP3   OH277310   4.483   4.274  11.671  0.2129  0.1837 -0.0784
18632TIP3    H177311   4.525   4.191  11.695 -0.8749 -0.3410  0.1139
18632TIP3    H277312   4.482   4.273  11.575  0.4369  0.0921 -0.0796
18633TIP3   OH277313   6.647   5.790  11.203 -0.1754 -0.5610  0.7509
18633TIP3    H177314   6.661   5.747  11.119 -2.5403  0.6814 -0.3781
18633TIP3    H277315   6.697   5.872  11.197  0.2354 -0.8038  0.8499
18634TIP3   OH277316   1.598   3.654   0.505  0.0023 -0.9442 -0.3082
18634TIP3    H177317   1.543   3.620   0.434 -0.6086  1.8594 -1.3168
18634TIP3    H277318   1.586   3.592   0.576 -0.9221 -2.8197 -1.9989
18635TIP3   OH277319   3.619   6.686  15.531 -0.4193 -0.6160 -0.8609
18635TIP3    H177320   3.546   6.692  15.592  0.2078  0.4243 -0.1711
18635TIP3    H277321   3.637   6.592  15.523 -0.4148 -0.7687  0.6875
18636TIP3   OH277322   4.607   6.292  14.772 -0.0497  0.4176  0.3502
18636TIP3    H177323   4.524   6.269  14.730 -0.4199  1.8000  0.2755
18636TIP3    H277324   4.672   6.237  14.729 -0.9289 -0.7465  0.4696
18637TIP3   OH277325   0.085   5.600   0.024  0.3090  0.0201 -0.5363
18637TIP3    H177326   0.111   5.565   0.110  1.0139 -1.7209 -1.4040
18637TIP3    H277327   0.132   5.683   0.017  2.0996 -0.9102 -0.1716
18638TIP3   OH277328   3.042   6.240  15.044 -0.1551 -0.1985 -0.0925
18638TIP3    H177329   2.958   6.286  15.035  0.0810  0.4393  0.8700
18638TIP3    H277330   3.078   6.272  15.126  1.5500  0.3536 -1.0287
18639TIP3   OH277331   1.256   2.092   5.019  0.1137  0.8595 -0.4654
18639TIP3    H177332   1.223   2.159   5.080  0.1370  0.2026  0.2920
18639TIP3    H277333   1.272   2.140   4.938  0.7657  1.9138  0.2511
18640TIP3   OH277334   2.061   2.864  13.264  0.1922  0.2833  0.0060
18640TIP3    H177335   2.095   2.942  13.220  1.6503 -0.2273  0.1737
18640TIP3    H277336   2.049   2.891  13.355 -0.1204  0.5414 -0.1093
18641TIP3   OH277337   3.456   3.715  17.351 -0.2676 -0.0912  0.7389
18641TIP3    H177338   3.417   3.682  17.270  0.2877 -0.7765  0.7397
18641TIP3    H277339   3.465   3.637  17.406 -0.5475  0.3566  1.4229
18642TIP3   OH277340   2.696   0.019   5.375  0.3250 -0.5003 -0.2296
18642TIP3    H177341   2.745   0.066   5.307 -1.1285 -0.1680 -1.0983
18642TIP3    H277342   2.723  -0.072   5.365  1.8156 -0.1425  0.2723
18643TIP3   OH277343   3.731   5.918   1.114 -0.0867  0.2388  0.2461
18643TIP3    H177344   3.807   5.931   1.057  0.1382  2.3798  0.9538
18643TIP3    H277345   3.672   5.990   1.092 -0.3464  0.6359  2.1194
18644TIP3   OH277346   3.741   4.616   3.921 -0.0382 -0.7056  0.1392
18644TIP3    H177347   3.758   4.694   3.974  1.9632 -1.3294  0.4613
18644TIP3    H277348   3.792   4.630   3.841  0.5872 -1.8199  0.3351
18645TIP3   OH277349   4.977   1.709   2.706  0.2053  0.5717  0.3214
18645TIP3    H177350   5.030   1.630   2.699 -1.8698 -0.7824 -1.0421
18645TIP3    H277351   4.970   1.742   2.617 -1.4984  0.5035  0.3940
18646TIP3   OH277352   6.379   5.127  14.344  0.2298 -0.4230 -0.4319
18646TIP3    H177353   6.349   5.120  14.253 -0.1119 -2.2319 -0.2067
18646TIP3    H277354   6.463   5.174  14.338  0.3069 -0.6900 -1.6968
18647TIP3   OH277355   2.675   3.677   0.763  0.2613  0.5442  0.2374
18647TIP3    H177356   2.700   3.599   0.713  0.5827  2.1814 -2.3704
18647TIP3    H277357   2.757   3.725   0.775  0.1082  0.4216  2.0290
18648TIP3   OH277358   2.850   6.173   1.698 -0.4680  0.5438  0.0216
18648TIP3    H177359   2.877   6.265   1.706 -1.0251  0.8248 -1.1224
18648TIP3    H277360   2.822   6.148   1.786  1.3496  0.9174  0.7527
18649TIP3   OH277361   5.103   4.684  11.729  0.1665  0.1599  0.6092
18649TIP3    H177362   5.091   4.600  11.684 -1.7380  1.9902 -2.6944
18649TIP3    H277363   5.174   4.727  11.682 -0.4782  1.3162  0.6497
18650TIP3   OH277364   2.318   3.724   5.578  0.6243 -0.6543  0.1648
18650TIP3    H177365   2.362   3.639   5.578  0.5721 -0.6862  0.7385
18650TIP3    H277366   2.227   3.704   5.556  0.7693 -0.6549 -0.4522
18651TIP3   OH277367   5.044   0.641  13.350  0.0927  0.0402  0.3641
18651TIP3    H177368   5.054   0.720  13.297 -1.1726  0.1219  0.2403
18651TIP3    H277369   5.134   0.617  13.373  0.5940  0.5904 -0.9440
18652TIP3   OH277370   5.619   2.998  15.172  0.2289  0.2763 -0.4008
18652TIP3    H177371   5.668   2.921  15.199 -1.7642 -0.6338  0.8575
18652TIP3    H277372   5.583   3.034  15.253 -2.2088  0.1170 -1.3003
18653TIP3   OH277373   4.955   1.580   1.831 -0.2468 -0.1285  0.4260
18653TIP3    H177374   4.900   1.555   1.906 -1.5679  0.5763 -0.2791
18653TIP3    H277375   4.977   1.672   1.848 -0.6743  0.0747 -0.1322
18654TIP3   OH277376   5.055   5.718  12.206  0.0205 -0.4506 -0.0907
18654TIP3    H177377   5.085   5.779  12.138  0.2550 -0.9761 -0.4644
18654TIP3    H277378   5.092   5.633  12.181  2.1307 -0.2523  1.9453
18655TIP3   OH277379   1.753   4.475  15.823  0.4150  0.2636 -0.2372
18655TIP3    H177380   1.816   4.447  15.890  0.9720  0.7680 -0.5477
18655TIP3    H277381   1.719   4.558  15.855 -1.0760 -0.6115  0.5722
18656TIP3   OH277382   3.226   0.856   5.260 -0.1544  0.1520  0.0100
18656TIP3    H177383   3.193   0.817   5.341  2.3752 -0.7685  0.7073
18656TIP3    H277384   3.267   0.783   5.214  1.2426  1.2255 -0.5301
18657TIP3   OH277385   4.679   4.964  17.028  0.5425  0.0232 -0.2215
18657TIP3    H177386   4.670   4.868  17.032 -0.1072  0.0650 -0.4834
18657TIP3    H277387   4.640   4.987  16.944  2.5148  0.3325 -1.1113
18658TIP3   OH277388   6.304   5.943   3.051  0.2191 -0.7780 -0.0444
18658TIP3    H177389   6.359   5.899   2.987 -1.0505 -2.9489  0.2626
18658TIP3    H277390   6.215   5.914   3.029 -0.5002  0.4166  1.1776
18659TIP3   OH277391   4.054   6.349   3.468 -0.6777  0.1167 -0.2772
18659TIP3    H177392   3.959   6.337   3.477 -0.7908  1.1466  0.0614
18659TIP3    H277393   4.063   6.419   3.404 -0.1628  0.5659  0.2838
18660TIP3   OH277394   0.039   4.502  13.325 -0.4784 -0.0086 -0.2674
18660TIP3    H177395   0.007   4.412  13.327 -1.9118  0.4611 -1.0205
18660TIP3    H277396  -0.007   4.546  13.396  0.4617  0.0805  0.3102
18661TIP3   OH277397   6.574   0.397  16.248 -1.2245  0.2161 -0.0549
18661TIP3    H177398   6.604   0.428  16.163 -0.0495 -0.7719 -0.0116
18661TIP3    H277399   6.653   0.368  16.293 -1.8579  0.4771  1.2878
18662TIP3   OH277400   1.298   6.050  11.765  0.2944  0.5935  0.0009
18662TIP3    H177401   1.322   5.967  11.724 -1.1172  1.3506 -2.5927
18662TIP3    H277402   1.247   6.025  11.842  0.7547 -0.9293 -0.1652
18663TIP3   OH277403   0.328   3.813  17.164 -0.5987 -0.2326  0.3140
18663TIP3    H177404   0.334   3.793  17.257 -0.7336  1.0140  0.5956
18663TIP3    H277405   0.237   3.839  17.150 -0.8265 -1.2830 -0.3672
18664TIP3   OH277406   5.400   2.131  15.884 -0.3131 -0.6773  0.7862
18664TIP3    H177407   5.345   2.179  15.821  0.3233 -0.3562  0.4645
18664TIP3    H277408   5.406   2.043  15.847  0.5091 -0.3451  0.0894
18665TIP3   OH277409   0.227   1.990   0.188 -0.6495  0.1010 -0.0519
18665TIP3    H177410   0.257   1.929   0.255  0.1150  1.4038  0.8520
18665TIP3    H277411   0.267   2.074   0.213 -0.7217  0.7237 -1.8837
18666TIP3   OH277412   5.148   0.759  12.522 -0.2333 -0.0740 -0.1861
18666TIP3    H177413   5.186   0.820  12.585 -0.2103  1.1856 -1.3547
18666TIP3    H277414   5.186   0.674  12.543 -0.1195  0.3419  1.3784
18667TIP3   OH277415   0.665   0.993  11.235  0.7258 -0.1344  0.0154
18667TIP3    H177416   0.704   1.071  11.195 -0.4293  0.0332 -0.8471
18667TIP3    H277417   0.684   0.923  11.172 -0.3680 -0.0392 -0.4420
18668TIP3   OH277418   5.034   5.269  11.054 -0.1932  0.2705  0.2238
18668TIP3    H177419   4.983   5.248  10.975 -0.3076  1.0185  0.0932
18668TIP3    H277420   5.026   5.191  11.109 -1.5262  0.3864  0.2279
18669TIP3   OH277421   1.866   1.283  15.570  0.8858  0.5855 -0.9435
18669TIP3    H177422   1.935   1.218  15.579 -0.3171 -0.5555  0.7094
18669TIP3    H277423   1.830   1.267  15.482  0.6493 -0.9876 -0.5928
18670TIP3   OH277424   0.678   2.183  16.686 -1.0662 -0.6240 -0.2217
18670TIP3    H177425   0.715   2.251  16.742 -3.5274 -1.1331  2.2577
18670TIP3    H277426   0.750   2.122  16.671  1.0543  2.0743 -2.0183
18671TIP3   OH277427   3.875   0.481   5.302  0.8633  0.0223 -0.2443
18671TIP3    H177428   3.924   0.521   5.230  1.1988  0.2264  0.0929
18671TIP3    H277429   3.826   0.553   5.341 -0.0025 -0.2464 -0.8076
18672TIP3   OH277430   4.286   2.808  10.741  0.2878 -0.4076  0.3263
18672TIP3    H177431   4.322   2.736  10.689 -1.3790 -1.3778  0.4678
18672TIP3    H277432   4.280   2.881  10.679 -0.1529 -1.0729 -0.4410
18673TIP3   OH277433   0.152   2.932   4.415 -0.0369  0.4700  0.0711
18673TIP3    H177434   0.121   2.862   4.358  0.0669  1.2361 -0.9530
18673TIP3    H277435   0.188   2.887   4.491 -0.6600 -0.5531 -0.2203
18674TIP3   OH277436   5.019   4.307   1.929 -0.1414  0.8869 -0.0832
18674TIP3    H177437   5.085   4.344   1.870 -0.7961 -0.0095 -1.4516
18674TIP3    H277438   4.953   4.269   1.870 -1.7167  1.4529  1.2318
18675TIP3   OH277439   3.963   1.535  16.873 -0.1400  0.1422 -0.1078
18675TIP3    H177440   3.975   1.443  16.898  0.1680  0.4416  0.8936
18675TIP3    H277441   4.052   1.569  16.863 -0.2553  0.2713 -0.7319
18676TIP3   OH277442   4.617   2.230  15.034 -0.3465 -0.3125 -0.7593
18676TIP3    H177443   4.678   2.296  15.000 -1.2197 -0.3321 -2.4491
18676TIP3    H277444   4.611   2.165  14.965  0.6592 -2.3604  0.9542
18677TIP3   OH277445   4.173   0.067   5.828 -0.2633  0.4931 -0.2890
18677TIP3    H177446   4.152   0.037   5.916 -0.7912  2.3107  0.2665
18677TIP3    H277447   4.234   0.139   5.841 -0.1917  0.6587 -1.4192
18678TIP3   OH277448   3.311   5.910   2.529  0.6371 -0.2857 -0.1244
18678TIP3    H177449   3.231   5.866   2.500  0.0392  0.0866  0.9040
18678TIP3    H277450   3.320   5.985   2.470 -0.6330  0.5389  0.6834
18679TIP3   OH277451   1.043   6.690  16.530  0.4801 -0.2412  0.2730
18679TIP3    H177452   1.131   6.656  16.549  0.7233  0.2143  0.0082
18679TIP3    H277453   0.994   6.615  16.499  0.4610 -0.7304  1.4315
18680TIP3   OH277454   2.274   0.158   4.510 -0.2216 -0.0122  0.6378
18680TIP3    H177455   2.299   0.211   4.434 -0.0235 -0.2013  0.5711
18680TIP3    H277456   2.253   0.072   4.474  0.1915 -0.1980  0.8333
18681TIP3   OH277457   2.996   6.317   4.368  0.1896  0.6513 -0.4308
18681TIP3    H177458   3.008   6.289   4.277 -1.5405 -0.7089 -0.3026
18681TIP3    H277459   2.988   6.412   4.363  0.7313  0.6588 -1.6170
18682TIP3   OH277460   3.379   1.965   1.412  0.0745  0.5452 -0.2251
18682TIP3    H177461   3.321   2.041   1.403 -1.9935 -0.9679 -0.4901
18682TIP3    H277462   3.394   1.935   1.323  0.6614  0.4719 -0.1065
18683TIP3   OH277463   5.937   3.962  15.919  0.0034  0.1597  0.2065
18683TIP3    H177464   5.900   3.965  15.831 -1.0923 -2.5747  0.4953
18683TIP3    H277465   6.025   3.997  15.909 -0.8257  2.0056 -1.4936
18684TIP3   OH277466   4.281   1.783   2.363 -0.1033  0.0015  0.3037
18684TIP3    H177467   4.371   1.800   2.390  0.3021  0.8555 -1.4091
18684TIP3    H277468   4.240   1.742   2.439  2.2749 -2.3218  0.4913
18685TIP3   OH277469   6.073   4.794  11.005 -0.2840 -0.2597 -0.4342
18685TIP3    H177470   6.146   4.793  10.945  0.9945  0.2384  1.0347
18685TIP3    H277471   6.068   4.885  11.035  0.8356 -0.9518  2.1411
18686TIP3   OH277472   6.343   3.301  15.093 -0.2272 -0.2048 -0.2399
18686TIP3    H177473   6.365   3.348  15.013  0.4088  0.4114  0.2931
18686TIP3    H277474   6.417   3.316  15.151 -0.3684 -1.2212  0.2215
18687TIP3   OH277475   6.250   1.655  13.080  0.1947  0.9178  0.1745
18687TIP3    H177476   6.273   1.728  13.022 -1.2283  0.5804 -0.8701
18687TIP3    H277477   6.314   1.659  13.151  0.4019  2.9293 -0.0784
18688TIP3   OH277478   4.603   1.253  10.573  0.3215 -0.1007  0.3717
18688TIP3    H177479   4.631   1.165  10.598  0.0903 -0.1441  0.4869
18688TIP3    H277480   4.554   1.240  10.491  1.0566  0.0379 -0.0986
18689TIP3   OH277481   1.830   6.487  12.802  0.2420 -0.5883  0.3863
18689TIP3    H177482   1.912   6.455  12.764  1.1114  1.5759  0.2959
18689TIP3    H277483   1.848   6.578  12.823 -1.7575 -0.4221  1.5949
18690TIP3   OH277484   1.049   3.552  15.828 -0.4792 -0.3642  0.0797
18690TIP3    H177485   1.058   3.471  15.878  0.7574 -0.1654  0.1878
18690TIP3    H277486   0.974   3.597  15.869 -0.9034 -1.2385  0.2891
18691TIP3   OH277487   2.359   0.692   2.460  0.3452 -0.0485 -0.1231
18691TIP3    H177488   2.437   0.651   2.423 -1.2575  0.1080 -4.2249
18691TIP3    H277489   2.298   0.620   2.475  0.7446 -0.0303  1.8177
18692TIP3   OH277490   4.731   4.643  10.987  0.2435  0.2328  0.0817
18692TIP3    H177491   4.792   4.698  10.939  0.5397 -0.1863 -0.0309
18692TIP3    H277492   4.693   4.586  10.920 -1.1154  1.2364 -0.0358
18693TIP3   OH277493   6.503   5.701  12.495  0.2848 -0.3545  0.0050
18693TIP3    H177494   6.508   5.612  12.460 -3.3700 -0.0997 -1.6213
18693TIP3    H277495   6.467   5.691  12.582 -0.6838 -0.4661 -0.4024
18694TIP3   OH277496   6.717   1.792  12.625 -0.5304 -0.0825 -0.2084
18694TIP3    H177497   6.637   1.768  12.671 -0.5943 -2.3984 -1.3620
18694TIP3    H277498   6.687   1.822  12.539 -0.1983 -1.6161 -0.8975
18695TIP3   OH277499   0.383   2.373  15.100 -0.0538  0.1495  0.6202
18695TIP3    H177500   0.386   2.375  15.196  0.1261 -1.7629  0.6945
18695TIP3    H277501   0.367   2.281  15.078 -3.6013  0.9832 -1.1109
18696TIP3   OH277502   2.677   6.620  16.065 -0.1341 -0.0180 -0.2837
18696TIP3    H177503   2.720   6.534  16.059 -0.0526  0.0904 -1.6355
18696TIP3    H277504   2.732   6.678  16.012  0.2986  1.1009  1.3193
18697TIP3   OH277505   2.863   1.643   0.622  0.5541  0.2021 -0.1631
18697TIP3    H177506   2.823   1.566   0.662  1.1261 -0.2715 -0.4873
18697TIP3    H277507   2.944   1.610   0.582 -0.1601  0.5841 -2.0262
18698TIP3   OH277508   4.897   4.700  12.558  0.2675 -0.1708  0.6711
18698TIP3    H177509   4.880   4.721  12.466  0.1157 -2.7023  0.0656
18698TIP3    H277510   4.991   4.682  12.561  0.6502  1.6562  1.4541
18699TIP3   OH277511   6.351   1.387  12.599  0.2634 -0.4551 -0.6904
18699TIP3    H177512   6.257   1.376  12.610  0.0841  0.3968 -1.2850
18699TIP3    H277513   6.376   1.318  12.537  0.2139 -1.2909  0.1901
18700TIP3   OH277514   0.545   3.697  13.399  0.2182  0.2585 -0.1337
18700TIP3    H177515   0.458   3.680  13.363 -0.3156  0.1218  1.1721
18700TIP3    H277516   0.605   3.680  13.326 -0.8485  0.4562 -1.0784
18701TIP3   OH277517   6.209   1.926  16.226 -0.0828 -0.1310  0.4443
18701TIP3    H177518   6.298   1.941  16.195  0.7065  0.1219  2.6278
18701TIP3    H277519   6.195   1.994  16.292 -1.7347 -0.4605  0.4803
18702TIP3   OH277520   1.037   4.713  14.687  0.6207  0.0884 -0.1232
18702TIP3    H177521   1.093   4.645  14.650 -3.2786 -3.9581  0.6107
18702TIP3    H277522   1.010   4.765  14.611 -1.1730 -3.2738 -2.0483
18703TIP3   OH277523   3.384   3.209  13.408 -0.2550 -0.0978  0.4473
18703TIP3    H177524   3.454   3.274  13.398  0.1813 -0.7537 -1.1087
18703TIP3    H277525   3.307   3.259  13.435 -0.4346  1.3969 -2.5180
18704TIP3   OH277526   5.062   0.449  12.318 -0.8368 -0.2725 -0.0572
18704TIP3    H177527   4.997   0.519  12.315 -1.3452 -0.7261  0.1002
18704TIP3    H277528   5.103   0.449  12.231  0.7858  1.7019  0.6329
18705TIP3   OH277529   4.848   4.083  13.246  0.0027 -0.2518  0.4504
18705TIP3    H177530   4.790   4.149  13.284 -0.5509 -0.1316 -0.5854
18705TIP3    H277531   4.934   4.124  13.246 -0.0788 -0.0632  1.0877
18706TIP3   OH277532   6.529   1.817  16.786  0.1355 -0.2339  0.2696
18706TIP3    H177533   6.461   1.768  16.833 -0.0177 -0.8826 -0.6023
18706TIP3    H277534   6.480   1.877  16.729  0.2878 -0.5573 -0.2082
18707TIP3   OH277535   6.099   0.318   3.358  0.3731 -0.3037  0.1828
18707TIP3    H177536   6.009   0.318   3.325  0.7240 -1.1923 -0.8219
18707TIP3    H277537   6.146   0.378   3.300 -0.0376  2.1074  2.1869
18708TIP3   OH277538   3.282   4.330   2.901 -0.2363  0.2188 -0.4581
18708TIP3    H177539   3.307   4.239   2.884 -0.3502 -0.0631  0.8444
18708TIP3    H277540   3.312   4.378   2.823  1.8146 -0.5591 -0.1947
18709TIP3   OH277541   2.305   4.271  17.086 -0.2737  0.2914 -0.3646
18709TIP3    H177542   2.217   4.279  17.122  0.3116  0.0773  1.1989
18709TIP3    H277543   2.299   4.201  17.022 -1.0831 -0.2267  0.2711
18710TIP3   OH277544   0.682   4.856  16.110 -0.3747  0.5533 -0.3303
18710TIP3    H177545   0.688   4.782  16.049  0.9879 -1.6117  2.1783
18710TIP3    H277546   0.772   4.872  16.137 -0.7115  2.8252 -0.3437
18711TIP3   OH277547   0.823   0.418  12.911  0.0366  0.0076 -0.4517
18711TIP3    H177548   0.798   0.343  12.858 -1.1195  1.0357 -1.4267
18711TIP3    H277549   0.919   0.414  12.915 -0.0467 -2.0877  0.4318
18712TIP3   OH277550   5.551   4.831  15.671  0.1015 -0.0437  0.1385
18712TIP3    H177551   5.515   4.745  15.694 -1.0226  0.5954  0.8546
18712TIP3    H277552   5.629   4.811  15.620 -1.0310 -1.4917 -1.1212
18713TIP3   OH277553   1.729   4.043   2.395 -0.3339  0.3509 -0.1404
18713TIP3    H177554   1.638   4.071   2.383  0.0794  1.1630 -1.6030
18713TIP3    H277555   1.766   4.044   2.307  1.3581  0.9418  0.5468
18714TIP3   OH277556   2.703   3.357  12.378 -1.2722 -0.2957 -0.3016
18714TIP3    H177557   2.736   3.430  12.326 -0.8861 -0.2823 -0.0436
18714TIP3    H277558   2.782   3.309  12.405 -1.5258 -0.8738 -0.5675
18715TIP3   OH277559   5.760   0.215  11.311  0.2511  0.0394  0.2780
18715TIP3    H177560   5.671   0.214  11.276 -0.2841 -0.5819  1.5951
18715TIP3    H277561   5.801   0.136  11.275  0.7006  0.9645 -1.3240
18716TIP3   OH277562   5.108   0.485   0.693 -0.0946 -0.3144  0.2523
18716TIP3    H177563   5.199   0.456   0.682  0.0486  0.6137 -1.3001
18716TIP3    H277564   5.110   0.541   0.771  0.9350  0.6391 -0.4231
18717TIP3   OH277565   4.963   3.384  10.772 -0.1678 -0.0086 -0.1946
18717TIP3    H177566   4.904   3.348  10.839  0.2981 -1.6023 -0.5779
18717TIP3    H277567   4.940   3.476  10.767 -2.4530 -0.5104 -0.1486
18718TIP3   OH277568   5.108   1.187  14.623  0.4636 -0.3353  0.0537
18718TIP3    H177569   5.025   1.144  14.642  1.1877 -1.4562  0.7577
18718TIP3    H277570   5.143   1.140  14.547  0.8231 -0.3661  0.2402
18719TIP3   OH277571   2.725   3.469   4.569  0.4388 -0.0910  0.5246
18719TIP3    H177572   2.722   3.511   4.655  0.9311 -0.1169  0.5603
18719TIP3    H277573   2.810   3.496   4.533 -0.2117  0.8007 -0.4090
18720TIP3   OH277574   5.527   0.933  11.684 -0.0056 -0.0106  0.0519
18720TIP3    H177575   5.607   0.954  11.732  1.3589 -1.3421 -1.5043
18720TIP3    H277576   5.496   1.017  11.650  1.3578  0.4014 -0.2302
18721TIP3   OH277577   3.809   1.666   2.660  0.1021  0.0031  0.9466
18721TIP3    H177578   3.848   1.644   2.745  0.1579 -1.5219  0.5556
18721TIP3    H277579   3.879   1.711   2.612  0.2085  0.4798  1.5332
18722TIP3   OH277580   2.740   4.104   1.695  0.7733 -0.4649 -0.3519
18722TIP3    H177581   2.725   4.180   1.638  0.0526 -0.9819 -0.8655
18722TIP3    H277582   2.777   4.038   1.636  2.1089 -0.2811  0.2427
18723TIP3   OH277583   0.122   3.179   5.900  0.1886 -0.1235  0.2870
18723TIP3    H177584   0.163   3.242   5.959  0.4870 -1.8002  1.9513
18723TIP3    H277585   0.063   3.128   5.955 -2.8547  0.9947 -1.6999
18724TIP3   OH277586   1.716   1.304   3.332  0.2188  0.2698 -0.0988
18724TIP3    H177587   1.649   1.287   3.398 -0.3476 -2.9966 -1.3131
18724TIP3    H277588   1.788   1.345   3.380 -0.0858 -2.1079  2.6335
18725TIP3   OH277589   6.441   3.106  16.452  0.0708  0.1677 -0.1831
18725TIP3    H177590   6.400   3.142  16.530 -1.5233 -2.0936  0.1399
18725TIP3    H277591   6.535   3.123  16.464 -0.0259 -0.7171  2.6147
18726TIP3   OH277592   6.634   0.462   3.432 -0.0995  0.2991  0.0214
18726TIP3    H177593   6.634   0.447   3.526  1.0303  2.1640  0.3772
18726TIP3    H277594   6.665   0.380   3.394  0.2274 -0.2052  1.3438
18727TIP3   OH277595   3.982   5.560   4.683 -0.1523  0.3410 -0.4947
18727TIP3    H177596   4.045   5.553   4.611 -0.6527 -2.2721 -0.8094
18727TIP3    H277597   4.036   5.553   4.762  0.1363 -0.0882 -0.7203
18728TIP3   OH277598   0.307   6.303  14.853 -0.2203  0.8053 -0.2354
18728TIP3    H177599   0.242   6.273  14.789 -0.0616 -0.5819  0.2146
18728TIP3    H277600   0.391   6.284  14.811 -0.0350  3.2644 -1.1283
18729TIP3   OH277601   6.021   4.995  12.005  0.1319  0.5250  0.0802
18729TIP3    H177602   6.022   5.064  11.940  1.5479  0.6939  0.2472
18729TIP3    H277603   6.057   4.919  11.960  1.2164  0.6696  0.6722
18730TIP3   OH277604   6.537   4.911   0.745 -0.4827  0.1839  0.1772
18730TIP3    H177605   6.587   4.830   0.755 -0.2169  0.2067 -0.8686
18730TIP3    H277606   6.548   4.935   0.653 -2.6933  0.0122 -0.1816
18731TIP3   OH277607   5.697   4.348   4.785 -0.1221  0.2610  0.3099
18731TIP3    H177608   5.727   4.288   4.717  1.9281  0.1901  1.1815
18731TIP3    H277609   5.711   4.435   4.749  0.9084  0.2237  0.6042
18732TIP3   OH277610   6.200   6.629   0.869  0.1215  0.1527 -0.3784
18732TIP3    H177611   6.267   6.571   0.904  1.1825  1.3793 -0.2991
18732TIP3    H277612   6.148   6.656   0.944 -1.0862 -1.5331 -0.5672
18733TIP3   OH277613   3.269   3.456   0.448 -0.8662  0.1043  0.3880
18733TIP3    H177614   3.234   3.544   0.432 -0.5686  0.2018  0.2565
18733TIP3    H277615   3.358   3.460   0.412  0.2781  0.6829  3.0526
18734TIP3   OH277616   5.644   3.840   5.190  0.1574  0.2221 -0.5671
18734TIP3    H177617   5.549   3.832   5.181 -0.0041  1.1675  0.1609
18734TIP3    H277618   5.668   3.769   5.250 -0.3351  0.9826  0.5685
18735TIP3   OH277619   3.674   0.274   6.192 -0.0037  0.0509 -0.2128
18735TIP3    H177620   3.685   0.196   6.138 -2.6604  1.0460 -2.4427
18735TIP3    H277621   3.586   0.264   6.229 -0.4229  1.9769 -0.6074
18736TIP3   OH277622   3.911   4.222  16.774  0.7479  0.1708 -0.3585
18736TIP3    H177623   3.984   4.161  16.769  2.6432  2.2865  0.0408
18736TIP3    H277624   3.923   4.281  16.699  0.4499  1.5709  0.6355
18737TIP3   OH277625   2.214   0.224  17.277  0.2342 -0.6524 -0.3382
18737TIP3    H177626   2.253   0.150  17.231 -0.2775  0.6026 -3.0227
18737TIP3    H277627   2.207   0.196  17.368  0.6847 -3.6056 -1.1248
18738TIP3   OH277628   3.684   6.177   1.658 -0.2378  0.4277 -0.3293
18738TIP3    H177629   3.647   6.101   1.612  1.9005 -0.8113 -0.1131
18738TIP3    H277630   3.620   6.197   1.726 -1.2480 -0.6097 -0.9303
18739TIP3   OH277631   3.101   4.925  15.195  0.3979  0.2664  0.6003
18739TIP3    H177632   3.093   4.926  15.290 -2.0776 -1.4966  0.4973
18739TIP3    H277633   3.056   5.005  15.167  2.1125  1.3886  0.8798
18740TIP3   OH277634   1.861   5.092   0.188 -0.4904  0.7576 -0.0806
18740TIP3    H177635   1.813   5.097   0.271  0.2262 -2.8833  0.7659
18740TIP3    H277636   1.802   5.128   0.123 -2.5298  0.5044  1.5264
18741TIP3   OH277637   1.116   3.148   2.392 -0.4192  0.2934  0.8525
18741TIP3    H177638   1.088   3.105   2.311 -1.3089  0.7225  0.9232
18741TIP3    H277639   1.206   3.117   2.406 -0.0479  0.6555 -0.5952
18742TIP3   OH277640   1.126   6.503  13.689 -0.3239  0.0660 -0.2126
18742TIP3    H177641   1.145   6.503  13.782  1.6154 -0.3986 -0.5567
18742TIP3    H277642   1.165   6.584  13.656 -1.0374  0.2511 -0.6242
18743TIP3   OH277643   4.625   2.614   2.842 -0.4716  0.0188 -0.5848
18743TIP3    H177644   4.587   2.528   2.856  0.3187 -0.0928  1.0306
18743TIP3    H277645   4.562   2.659   2.785 -1.5090 -1.1825 -0.4275
18744TIP3   OH277646   4.631   3.149  13.546 -0.1153  0.6280  0.5719
18744TIP3    H177647   4.702   3.190  13.597  1.2684 -0.2899 -0.5273
18744TIP3    H277648   4.656   3.164  13.455  0.0929 -1.9986  0.1194
18745TIP3   OH277649   3.148   1.965  13.497 -0.0652 -0.0224  0.1494
18745TIP3    H177650   3.127   1.871  13.497  0.7056 -0.2003  0.1187
18745TIP3    H277651   3.076   2.005  13.546 -0.4961 -0.6047  0.0135
18746TIP3   OH277652   3.086   2.362   1.770 -0.0825 -0.0039 -0.3554
18746TIP3    H177653   3.060   2.355   1.678 -0.1788 -1.1512 -0.2510
18746TIP3    H277654   3.119   2.451   1.778  1.5624 -0.4107 -1.9152
18747TIP3   OH277655   4.274   6.112  10.935  0.2632  0.2931 -0.5747
18747TIP3    H177656   4.283   6.087  10.843  1.6384  0.9776 -0.6501
18747TIP3    H277657   4.362   6.140  10.961  0.1033 -0.7761  1.2306
18748TIP3   OH277658   2.017   3.186  13.365 -0.3005  0.2480  0.3059
18748TIP3    H177659   1.926   3.156  13.361  0.2638 -1.6226  0.6268
18748TIP3    H277660   2.066   3.111  13.400  1.4879  0.9553 -0.5520
18749TIP3   OH277661   5.050   4.227  12.386 -0.4793  0.9216  0.3193
18749TIP3    H177662   5.014   4.279  12.458 -2.5341 -1.0969  0.9123
18749TIP3    H277663   5.067   4.141  12.425 -0.1320  0.2354 -1.2467
18750TIP3   OH277664   1.613   5.739   3.479 -0.2585 -0.4902 -0.2415
18750TIP3    H177665   1.675   5.734   3.552 -1.0089 -0.5257  0.4088
18750TIP3    H277666   1.622   5.655   3.434 -0.4872 -0.8777  0.4075
18751TIP3   OH277667   0.053   2.602  11.691  0.1440  0.9605 -0.1342
18751TIP3    H177668   0.006   2.625  11.611  0.7060  0.2450 -0.6760
18751TIP3    H277669   0.019   2.664  11.756 -0.4933  1.3979 -0.8553
18752TIP3   OH277670   2.384   3.730  13.956 -0.5520  0.8232  0.2865
18752TIP3    H177671   2.400   3.793  13.885 -0.9289  1.3472  0.6629
18752TIP3    H277672   2.456   3.744  14.018 -0.0270  0.1272 -0.1402
18753TIP3   OH277673   2.070   6.568  11.805 -0.1503  0.1469  0.0202
18753TIP3    H177674   2.038   6.478  11.801 -2.2039  0.8045  0.4442
18753TIP3    H277675   2.102   6.586  11.717 -3.0431  0.1017 -1.1496
18754TIP3   OH277676   0.048   6.487   2.249  0.3033 -0.1833 -0.4162
18754TIP3    H177677   0.108   6.562   2.252 -1.2431  1.0607  1.4114
18754TIP3    H277678   0.088   6.423   2.308  0.0492  0.5089  0.5347
18755TIP3   OH277679   5.474   2.859   3.080 -0.2944 -0.1218  0.4209
18755TIP3    H177680   5.484   2.768   3.110 -0.8413 -0.6984 -1.0463
18755TIP3    H277681   5.501   2.857   2.988 -1.4917  0.9238  0.0104
18756TIP3   OH277682   4.779   4.965   2.389 -0.2069 -0.6533  0.9575
18756TIP3    H177683   4.728   4.909   2.331  0.0560 -1.1653  1.2147
18756TIP3    H277684   4.870   4.953   2.361 -0.3261  1.7603 -0.8192
18757TIP3   OH277685   1.712   1.089  17.110 -0.2157  0.0136 -0.0393
18757TIP3    H177686   1.760   1.062  17.032 -0.9011 -1.0068 -0.1365
18757TIP3    H277687   1.648   1.153  17.079 -0.1264  0.0102 -0.2308
18758TIP3   OH277688   0.328   6.613   2.637 -0.2952 -0.4474  0.1897
18758TIP3    H177689   0.262   6.556   2.675 -1.4149  1.0398  0.5839
18758TIP3    H277690   0.385   6.636   2.711 -0.6596  0.0136  0.3337
18759TIP3   OH277691   5.656   4.662  11.840  0.2585 -0.1252 -0.0459
18759TIP3    H177692   5.603   4.724  11.788  2.1702 -1.2280 -3.6653
18759TIP3    H277693   5.743   4.703  11.844  0.7864 -1.2377  0.1097
18760TIP3   OH277694   3.063   4.254  15.000 -0.1637  0.1487 -0.7126
18760TIP3    H177695   3.069   4.336  15.050  4.1209 -0.6197  0.3906
18760TIP3    H277696   3.000   4.201  15.049 -0.1930  1.4078  0.7009
18761TIP3   OH277697   0.433   1.643   0.600  0.3978 -0.4872 -0.4218
18761TIP3    H177698   0.528   1.642   0.608  0.5199  0.7202 -1.4192
18761TIP3    H277699   0.417   1.658   0.507 -0.7563  0.3348 -0.1069
18762TIP3   OH277700   1.197   4.547  11.447 -0.4362  0.1926  0.2649
18762TIP3    H177701   1.124   4.490  11.471 -1.4042  2.1018  2.3234
18762TIP3    H277702   1.198   4.614  11.516  1.9081  1.4856 -0.9001
18763TIP3   OH277703   6.628   5.946  10.766 -1.1536  0.1943  0.0456
18763TIP3    H177704   6.673   5.865  10.792  0.6258  0.3000 -2.3110
18763TIP3    H277705   6.699   6.008  10.750 -2.3538  1.4399 -0.6198
18764TIP3   OH277706   2.629   5.548  16.235  0.4810 -0.1116  0.4809
18764TIP3    H177707   2.630   5.642  16.214  1.7870 -0.4221 -1.0949
18764TIP3    H277708   2.720   5.528  16.256  0.3326 -1.1380  0.1917
18765TIP3   OH277709   1.512   1.765  14.244  0.0092  0.2139 -0.3533
18765TIP3    H177710   1.564   1.779  14.165  0.9332  2.2106  0.5348
18765TIP3    H277711   1.562   1.700  14.295 -0.3560 -0.7250 -1.1541
18766TIP3   OH277712   3.500   5.711  14.102  0.0733  0.3607  0.2167
18766TIP3    H177713   3.442   5.759  14.161  2.4768  0.0948  3.0136
18766TIP3    H277714   3.584   5.755  14.109  0.5573  0.2303 -3.0439
18767TIP3   OH277715   5.267   6.647   3.577  0.3153 -0.1146 -0.5574
18767TIP3    H177716   5.225   6.619   3.658 -2.2224 -1.3926 -2.1876
18767TIP3    H277717   5.298   6.735   3.595 -1.1211  0.0419  1.4705
18768TIP3   OH277718   0.686   4.267  15.870 -0.5142 -0.8882 -0.4162
18768TIP3    H177719   0.631   4.314  15.933  0.1340 -0.3325 -0.2568
18768TIP3    H277720   0.678   4.317  15.789 -0.4667 -0.9710 -0.4718
18769TIP3   OH277721   1.014   4.442  10.626 -0.0896 -0.0875 -0.0330
18769TIP3    H177722   1.068   4.416  10.700  0.4756 -1.7190 -0.9684
18769TIP3    H277723   0.969   4.362  10.599 -0.4724  0.5192 -1.3008
18770TIP3   OH277724   3.376   5.574  17.271  0.2817 -0.0129 -0.4627
18770TIP3    H177725   3.432   5.556  17.346  0.5472  1.4770 -0.2782
18770TIP3    H277726   3.420   5.532  17.197  0.1348 -1.2975  0.1497
18771TIP3   OH277727   0.402   1.512   4.625  0.0163  0.3604  0.1126
18771TIP3    H177728   0.328   1.517   4.564 -1.4167  2.2557  1.8742
18771TIP3    H277729   0.477   1.543   4.575 -0.9888  1.2474 -0.8768
18772TIP3   OH277730   3.362   2.244  12.111  0.2381  0.0263  0.5813
18772TIP3    H177731   3.275   2.283  12.114  0.8719  1.7117 -0.8950
18772TIP3    H277732   3.410   2.298  12.048  1.8759 -1.8383  0.1438
18773TIP3   OH277733   0.740   0.680  16.851 -0.0211 -0.5424 -0.1047
18773TIP3    H177734   0.833   0.660  16.838  0.0704  0.6394 -1.4789
18773TIP3    H277735   0.733   0.773  16.833 -1.6017 -0.7579 -0.6999
18774TIP3   OH277736   6.646   0.852   3.188  0.2736  0.0702  0.2203
18774TIP3    H177737   6.600   0.795   3.250 -1.1633 -0.2439 -1.0686
18774TIP3    H277738   6.739   0.842   3.211 -0.2206  0.3356  2.5979
18775TIP3   OH277739   6.728   4.705  13.534  0.2760  0.2007 -0.0050
18775TIP3    H177740   6.771   4.789  13.517 -1.2111  0.9486 -0.3245
18775TIP3    H277741   6.788   4.657  13.591  0.7514  1.8663  0.9590
18776TIP3   OH277742   2.072   3.672  11.847  0.0133 -0.0190 -0.3863
18776TIP3    H177743   1.979   3.683  11.865  0.1256 -1.8859  1.8782
18776TIP3    H277744   2.115   3.739  11.899 -0.0229  0.9198 -1.5244
18777TIP3   OH277745   0.145   0.169  11.784  0.0355 -0.1860 -0.1770
18777TIP3    H177746   0.188   0.083  11.784  1.5093  0.5244 -0.3611
18777TIP3    H277747   0.138   0.193  11.692 -0.2448 -0.0419 -0.1194
18778TIP3   OH277748   2.250   3.101  13.188 -0.5384  0.0791 -0.0034
18778TIP3    H177749   2.342   3.073  13.188  0.3837  2.7290  0.7011
18778TIP3    H277750   2.255   3.197  13.192 -3.3637  0.3583 -1.2267
18779TIP3   OH277751   6.549   4.088   1.252  0.3605 -0.0846  0.0947
18779TIP3    H177752   6.479   4.076   1.316 -0.3729  2.8165 -0.0556
18779TIP3    H277753   6.618   4.135   1.299  1.3424 -1.0062 -0.3550
18780TIP3   OH277754   3.563   4.619  17.165 -0.0108 -0.3091  0.4533
18780TIP3    H177755   3.474   4.650  17.147 -0.4046 -2.3963 -1.7248
18780TIP3    H277756   3.587   4.662  17.247 -2.1101  2.1353 -0.0736
18781TIP3   OH277757   4.960   4.154   4.377  0.0004 -0.0641 -0.1225
18781TIP3    H177758   4.947   4.202   4.459  0.3876  2.3246 -1.4041
18781TIP3    H277759   4.872   4.126   4.351 -0.4550  1.2942 -0.1107
18782TIP3   OH277760   5.032   2.560  14.958  0.5516 -0.0351 -0.1292
18782TIP3    H177761   5.123   2.587  14.943  0.4810 -0.3755 -1.2627
18782TIP3    H277762   4.990   2.569  14.872  0.1058 -2.0897 -0.1946
18783TIP3   OH277763   2.569   3.998   4.965 -0.0916  0.3552 -0.1712
18783TIP3    H177764   2.490   3.969   5.011  1.0575 -3.3190 -0.2240
18783TIP3    H277765   2.548   3.986   4.872 -0.2442  1.7029 -0.3300
18784TIP3   OH277766   1.408   3.530  12.531 -0.1521  0.1386 -0.1618
18784TIP3    H177767   1.339   3.566  12.586 -3.2425 -3.1368 -1.5304
18784TIP3    H277768   1.450   3.463  12.584 -1.3018 -1.1308 -0.7931
18785TIP3   OH277769   0.648   4.687   5.452  0.1462 -0.6126 -0.3462
18785TIP3    H177770   0.731   4.644   5.429  0.4169  1.2062 -3.3444
18785TIP3    H277771   0.582   4.642   5.400  0.1992  1.3635 -2.2956
18786TIP3   OH277772   0.759   2.498   3.253 -0.3575 -0.0555 -0.4826
18786TIP3    H177773   0.671   2.469   3.275 -1.4349  3.3681  0.3398
18786TIP3    H277774   0.747   2.560   3.181  1.3456  0.5111 -0.3283
18787TIP3   OH277775   2.236   4.204  15.990  0.4948 -0.6807  0.1476
18787TIP3    H177776   2.290   4.283  15.994 -2.6898  1.7380 -0.9570
18787TIP3    H277777   2.187   4.204  16.072  1.0476 -2.0163  0.4979
18788TIP3   OH277778   2.058   0.813  15.148 -0.1232 -0.2338 -0.7155
18788TIP3    H177779   2.131   0.857  15.193  0.7040 -1.0921 -1.1987
18788TIP3    H277780   2.081   0.818  15.055 -0.3216 -1.1303 -0.8169
18789TIP3   OH277781   0.746   4.357   5.085 -0.7482 -0.2953  0.3017
18789TIP3    H177782   0.834   4.322   5.071 -0.5260  0.7089 -1.0720
18789TIP3    H277783   0.690   4.305   5.028 -0.9346 -0.4950  0.6677
18790TIP3   OH277784   2.941   1.495   4.043 -0.1300 -0.2533  0.1811
18790TIP3    H177785   3.005   1.549   3.998  0.8213 -0.3959  1.3048
18790TIP3    H277786   2.962   1.506   4.136 -0.0658 -2.3319  0.4530
18791TIP3   OH277787   2.255   1.437   3.388  0.1448  0.1293 -0.3306
18791TIP3    H177788   2.302   1.492   3.451 -0.7311 -0.9553  1.3517
18791TIP3    H277789   2.310   1.360   3.377 -1.5266 -1.6523  2.4772
18792TIP3   OH277790   1.649   6.034  17.370  0.5386 -0.2770 -0.4309
18792TIP3    H177791   1.678   5.947  17.344 -0.6048 -0.9128  0.3766
18792TIP3    H277792   1.714   6.062  17.435  1.3910 -0.1403 -1.3054
18793TIP3   OH277793   3.364   3.999  13.908 -0.7957  1.0610  0.0282
18793TIP3    H177794   3.333   4.087  13.887  0.0978  1.2299 -0.5971
18793TIP3    H277795   3.419   3.974  13.834 -2.6614 -0.8561 -0.8355
18794TIP3   OH277796   3.015   2.511  13.999 -0.0812 -0.1266 -0.0956
18794TIP3    H177797   2.920   2.504  14.014 -0.5580 -0.3926 -2.7347
18794TIP3    H277798   3.029   2.464  13.917  1.9917  1.8214 -0.9430
18795TIP3   OH277799   6.254   5.888   5.921 -0.0482  0.0107  0.0246
18795TIP3    H177800   6.208   5.869   5.839  0.0444  0.4463 -0.1317
18795TIP3    H277801   6.326   5.826   5.923  0.5464  0.6556 -0.7219
18796TIP3   OH277802   2.792   1.777  12.784  0.4529 -0.5837  0.3890
18796TIP3    H177803   2.771   1.865  12.816 -1.3804 -0.9595  0.2952
18796TIP3    H277804   2.849   1.792  12.708 -0.8621  0.5876 -0.4013
18797TIP3   OH277805   3.077   1.301  15.322 -0.3434 -0.0466 -0.0231
18797TIP3    H177806   2.995   1.350  15.319 -1.2711 -1.5556 -0.6996
18797TIP3    H277807   3.075   1.256  15.407  0.6936  1.3459  0.7718
18798TIP3   OH277808   6.195   5.783   0.486 -0.1030 -0.1671 -0.2879
18798TIP3    H177809   6.157   5.829   0.561 -0.8417  0.4481 -1.0311
18798TIP3    H277810   6.176   5.838   0.411  1.3923 -0.3548 -0.8342
18799TIP3   OH277811   5.592   3.677   1.139  0.5470  0.2627  0.0816
18799TIP3    H177812   5.659   3.609   1.147 -0.9333 -1.0624  2.8158
18799TIP3    H277813   5.525   3.637   1.084  0.7741  0.4997 -0.3686
18800TIP3   OH277814   4.611   6.140   1.158  0.1361  0.3232  0.1812
18800TIP3    H177815   4.576   6.229   1.155  0.7037  0.5420 -0.3433
18800TIP3    H277816   4.610   6.117   1.251 -0.5645  0.6483  0.2624
18801TIP3   OH277817   4.364   3.442   0.118  0.3849 -0.2696  0.6426
18801TIP3    H177818   4.326   3.401   0.041  1.7474 -0.0429 -0.1793
18801TIP3    H277819   4.458   3.426   0.111  0.9135  2.3894  0.6108
18802TIP3   OH277820   3.951   2.980   3.716 -0.0648 -0.2194 -0.5858
18802TIP3    H177821   3.910   3.054   3.762  0.1140  0.5632 -1.6543
18802TIP3    H277822   3.991   2.928   3.786  0.4365  1.0848  0.1361
18803TIP3   OH277823   5.177   3.502  14.418 -0.0816  1.0765 -0.0898
18803TIP3    H177824   5.223   3.440  14.360  1.4404  2.9805 -1.0147
18803TIP3    H277825   5.210   3.482  14.505  0.8046  0.9387 -0.4457
18804TIP3   OH277826   0.452   6.385  13.787  0.0909 -0.3455 -0.3993
18804TIP3    H177827   0.503   6.387  13.706 -1.9622 -0.3296 -1.7511
18804TIP3    H277828   0.363   6.407  13.760 -1.1076 -2.4455  1.4980
18805TIP3   OH277829   4.843   5.226  12.175  0.2191  0.3978  0.0362
18805TIP3    H177830   4.901   5.208  12.101 -0.4073 -2.2812  0.0831
18805TIP3    H277831   4.891   5.191  12.251  0.1111  1.5630  0.6713
18806TIP3   OH277832   3.108   1.761   1.500  0.1222  0.4547 -0.2198
18806TIP3    H177833   3.145   1.769   1.588  0.9574 -0.6948 -0.4396
18806TIP3    H277834   3.172   1.804   1.443  0.0365  0.3995 -0.3578
18807TIP3   OH277835   0.921   5.644  14.291 -0.3552  0.5472 -0.2044
18807TIP3    H177836   0.846   5.673  14.239 -0.3717 -0.4979 -0.7847
18807TIP3    H277837   0.990   5.628  14.227 -1.1496 -3.3166 -0.3377
18808TIP3   OH277838   2.073   4.323   3.422  0.1298 -0.2056 -0.1928
18808TIP3    H177839   2.061   4.416   3.444 -0.0319  0.0267 -1.2344
18808TIP3    H277840   2.161   4.303   3.455  0.7424  0.7016 -1.1968
18809TIP3   OH277841   3.450   3.353   1.082 -0.0554  0.0929  0.6665
18809TIP3    H177842   3.531   3.373   1.130  0.4389  0.0104 -0.1147
18809TIP3    H277843   3.478   3.341   0.991 -0.4890 -2.8707  0.8194
18810TIP3   OH277844   5.645   1.927  11.726  0.3352 -0.0936 -0.1219
18810TIP3    H177845   5.626   2.014  11.693  3.2550 -0.2231 -2.6156
18810TIP3    H277846   5.666   1.876  11.648  0.9778 -2.4064  1.4479
18811TIP3   OH277847   5.364   6.065  14.706  0.1023  0.4047 -0.1266
18811TIP3    H177848   5.290   6.112  14.746 -0.5354  0.3194 -1.1586
18811TIP3    H277849   5.372   6.104  14.619  1.8249  0.9900  0.2478
18812TIP3   OH277850   0.953   0.103   6.694 -0.4093  0.6206  0.4521
18812TIP3    H177851   0.867   0.119   6.656 -0.3561  0.4793  0.2680
18812TIP3    H277852   0.960   0.008   6.699 -0.7108  0.6494  1.5027
18813TIP3   OH277853   1.985   2.888  17.090 -0.4096  0.2194 -0.1606
18813TIP3    H177854   1.938   2.901  17.008 -2.0856  1.1069  0.8663
18813TIP3    H277855   2.001   2.793  17.093 -0.2078  0.1881 -1.5462
18814TIP3   OH277856   4.954   3.382  17.342 -0.5990  0.2518 -0.1663
18814TIP3    H177857   5.012   3.390  17.266 -0.8501 -0.4851 -0.4403
18814TIP3    H277858   4.926   3.472  17.360  1.2748  0.7580  0.4838
18815TIP3   OH277859   0.612   1.364  15.340  0.2785 -0.1841 -0.3192
18815TIP3    H177860   0.645   1.355  15.251 -1.5885  0.8116 -1.1770
18815TIP3    H277861   0.524   1.399  15.329  0.5497  1.4708  1.9571
18816TIP3   OH277862   3.205   1.492  12.844 -0.2144 -0.3605  0.6202
18816TIP3    H177863   3.119   1.476  12.804  0.1740 -0.3957 -0.2158
18816TIP3    H277864   3.230   1.579  12.812  0.5914 -0.8487 -0.1131
18817TIP3   OH277865   0.846   4.499   5.333  0.6248 -0.0703  0.4452
18817TIP3    H177866   0.837   4.494   5.429  1.2964 -1.6281  0.4737
18817TIP3    H277867   0.817   4.413   5.303 -2.0311  1.2334 -1.0332
18818TIP3   OH277868   5.871   0.073  11.548 -0.1418 -0.0908 -0.2561
18818TIP3    H177869   5.947   0.077  11.606  1.2327 -2.1008 -1.7451
18818TIP3    H277870   5.907   0.085  11.460 -1.8826  1.0157 -0.8691
18819TIP3   OH277871   0.085   5.338   3.408 -0.3361 -0.5500  0.5613
18819TIP3    H177872   0.115   5.308   3.322 -0.4845 -0.3135  0.4216
18819TIP3    H277873   0.163   5.339   3.462  0.4187  2.1759 -0.3968
18820TIP3   OH277874   5.769   0.863  15.361  0.2938  0.0980  0.1721
18820TIP3    H177875   5.790   0.876  15.268  1.8032 -0.5923  0.3850
18820TIP3    H277876   5.700   0.926  15.379  0.6353  0.9017 -1.1885
18821TIP3   OH277877   0.516   0.859   2.856  0.3836 -0.1442 -0.0785
18821TIP3    H177878   0.493   0.828   2.769 -0.3808  1.4525 -0.4857
18821TIP3    H277879   0.510   0.955   2.850 -0.0228 -0.0126  1.8015
18822TIP3   OH277880   1.381   5.574  15.070 -0.2710  0.4881 -0.3949
18822TIP3    H177881   1.294   5.540  15.048 -0.0654 -1.2058  1.1250
18822TIP3    H277882   1.379   5.585  15.165  1.6245 -1.0984 -0.0955
18823TIP3   OH277883   2.868   6.655  14.260  0.5055 -0.2769 -0.0790
18823TIP3    H177884   2.809   6.588  14.226  0.4452 -0.1809 -0.1646
18823TIP3    H277885   2.831   6.677  14.346  0.7451 -0.6283  0.1119
18824TIP3   OH277886   0.373   3.947  12.087 -0.3108  0.4631  0.5867
18824TIP3    H177887   0.333   4.001  12.019  2.1339 -0.3618 -1.6508
18824TIP3    H277888   0.465   3.972  12.087  0.3710 -1.7775  1.3788
18825TIP3   OH277889   2.309   4.744   0.759 -0.6140 -0.2256 -0.3755
18825TIP3    H177890   2.215   4.736   0.772 -0.3545 -0.0507  2.1010
18825TIP3    H277891   2.339   4.655   0.742 -1.3094 -0.1592 -2.0942
18826TIP3   OH277892   1.455   3.718  16.173  0.3502  0.9487  0.4584
18826TIP3    H177893   1.537   3.688  16.134 -0.6616 -0.7868 -0.4037
18826TIP3    H277894   1.405   3.639  16.189 -1.9145  2.0465 -0.7187
18827TIP3   OH277895   3.125   1.334   5.358 -0.2294 -0.1522  0.3063
18827TIP3    H177896   3.096   1.367   5.444 -0.6940  1.9467 -0.5768
18827TIP3    H277897   3.206   1.286   5.377 -0.3614  0.1911  1.9311
18828TIP3   OH277898   5.049   1.255  13.273  0.7087 -0.3136  0.3424
18828TIP3    H177899   5.052   1.285  13.182 -1.0478  1.6105  0.8159
18828TIP3    H277900   4.955   1.244  13.290  1.0121 -0.5837  1.9194
18829TIP3   OH277901   0.934   0.104  17.037  0.4023 -0.6075  1.1586
18829TIP3    H177902   0.958   0.050  16.961  0.9818 -1.3960  1.8787
18829TIP3    H277903   1.002   0.171  17.041 -1.7967  2.0793 -1.4328
18830TIP3   OH277904   3.650   5.653   0.897 -0.2801  0.9063  0.5539
18830TIP3    H177905   3.574   5.613   0.854  0.4931 -0.2460  0.2109
18830TIP3    H277906   3.632   5.747   0.895 -0.8169  0.8052 -1.2734
18831TIP3   OH277907   3.643   4.412   2.930 -0.2172 -0.4088  0.3566
18831TIP3    H177908   3.604   4.477   2.989  0.3416  2.0551 -1.8158
18831TIP3    H277909   3.595   4.331   2.949 -2.9415  1.2739  1.2685
18832TIP3   OH277910   4.723   3.609   1.924  0.3917  0.6119  0.0613
18832TIP3    H177911   4.763   3.684   1.880 -0.4983  0.6629 -0.6884
18832TIP3    H277912   4.699   3.643   2.011 -0.9471  1.5235 -0.6358
18833TIP3   OH277913   4.330   5.613  12.312  0.1630  0.7199  0.4317
18833TIP3    H177914   4.327   5.525  12.276 -0.5090  0.5373  0.9214
18833TIP3    H277915   4.423   5.628  12.331  0.4286  0.5466 -0.6721
18834TIP3   OH277916   6.003   4.388  11.910  0.1306 -0.0680  0.1273
18834TIP3    H177917   6.084   4.378  11.860  0.0388  1.5497 -0.4075
18834TIP3    H277918   5.935   4.351  11.853  0.2805  0.0384 -0.1243
18835TIP3   OH277919   1.210   5.389  17.184 -0.0027  0.4205 -0.1403
18835TIP3    H177920   1.126   5.395  17.139  0.0422 -2.0481 -0.7381
18835TIP3    H277921   1.275   5.410  17.118 -0.0817  0.3821 -0.2315
18836TIP3   OH277922   3.932   0.387  15.496 -0.2315  0.2216  0.1708
18836TIP3    H177923   3.896   0.475  15.506 -1.2245 -0.1584  0.0989
18836TIP3    H277924   3.932   0.372  15.401 -2.6847 -0.8538  0.2580
18837TIP3   OH277925   6.254   5.066   2.645 -0.0835  0.0036 -0.0140
18837TIP3    H177926   6.165   5.079   2.678 -0.2535 -1.4225  0.1619
18837TIP3    H277927   6.276   5.149   2.604 -2.5493 -0.3878 -2.4730
18838TIP3   OH277928   2.451   6.424   6.357  0.2181 -0.4397 -0.1760
18838TIP3    H177929   2.516   6.475   6.308  0.7729 -0.4709  0.5196
18838TIP3    H277930   2.501   6.381   6.426 -0.5786 -0.2541  0.5340
18839TIP3   OH277931   4.189   5.992  12.099 -0.1249 -0.0662  0.9858
18839TIP3    H177932   4.169   6.081  12.071  2.6260  0.7194  1.1889
18839TIP3    H277933   4.192   5.942  12.018  0.4379  0.5411  0.6169
18840TIP3   OH277934   4.648   6.687   3.273  0.5532  0.3925 -0.8375
18840TIP3    H177935   4.598   6.732   3.205 -0.9279 -3.8923 -2.9902
18840TIP3    H277936   4.737   6.680   3.238  0.8264  1.5836 -0.4310
18841TIP3   OH277937   4.110   6.572   3.326  0.3154  0.0758  0.1175
18841TIP3    H177938   4.145   6.585   3.413  0.5142 -0.0208  0.0520
18841TIP3    H277939   4.139   6.648   3.276  0.2383  0.1096  0.1238
18842TIP3   OH277940   2.003   4.929  12.635 -0.0054  0.0824 -0.8743
18842TIP3    H177941   2.056   4.912  12.557 -0.1114  1.0813 -1.1852
18842TIP3    H277942   1.981   5.022  12.629 -0.2013  0.1241  0.2399
18843TIP3   OH277943   4.725   1.449   0.541  0.3001 -0.0290  0.2771
18843TIP3    H177944   4.733   1.362   0.581 -0.1487  0.7307  2.1202
18843TIP3    H277945   4.771   1.507   0.602 -2.4898  1.5562  1.0120
18844TIP3   OH277946   0.936   0.954   5.751 -0.1526  0.2458 -0.1997
18844TIP3    H177947   0.881   0.931   5.826  0.3849 -0.1108  0.0865
18844TIP3    H277948   0.876   0.954   5.677 -0.4769 -0.5003  0.0544
18845TIP3   OH277949   5.097   3.519   3.839 -0.0116  0.8303  0.0266
18845TIP3    H177950   5.010   3.517   3.879  0.5668  1.3822  1.3436
18845TIP3    H277951   5.137   3.436   3.866 -0.0765  0.6184 -0.5035
18846TIP3   OH277952   4.485   1.302  14.640 -0.1567  0.3091  0.2661
18846TIP3    H177953   4.560   1.329  14.588  1.0963 -0.6449  1.4975
18846TIP3    H277954   4.434   1.382  14.653  1.5451  1.3433  0.8353
18847TIP3   OH277955   6.593   6.628  13.169  0.3244 -0.0433  0.4228
18847TIP3    H177956   6.577   6.554  13.111 -0.2778 -0.0761  0.6241
18847TIP3    H277957   6.507   6.650  13.204  0.4513  0.9488  0.1324
18848TIP3   OH277958   0.782   3.237   1.881  0.4824 -0.0826 -0.3983
18848TIP3    H177959   0.859   3.200   1.925  1.1116  0.1897 -1.2543
18848TIP3    H277960   0.762   3.175   1.810  0.7404  0.5353 -1.0201
18849TIP3   OH277961   0.015   3.793   0.474  0.1984  0.6410 -0.1165
18849TIP3    H177962   0.033   3.850   0.400 -1.4947 -0.4387 -1.4359
18849TIP3    H277963   0.003   3.853   0.548  0.2972  1.8592 -1.0590
18850TIP3   OH277964   3.592   2.070   3.487 -0.1825 -0.1796 -0.0226
18850TIP3    H177965   3.620   2.144   3.433 -1.0002  0.1405 -0.0142
18850TIP3    H277966   3.674   2.032   3.519  0.2986 -0.1443 -1.1736
18851TIP3   OH277967   2.388   2.352   0.120  0.3490  0.2690 -0.0368
18851TIP3    H177968   2.460   2.415   0.119 -0.7536  1.5584 -1.3363
18851TIP3    H277969   2.323   2.387   0.059 -0.8645 -1.4876  0.1518
18852TIP3   OH277970   0.028   5.909  12.743  0.4017  0.3680  0.4358
18852TIP3    H177971  -0.055   5.927  12.787  0.9409  3.2878  0.4462
18852TIP3    H277972   0.011   5.929  12.651  0.8211 -0.0855  0.2553
18853TIP3   OH277973   1.353   4.403   1.897  0.3122  0.3034 -0.9232
18853TIP3    H177974   1.326   4.373   1.810  0.8855  0.6459 -1.2293
18853TIP3    H277975   1.274   4.443   1.934 -0.4900 -1.5811 -0.4722
18854TIP3   OH277976   1.462   4.240  14.360 -0.1661  0.2174 -0.4304
18854TIP3    H177977   1.547   4.239  14.404 -0.0139  0.1290 -0.7235
18854TIP3    H277978   1.411   4.171  14.403  0.5071 -0.9390 -1.4134
18855TIP3   OH277979   3.127   5.067  15.936  0.4361  0.1591 -0.0725
18855TIP3    H177980   3.164   5.153  15.917  2.6493 -1.0268 -1.6552
18855TIP3    H277981   3.045   5.064  15.886  1.6323  0.4523 -2.1699
18856TIP3   OH277982   4.460   2.268   3.596 -0.3758 -0.4626 -0.4641
18856TIP3    H177983   4.481   2.307   3.512  0.0360  1.0928  0.3216
18856TIP3    H277984   4.474   2.174   3.584  2.2314 -0.0346 -1.4093
18857TIP3   OH277985   3.858   4.831  12.781  0.1371 -0.2769  0.1058
18857TIP3    H177986   3.918   4.906  12.787  1.3906 -1.1198 -1.1702
18857TIP3    H277987   3.841   4.807  12.872  1.5506  0.1720  0.5265
18858TIP3   OH277988   1.971   3.667  14.863  0.1191 -0.2977 -0.1381
18858TIP3    H177989   1.928   3.693  14.945  2.0281  0.1699  0.7688
18858TIP3    H277990   1.925   3.588  14.836 -0.6533 -0.3785  1.2991
18859TIP3   OH277991   5.585   0.058  16.058 -0.1038 -0.6083  0.2430
18859TIP3    H177992   5.655   0.006  16.097 -0.6593 -2.1539 -0.7478
18859TIP3    H277993   5.509   0.041  16.114  0.1529  0.7122  1.0492
18860TIP3   OH277994   0.980   5.634   0.404 -0.1932 -0.3226  0.1518
18860TIP3    H177995   0.896   5.664   0.438 -0.1023  0.1016  0.0132
18860TIP3    H277996   1.010   5.569   0.467 -0.7076 -0.6061  0.1060
18861TIP3   OH277997   3.499   0.553  11.654 -0.5097 -0.6839  0.3930
18861TIP3    H177998   3.515   0.509  11.571 -1.2030 -1.1048  0.4677
18861TIP3    H277999   3.584   0.586  11.682 -0.4295  0.3274 -0.9665
18862TIP3   OH278000   3.206   2.445  12.290 -0.0301  0.5053  0.3476
18862TIP3    H178001   3.282   2.405  12.332  1.1488  1.3139 -0.9133
18862TIP3    H278002   3.181   2.517  12.348  0.7448  0.7909  0.3386
18863TIP3   OH278003   1.805   3.966  11.973  0.1149 -0.8660  0.1421
18863TIP3    H178004   1.837   3.937  11.887 -2.2973 -0.5399 -0.9493
18863TIP3    H278005   1.840   3.902  12.035  2.8843 -0.4678 -0.8589
18864TIP3   OH278006   5.388   4.967   4.431 -0.3822  0.0408 -0.6600
18864TIP3    H178007   5.358   5.033   4.494  1.5245  0.7803 -0.4746
18864TIP3    H278008   5.470   4.935   4.467 -1.9314 -3.5705  0.0211
18865TIP3   OH278009   6.506   1.231   1.951  0.1403  0.3785 -0.0178
18865TIP3    H178010   6.421   1.264   1.922  0.9031  1.5618 -0.9852
18865TIP3    H278011   6.508   1.252   2.044  0.4231  2.8007 -0.5037
18866TIP3   OH278012   2.692   5.291  17.068  0.4052 -0.1911 -0.6316
18866TIP3    H178013   2.649   5.206  17.060  2.6204 -1.5239  0.5382
18866TIP3    H278014   2.627   5.348  17.110 -0.3628 -1.9714  0.7110
18867TIP3   OH278015   6.128   2.056   4.261 -0.0700  0.0072 -0.2214
18867TIP3    H178016   6.053   2.032   4.206 -0.8331 -0.3274  0.9243
18867TIP3    H278017   6.159   2.139   4.225 -0.7739 -0.0235 -0.9231
18868TIP3   OH278018   0.223   4.656   1.886  0.6043 -0.1412  0.5153
18868TIP3    H178019   0.178   4.669   1.802 -1.0650 -1.2468  1.1968
18868TIP3    H278020   0.250   4.744   1.912  2.0375  0.1308 -1.6212
18869TIP3   OH278021   1.634   4.936  12.318 -0.0701  0.6426 -0.3101
18869TIP3    H178022   1.696   4.996  12.276  0.3537  1.0862  0.9033
18869TIP3    H278023   1.686   4.859  12.339 -0.7470 -0.4551 -2.4059
18870TIP3   OH278024   6.246   5.177   3.039  0.3381 -0.1328 -0.2157
18870TIP3    H178025   6.207   5.232   2.972 -0.6654  0.3201  0.7043
18870TIP3    H278026   6.208   5.090   3.025 -1.0616  0.3136  0.6920
18871TIP3   OH278027   0.898   0.719   0.125 -0.3463 -0.0515 -0.5587
18871TIP3    H178028   0.862   0.716   0.214 -0.2896  2.2061 -0.4017
18871TIP3    H278029   0.821   0.732   0.069 -0.5336 -2.7407 -1.0343
18872TIP3   OH278030   1.449   1.936  11.889 -0.0182  0.0001  0.2815
18872TIP3    H178031   1.447   1.841  11.889 -0.4644  0.0087 -0.3151
18872TIP3    H278032   1.420   1.961  11.977 -1.3489 -0.3903 -0.0376
18873TIP3   OH278033   5.722   5.174  15.041  0.7955  0.8826  0.2115
18873TIP3    H178034   5.681   5.118  15.107  1.5387  0.0915  0.0145
18873TIP3    H278035   5.800   5.208  15.085  1.2456  0.4248 -0.2200
18874TIP3   OH278036   3.008   3.054  12.668 -0.7998 -0.5236 -0.6033
18874TIP3    H178037   3.036   3.029  12.580 -0.6440 -2.1660 -0.1295
18874TIP3    H278038   3.083   3.101  12.704 -1.1331  0.8026 -1.5701
18875TIP3   OH278039   3.499   4.067  11.777  0.6258  0.3296 -0.2340
18875TIP3    H178040   3.539   4.131  11.718 -0.2075  0.7255 -0.3902
18875TIP3    H278041   3.407   4.094  11.782  0.6574  0.2715  1.1893
18876TIP3   OH278042   0.265   2.135  15.460 -0.8167  0.6208 -0.7237
18876TIP3    H178043   0.294   2.225  15.446  1.4193 -0.2194 -2.0413
18876TIP3    H278044   0.282   2.091  15.376 -1.1795 -1.1812  0.0995
18877TIP3   OH278045   0.498   0.400  14.448 -0.2894 -0.1819  0.2062
18877TIP3    H178046   0.480   0.447  14.530  0.5418  0.0966  0.2373
18877TIP3    H278047   0.559   0.456  14.401  1.4496 -1.5771  0.6291
18878TIP3   OH278048   1.027   0.810   4.649 -0.2265  0.0076 -0.1157
18878TIP3    H178049   1.045   0.890   4.699  0.4800  0.2520 -0.7342
18878TIP3    H278050   0.934   0.793   4.663 -0.1873  0.4560  0.7203
18879TIP3   OH278051   2.246   2.761   4.789  0.1026 -0.8504  0.0165
18879TIP3    H178052   2.340   2.740   4.790  0.5584  1.0389  0.0000
18879TIP3    H278053   2.211   2.717   4.867  1.0594 -1.2913  0.2173
18880TIP3   OH278054   3.351   2.109   4.528 -0.1897 -0.2104 -0.0669
18880TIP3    H178055   3.402   2.155   4.462 -0.7082 -1.7407 -1.6239
18880TIP3    H278056   3.344   2.170   4.601  1.7442  0.9493 -0.7957
18881TIP3   OH278057   6.310   5.650  17.221  0.2321 -0.4689  0.6066
18881TIP3    H178058   6.316   5.557  17.196 -0.5061 -0.1874 -0.6828
18881TIP3    H278059   6.363   5.695  17.155 -0.0023  0.1020  0.8106
18882TIP3   OH278060   5.808   1.155   5.846  0.0925  0.1835 -0.2739
18882TIP3    H178061   5.817   1.200   5.930  1.3749  0.6421 -0.6367
18882TIP3    H278062   5.723   1.183   5.812 -0.7258 -0.4678  1.1142
18883TIP3   OH278063   5.996   6.638  12.008 -0.3177  0.2138 -0.4866
18883TIP3    H178064   5.956   6.664  12.091 -0.2807  2.0627 -1.0137
18883TIP3    H278065   5.923   6.605  11.956 -0.1687 -2.1083  0.6490
18884TIP3   OH278066   5.782   5.600   5.656 -0.0385  0.0054  0.4136
18884TIP3    H178067   5.732   5.531   5.700 -1.2966  1.1270  0.8151
18884TIP3    H278068   5.845   5.630   5.722 -0.4234  0.1815  0.7001
18885TIP3   OH278069   2.692   3.990   0.870 -0.0179  0.0430  0.6521
18885TIP3    H178070   2.699   3.941   0.788  2.2401 -1.7556  1.8261
18885TIP3    H278071   2.707   4.081   0.844  0.0978 -0.3967 -0.9823
18886TIP3   OH278072   4.439   2.194  12.050 -0.6599  0.2336  0.3271
18886TIP3    H178073   4.394   2.114  12.024  1.1850 -1.3090  1.6375
18886TIP3    H278074   4.474   2.230  11.969 -2.0627  0.1134 -0.3610
18887TIP3   OH278075   3.176   5.548  16.163 -0.0533  0.2171 -0.1004
18887TIP3    H178076   3.162   5.634  16.203 -0.7971  1.1489 -2.2391
18887TIP3    H278077   3.109   5.542  16.096  0.6514 -1.6234 -0.6923
18888TIP3   OH278078   5.967   0.074   3.533 -0.0233 -0.0884 -0.4748
18888TIP3    H178079   5.960   0.157   3.488 -1.0706 -0.0267 -0.2296
18888TIP3    H278080   5.912   0.014   3.482 -0.1517 -0.3489 -0.0370
18889TIP3   OH278081   0.132   6.286   2.427  0.5165 -0.1459 -0.1357
18889TIP3    H178082   0.148   6.292   2.521  3.4926  1.6156 -0.6327
18889TIP3    H278083   0.215   6.256   2.390 -0.7561 -1.3454 -2.1976
18890TIP3   OH278084   1.352   4.147   2.038 -0.2830  0.0335 -0.0950
18890TIP3    H178085   1.368   4.223   1.981  0.4736 -0.8727 -1.1359
18890TIP3    H278086   1.326   4.077   1.977  2.7621 -1.6227  0.3315
18891TIP3   OH278087   2.877   2.499   6.381  0.5132 -0.3212  0.0070
18891TIP3    H178088   2.890   2.512   6.475 -0.6380  1.8213 -0.0624
18891TIP3    H278089   2.848   2.585   6.349  1.7813 -0.7392 -2.4784
18892TIP3   OH278090   0.592   3.901   1.003 -0.3032 -0.0767  0.8829
18892TIP3    H178091   0.546   3.957   0.941  0.6088 -0.2017  0.0564
18892TIP3    H278092   0.524   3.866   1.060 -1.1635  0.0700 -0.0344
18893TIP3   OH278093   0.728   2.889  14.655 -0.2139  0.4155 -0.5099
18893TIP3    H178094   0.721   2.809  14.707  1.6743  0.5253 -0.0133
18893TIP3    H278095   0.808   2.878  14.605  0.1740  2.0547 -0.3022
18894TIP3   OH278096   1.619   1.350   6.692  1.0062  0.1730 -0.0814
18894TIP3    H178097   1.655   1.291   6.627  1.6253 -0.3294  0.6978
18894TIP3    H278098   1.531   1.318   6.709  1.0425 -0.0210 -0.2676
18895TIP3   OH278099   3.700   0.831   3.044 -0.3705  0.5073  0.1107
18895TIP3    H178100   3.756   0.776   3.099 -1.6601 -1.0381 -0.0587
18895TIP3    H278101   3.612   0.820   3.079 -1.0078  0.6253 -1.3567
18896TIP3   OH278102   1.069   6.300   1.017 -0.4835 -0.1136 -0.0936
18896TIP3    H178103   0.980   6.267   1.031 -0.6906 -0.4702 -1.9514
18896TIP3    H278104   1.069   6.387   1.055 -1.4319 -0.3554  0.4896
18897TIP3   OH278105   4.024   2.048  12.852  0.0330  0.1034  0.1844
18897TIP3    H178106   3.975   2.130  12.856 -0.1684 -0.0450  1.0276
18897TIP3    H278107   3.960   1.983  12.823  0.2305  0.2569 -0.6356
18898TIP3   OH278108   6.091   3.237   5.815  0.5707 -0.0203  0.4665
18898TIP3    H178109   6.181   3.210   5.832  1.1205  0.4224 -1.4388
18898TIP3    H278110   6.064   3.283   5.895  1.7002 -0.9599  1.4196
18899TIP3   OH278111   0.849   6.564  14.381  0.3962  0.2057  0.7294
18899TIP3    H178112   0.814   6.640  14.335 -2.0941 -1.8347 -0.9890
18899TIP3    H278113   0.922   6.535  14.325  0.2001  0.2807  0.4298
18900TIP3   OH278114   6.427   4.119  14.483 -0.0855 -0.4847  0.6800
18900TIP3    H178115   6.334   4.131  14.500  0.3600  0.8687  2.5654
18900TIP3    H278116   6.435   4.028  14.452 -2.0835 -0.3555 -0.3393
18901TIP3   OH278117   2.692   6.306   2.937 -0.1022 -0.3316 -0.0300
18901TIP3    H178118   2.732   6.354   2.865  1.4183 -0.9079  0.4039
18901TIP3    H278119   2.607   6.348   2.949  0.4836  1.1310 -0.7705
18902TIP3   OH278120   1.458   0.066  11.928  0.0286 -0.0357 -0.1903
18902TIP3    H178121   1.454   0.161  11.936 -0.5667 -0.1541  1.2778
18902TIP3    H278122   1.524   0.039  11.993 -2.6986 -0.8750  2.4696
18903TIP3   OH278123   2.258   5.381   4.307  0.0582 -0.1681 -0.4397
18903TIP3    H178124   2.193   5.451   4.300 -0.6116 -0.7407 -0.0333
18903TIP3    H278125   2.328   5.408   4.248  0.2809  1.3532  0.4805
18904TIP3   OH278126   4.158   2.308   1.702  0.6798  0.1028 -0.0950
18904TIP3    H178127   4.170   2.338   1.612  1.1545 -0.3278 -0.1787
18904TIP3    H278128   4.068   2.276   1.705  0.1607  1.4946 -0.0107
18905TIP3   OH278129   4.156   1.845   5.835  0.1808  0.1117 -0.2397
18905TIP3    H178130   4.117   1.789   5.903  1.2974  0.2115  0.5228
18905TIP3    H278131   4.083   1.872   5.781 -0.8160  0.3458  1.1729
18906TIP3   OH278132   2.235   2.022  11.336  0.1288 -0.0120 -0.0517
18906TIP3    H178133   2.227   2.089  11.404  0.6855  1.1423 -1.0647
18906TIP3    H278134   2.276   1.947  11.380  3.3067  1.7487  0.3221
18907TIP3   OH278135   3.810   0.412  14.063 -0.2263 -0.2124  0.6677
18907TIP3    H178136   3.810   0.486  14.003  0.0819  0.0520  0.9869
18907TIP3    H278137   3.903   0.397  14.082 -0.2521 -0.9689  0.2576
18908TIP3   OH278138   6.603   5.467   4.020 -0.1521 -0.2878  0.4956
18908TIP3    H178139   6.634   5.389   4.066 -0.7923 -0.8551 -0.0069
18908TIP3    H278140   6.626   5.540   4.078  1.5389 -0.7264  0.4201
18909TIP3   OH278141   0.558   1.387  11.288  0.5302 -0.1019 -0.0846
18909TIP3    H178142   0.622   1.405  11.357  1.2272 -1.4417 -0.3503
18909TIP3    H278143   0.597   1.425  11.209  0.0575  0.8152  0.1089
18910TIP3   OH278144   4.387   1.851  11.652 -0.1019 -0.3081 -0.3336
18910TIP3    H178145   4.424   1.790  11.588 -0.7289  0.4027 -1.4031
18910TIP3    H278146   4.299   1.870  11.619 -0.1595  0.6563  0.3325
18911TIP3   OH278147   3.241   4.046  14.957 -0.2282  0.3282 -0.1048
18911TIP3    H178148   3.189   3.985  14.905  1.2744 -0.1735 -1.0711
18911TIP3    H278149   3.185   4.123  14.966 -1.3395 -0.3956 -0.6589
18912TIP3   OH278150   0.903   2.355   1.692  0.3829  0.5199 -0.0404
18912TIP3    H178151   0.813   2.323   1.697 -0.2714  2.0774 -1.1593
18912TIP3    H278152   0.926   2.378   1.782  0.0368 -0.7851  0.4035
18913TIP3   OH278153   5.026   5.732  14.141  0.3434 -0.4377  0.2229
18913TIP3    H178154   5.031   5.653  14.194  2.3295 -0.8642 -0.5148
18913TIP3    H278155   5.113   5.772  14.150 -1.0420  2.5314  1.8335
18914TIP3   OH278156   3.027   5.492   5.973 -0.8027 -0.3677 -0.1508
18914TIP3    H178157   3.014   5.496   6.067 -1.2382 -0.9655 -0.1805
18914TIP3    H278158   3.111   5.446   5.962  0.7575  2.2687  0.0034
18915TIP3   OH278159   2.834   4.014  16.893  0.7038 -0.0667 -0.6885
18915TIP3    H178160   2.803   4.101  16.867 -1.5192 -0.4993  0.3064
18915TIP3    H278161   2.755   3.960  16.894  1.0844 -0.8600  3.6182
18916TIP3   OH278162   3.458   0.358  16.815  0.3845  0.0674 -0.0523
18916TIP3    H178163   3.467   0.431  16.876 -0.6312 -0.8458  1.2499
18916TIP3    H278164   3.545   0.318  16.811  0.1816 -0.6409  1.8528
18917TIP3   OH278165   4.285   3.388  15.995  0.0339  0.1969  0.3881
18917TIP3    H178166   4.347   3.395  15.923  1.6535 -0.2204  1.6720
18917TIP3    H278167   4.316   3.451  16.060  0.9417 -2.0646  2.3054
18918TIP3   OH278168   5.423   2.679   2.331 -0.0796 -0.0433 -0.0319
18918TIP3    H178169   5.385   2.714   2.250 -2.3001 -3.4849 -0.6730
18918TIP3    H278170   5.511   2.650   2.306  0.2709  1.3160 -0.4636
18919TIP3   OH278171   2.851   1.252   4.552 -0.1014 -0.4162 -0.0710
18919TIP3    H178172   2.790   1.204   4.607 -1.9855  0.7464 -1.0520
18919TIP3    H278173   2.871   1.191   4.480 -1.9535 -0.0549 -0.9570
18920TIP3   OH278174   0.701   0.418   6.088  0.6958  0.2624 -0.1594
18920TIP3    H178175   0.680   0.510   6.072  0.9753  0.6524  1.5380
18920TIP3    H278176   0.729   0.415   6.180  1.4928 -1.3767 -0.4144
18921TIP3   OH278177   5.768   6.539   3.801  0.0022  0.5751  0.2281
18921TIP3    H178178   5.807   6.493   3.876 -0.9267 -1.4390 -0.4406
18921TIP3    H278179   5.827   6.519   3.729 -0.7569 -0.1340 -0.2061
18922TIP3   OH278180   4.418   6.739   5.201  0.9572 -0.2519  0.0731
18922TIP3    H178181   4.472   6.678   5.150 -1.5797 -0.5788 -2.4243
18922TIP3    H278182   4.453   6.826   5.178  1.0992 -0.4984 -0.6768
18923TIP3   OH278183   1.290   5.462  14.536 -0.2935 -0.1656  0.0947
18923TIP3    H178184   1.260   5.396  14.473 -3.5513  0.3332  0.9320
18923TIP3    H278185   1.212   5.482  14.588  1.2753  2.3615  1.6703
18924TIP3   OH278186   4.367   0.837  13.604  0.1938 -0.1222 -0.6909
18924TIP3    H178187   4.298   0.782  13.641  2.1811 -1.0004  2.0027
18924TIP3    H278188   4.397   0.789  13.527 -1.5219 -0.1687 -1.3797
18925TIP3   OH278189   5.556   6.301  15.385 -0.5268  0.1868 -0.1017
18925TIP3    H178190   5.527   6.230  15.328 -2.2104  1.3487 -0.7663
18925TIP3    H278191   5.476   6.340  15.419  0.1147  3.4715 -1.9112
18926TIP3   OH278192   0.569   0.135  11.568 -0.3359 -0.4757  0.0999
18926TIP3    H178193   0.525   0.052  11.587  0.4929 -1.6735 -2.6740
18926TIP3    H278194   0.585   0.132  11.474 -0.0098  2.7511 -0.0472
18927TIP3   OH278195   3.775   5.384  11.218  0.5639  0.2652  0.1871
18927TIP3    H178196   3.813   5.348  11.138  1.7174  1.6759  0.0601
18927TIP3    H278197   3.822   5.467  11.232 -1.0760  1.0769  1.1667
18928TIP3   OH278198   0.823   5.535   1.838  0.6804 -0.3341 -0.1215
18928TIP3    H178199   0.830   5.586   1.757  1.2947 -0.5464 -0.2032
18928TIP3    H278200   0.758   5.468   1.818 -2.1230  1.8817  0.7771
18929TIP3   OH278201   1.839   4.056   2.103 -0.4729 -0.6697 -0.0096
18929TIP3    H178202   1.913   4.025   2.155  0.4324 -1.4348 -1.6848
18929TIP3    H278203   1.863   4.145   2.077 -0.8542 -0.3463  0.7154
18930TIP3   OH278204   6.710   1.746  13.382  0.8796 -0.5108 -0.9142
18930TIP3    H178205   6.754   1.806  13.441  0.8337  0.4236 -1.8013
18930TIP3    H278206   6.781   1.710  13.328  0.6150  1.1040 -2.4398
18931TIP3   OH278207   4.921   2.665  14.723 -0.0207 -0.1377  0.0495
18931TIP3    H178208   4.940   2.612  14.646 -2.1387  0.0304 -0.6562
18931TIP3    H278209   4.840   2.711  14.701  0.8447  2.1274  1.2940
18932TIP3   OH278210   4.704   6.338   3.733  0.8094 -0.3044  0.2500
18932TIP3    H178211   4.630   6.302   3.684  1.0680 -0.4715 -0.0187
18932TIP3    H278212   4.769   6.361   3.666  1.4182 -1.1144  0.5404
18933TIP3   OH278213   1.949   5.091  16.047  0.3500  1.0800 -0.4085
18933TIP3    H178214   1.887   5.132  15.988 -0.5585  2.5766  1.4678
18933TIP3    H278215   1.895   5.045  16.111  1.0976  2.4750  1.3185
18934TIP3   OH278216   0.931   4.828   3.473  0.6008 -0.0581  0.1523
18934TIP3    H178217   0.943   4.913   3.515  2.7421  0.1638 -0.8062
18934TIP3    H278218   0.869   4.845   3.402 -1.2306  0.0388  1.6916
18935TIP3   OH278219   3.783   4.004   5.161 -0.0132  0.4777 -0.3888
18935TIP3    H178220   3.794   4.034   5.071 -1.0224 -0.1809 -0.7502
18935TIP3    H278221   3.693   4.029   5.184 -0.1923 -0.4453 -0.0123
18936TIP3   OH278222   2.437   2.349  15.348  0.3546  0.4302  0.0335
18936TIP3    H178223   2.436   2.377  15.439 -2.1357 -0.0031  0.1987
18936TIP3    H278224   2.529   2.355  15.322  1.2787 -0.2914  2.8154
18937TIP3   OH278225   5.083   3.253  11.749 -0.1523  0.5508 -0.4008
18937TIP3    H178226   5.078   3.305  11.668 -0.1969 -0.1166 -0.8337
18937TIP3    H278227   5.088   3.318  11.819 -1.0377  1.1504 -0.8754
18938TIP3   OH278228   3.880   0.445   1.991 -0.7186 -0.1203 -0.0378
18938TIP3    H178229   3.794   0.426   2.026 -1.0704  1.3507 -0.0350
18938TIP3    H278230   3.864   0.466   1.899 -0.5688  1.4422  0.2686
18939TIP3   OH278231   4.354   4.468   5.699 -0.1161 -0.1223  0.2230
18939TIP3    H178232   4.405   4.426   5.768  0.0539  1.7771  1.3463
18939TIP3    H278233   4.377   4.561   5.707  0.0894  0.1324 -2.5867
18940TIP3   OH278234   4.125   5.961   2.526 -0.2507 -0.0615  0.0027
18940TIP3    H178235   4.043   5.980   2.481 -0.9245  0.5533  1.4290
18940TIP3    H278236   4.121   6.013   2.606  1.5852  0.0594  0.0569
18941TIP3   OH278237   5.710   1.319  14.724 -0.5685 -0.0686  0.0487
18941TIP3    H178238   5.640   1.360  14.673 -0.8085  0.2066  0.5950
18941TIP3    H278239   5.784   1.379  14.716 -0.1444 -0.7235 -1.1453
18942TIP3   OH278240   6.264   3.220  11.568  0.2693 -0.4900 -0.4305
18942TIP3    H178241   6.190   3.180  11.614 -0.2475 -0.5770 -1.3055
18942TIP3    H278242   6.259   3.183  11.480 -0.3635  1.6372 -1.3568
18943TIP3   OH278243   4.055   1.954  17.001  0.1616 -0.0443  0.0761
18943TIP3    H178244   4.018   1.952  17.090  1.5273 -1.2962  0.6580
18943TIP3    H278245   4.113   1.878  16.997  0.0414 -0.0835 -1.9534
18944TIP3   OH278246   4.559   3.520   2.808 -0.1888 -0.2952  0.0022
18944TIP3    H178247   4.493   3.457   2.837 -1.1653 -0.0809 -1.6444
18944TIP3    H278248   4.636   3.467   2.788 -0.2791 -0.7009  0.7056
18945TIP3   OH278249   0.950   1.370  12.251  0.1595 -0.4306  0.0826
18945TIP3    H178250   0.950   1.289  12.200  2.1247 -0.0237 -0.6806
18945TIP3    H278251   0.882   1.424  12.211 -0.4315 -1.2927 -0.0923
18946TIP3   OH278252   5.885   6.357   3.379 -0.9457  0.0324 -0.1494
18946TIP3    H178253   5.923   6.394   3.458 -0.4601 -1.2686  0.2523
18946TIP3    H278254   5.955   6.364   3.313 -0.7054 -0.5225  0.0399
18947TIP3   OH278255   3.434   2.318  12.402  0.7211 -0.0909  0.7277
18947TIP3    H178256   3.509   2.324  12.342 -0.7742  0.9507 -1.1407
18947TIP3    H278257   3.395   2.233  12.384 -1.7980  1.5154 -2.5886
18948TIP3   OH278258   0.556   4.348   4.075  0.2702  0.2002  0.3841
18948TIP3    H178259   0.598   4.263   4.088  2.0755  1.1386  0.9826
18948TIP3    H278260   0.465   4.334   4.102  0.2601 -1.7715 -0.4694
18949TIP3   OH278261   2.555   0.132  15.629  0.0625 -0.4039  0.0555
18949TIP3    H178262   2.630   0.078  15.604 -0.4468 -1.3234  0.4818
18949TIP3    H278263   2.528   0.175  15.548 -0.5866 -2.1271 -0.6866
18950TIP3   OH278264   1.891   0.544   5.733  0.0889 -0.2303  0.5200
18950TIP3    H178265   1.919   0.536   5.642 -1.8250 -0.7315 -0.0922
18950TIP3    H278266   1.814   0.602   5.729 -0.4736 -0.8480  1.6920
18951TIP3   OH278267   0.937   5.394  11.467  0.2714  0.2138  0.3979
18951TIP3    H178268   0.987   5.313  11.456  2.6173  1.5917  0.3025
18951TIP3    H278269   0.950   5.442  11.384 -0.6271  0.9361  0.6543
18952TIP3   OH278270   1.004   2.727  10.841 -0.4877 -0.1561 -0.1367
18952TIP3    H178271   1.066   2.711  10.771 -1.1293 -2.1330 -0.3326
18952TIP3    H278272   0.920   2.741  10.797 -0.8506 -1.1674  0.1995
18953TIP3   OH278273   3.139   6.202   6.071  0.0479 -0.1119 -0.0378
18953TIP3    H178274   3.185   6.167   6.147 -0.2913 -0.2731  0.0976
18953TIP3    H278275   3.099   6.283   6.102 -0.1489 -0.2134 -0.0242
18954TIP3   OH278276   1.546   0.627   1.056  0.5674 -0.5597  0.2536
18954TIP3    H178277   1.632   0.664   1.072  0.6402 -0.0613 -1.1262
18954TIP3    H278278   1.555   0.577   0.975 -0.6946  0.4773 -0.5782
18955TIP3   OH278279   5.769   6.404   1.833 -0.5562  0.0493  0.0167
18955TIP3    H178280   5.684   6.388   1.792 -0.1532  1.7290 -1.6576
18955TIP3    H278281   5.763   6.494   1.865  1.0219  0.7641 -1.4848
18956TIP3   OH278282   5.828   4.384  12.250 -0.4374  0.6884  0.0915
18956TIP3    H178283   5.778   4.465  12.247  0.1890  1.0588 -0.8966
18956TIP3    H278284   5.768   4.320  12.288 -0.8320  1.6753  1.1908
18957TIP3   OH278285   5.955   2.271  14.462  0.1783  0.7100  0.5515
18957TIP3    H178286   5.985   2.301  14.548  0.2544  2.2620  0.0236
18957TIP3    H278287   6.000   2.329  14.400  0.6750 -0.8250 -0.5934
18958TIP3   OH278288   6.061   2.806   5.391 -0.2069 -0.3311 -0.1552
18958TIP3    H178289   6.073   2.736   5.327  0.3422 -0.6892  0.3338
18958TIP3    H278290   6.115   2.780   5.466 -0.9853 -0.0097  0.5333
18959TIP3   OH278291   6.274   0.582   1.068  0.0480  0.2049  0.5004
18959TIP3    H178292   6.201   0.605   1.125 -0.2099 -0.3374  0.4001
18959TIP3    H278293   6.353   0.602   1.118 -0.1734 -0.4529  1.1281
18960TIP3   OH278294   5.382   4.521  12.890  0.3958 -0.6560  0.2959
18960TIP3    H178295   5.301   4.558  12.856  0.4615 -1.8605 -1.2709
18960TIP3    H278296   5.423   4.480  12.814  2.7741  0.4217  0.9240
18961TIP3   OH278297   5.711   5.926  14.533 -0.5381 -0.3154 -0.1676
18961TIP3    H178298   5.785   5.962  14.582 -1.4795 -0.5508  1.4989
18961TIP3    H278299   5.641   5.916  14.598 -1.8788 -0.5851 -1.5870
18962TIP3   OH278300   1.897   2.356   5.004  0.4295 -0.0803  0.2030
18962TIP3    H178301   1.820   2.394   4.963 -0.5201 -1.7777  0.3347
18962TIP3    H278302   1.952   2.327   4.931 -0.1416 -0.9256  0.0935
18963TIP3   OH278303   4.957   5.826  15.450  0.3074  0.0690  0.3764
18963TIP3    H178304   4.886   5.791  15.503  1.3124  0.2848  1.9627
18963TIP3    H278305   5.017   5.752  15.438  0.2968  0.1349 -0.0795
18964TIP3   OH278306   2.952   3.488   3.196  0.0205 -0.5770  0.9438
18964TIP3    H178307   2.956   3.566   3.140  2.7123 -0.4934  1.1089
18964TIP3    H278308   2.859   3.468   3.202 -0.4805 -0.8247 -3.8065
18965TIP3   OH278309   4.681   3.100  16.004  0.0111  0.3298 -0.2453
18965TIP3    H178310   4.768   3.140  16.005  0.7623 -1.1594 -1.6483
18965TIP3    H278311   4.681   3.043  16.081  0.0766  0.7155  0.0431
18966TIP3   OH278312   3.024   0.977   5.471 -0.0749  0.2586 -0.7082
18966TIP3    H178313   3.051   0.932   5.551  0.0863  1.1106 -0.2680
18966TIP3    H278314   2.976   1.054   5.502 -1.2467 -0.1432 -1.4588
18967TIP3   OH278315   4.922   0.989  16.272  0.2796 -0.0407  0.4994
18967TIP3    H178316   4.890   1.064  16.322 -0.4972  0.0539 -0.1244
18967TIP3    H278317   4.999   1.022  16.226  0.4484  0.1294  0.8970
18968TIP3   OH278318   2.034   2.331   3.946  0.4418  0.4568 -0.0979
18968TIP3    H178319   2.122   2.294   3.943  1.5896  2.9405  0.4391
18968TIP3    H278320   2.023   2.375   3.862 -0.2177  0.3740 -0.0617
18969TIP3   OH278321   0.179   0.745   2.366  0.2421 -0.0733  0.0339
18969TIP3    H178322   0.256   0.737   2.310 -1.2292 -0.5991 -2.0149
18969TIP3    H278323   0.163   0.840   2.372  1.5589  0.1044  1.2911
18970TIP3   OH278324   4.833   0.219   1.689  0.0719 -1.0719  0.3642
18970TIP3    H178325   4.865   0.291   1.743 -0.5662 -0.9522  0.5871
18970TIP3    H278326   4.872   0.141   1.727 -0.0107 -0.9430  0.7165
18971TIP3   OH278327   1.573   5.516   2.143 -0.0400  0.6155  0.0206
18971TIP3    H178328   1.478   5.499   2.143  0.1269 -0.3824  0.9446
18971TIP3    H278329   1.580   5.610   2.129 -1.1729  0.7021 -0.0805
18972TIP3   OH278330   4.419   1.570  13.501 -0.0925  0.3651 -0.1952
18972TIP3    H178331   4.351   1.637  13.497  0.1227  0.6398  0.6227
18972TIP3    H278332   4.378   1.497  13.548  0.8633  1.4046  2.4061
18973TIP3   OH278333   6.097   4.475  15.043  0.4048 -0.1319  0.8200
18973TIP3    H178334   6.181   4.521  15.044  1.1265 -1.4067  1.2320
18973TIP3    H278335   6.039   4.532  15.094  1.1974  0.4418  1.1229
18974TIP3   OH278336   1.106   1.341   2.108  0.4365  0.1932 -0.4230
18974TIP3    H178337   1.057   1.421   2.090  0.1411  0.5183  1.5480
18974TIP3    H278338   1.085   1.282   2.036 -2.6879  0.4216  0.1600
18975TIP3   OH278339   2.816   5.184  12.173  0.1136  0.8262  0.2579
18975TIP3    H178340   2.899   5.225  12.147  1.0212 -0.9341  0.1933
18975TIP3    H278341   2.817   5.185  12.268  0.2388  0.7705  0.2576
18976TIP3   OH278342   1.307   4.649  14.984  0.4314 -0.1461  0.4775
18976TIP3    H178343   1.329   4.566  15.027  1.8752  0.0764  0.2250
18976TIP3    H278344   1.315   4.630  14.891 -2.6536 -0.6179  0.2172
18977TIP3   OH278345   4.664   3.513  15.429  0.6726 -0.0368 -0.5661
18977TIP3    H178346   4.728   3.521  15.500  0.0874 -0.1447 -0.0151
18977TIP3    H278347   4.612   3.436  15.452  0.2641  0.1244 -0.9362
18978TIP3   OH278348   0.954   1.260   3.089  0.1118 -0.4610 -0.0482
18978TIP3    H178349   1.018   1.258   3.161  0.9232  0.6339 -0.7127
18978TIP3    H278350   0.938   1.167   3.070  1.8868 -0.7928 -0.1770
18979TIP3   OH278351   5.172   1.292   3.375  0.7625 -0.4584 -0.3016
18979TIP3    H178352   5.150   1.254   3.460 -0.3171  0.6064 -0.0770
18979TIP3    H278353   5.267   1.299   3.376  0.7095  0.5244  1.2832
18980TIP3   OH278354   1.196   2.086  16.832  0.4037  0.3211 -0.2101
18980TIP3    H178355   1.260   2.148  16.868 -0.0282  1.4478 -1.3214
18980TIP3    H278356   1.179   2.118  16.744  0.3329 -1.5424 -0.8996
18981TIP3   OH278357   0.508   1.269  13.132  0.2933 -0.1676 -0.5053
18981TIP3    H178358   0.447   1.287  13.204 -0.5368  1.8170 -1.6023
18981TIP3    H278359   0.472   1.191  13.089 -0.0062 -0.5233  0.3627
18982TIP3   OH278360   1.702   4.081  16.625 -0.3904 -0.0902 -0.0797
18982TIP3    H178361   1.719   4.167  16.587  1.4627 -0.8449 -1.1481
18982TIP3    H278362   1.782   4.059  16.673 -0.4595 -1.5414 -0.5532
18983TIP3   OH278363   0.588   2.075   2.971  0.6637 -0.8831  0.0704
18983TIP3    H178364   0.661   2.021   3.002  0.6748 -1.1320 -0.3723
18983TIP3    H278365   0.631   2.146   2.922  0.5942 -1.6027 -1.0880
18984TIP3   OH278366   1.110   1.641   5.267  0.1097 -0.6036 -0.2651
18984TIP3    H178367   1.056   1.719   5.260 -0.7992 -1.1418  0.5480
18984TIP3    H278368   1.093   1.607   5.355  2.2174 -0.4833  0.2475
18985TIP3   OH278369   2.996   5.896  10.902 -0.3910 -0.3429  0.1737
18985TIP3    H178370   3.044   5.975  10.931  0.0680 -0.6836  0.3609
18985TIP3    H278371   2.905   5.923  10.899 -0.8177 -0.8089  4.0204
18986TIP3   OH278372   2.866   5.895  11.704 -0.0255 -0.3809 -0.0155
18986TIP3    H178373   2.867   5.809  11.747 -1.1539 -0.1456  0.5093
18986TIP3    H278374   2.878   5.875  11.611 -2.5776 -1.3487 -0.2130
18987TIP3   OH278375   5.693   5.350  14.318 -0.1022  0.2144  0.6577
18987TIP3    H178376   5.640   5.302  14.382  2.4201 -0.2689  2.5235
18987TIP3    H278377   5.640   5.425  14.294 -2.7843 -1.6619  0.2211
18988TIP3   OH278378   5.395   2.263   1.149 -0.1840 -0.0109 -0.2071
18988TIP3    H178379   5.416   2.334   1.210 -0.3644  0.7341 -0.9790
18988TIP3    H278380   5.300   2.252   1.157 -0.1293 -0.3100  0.0553
18989TIP3   OH278381   0.417   5.618  13.549 -0.4809  0.2452  0.1774
18989TIP3    H178382   0.477   5.635  13.476  2.1653  2.5725  2.6422
18989TIP3    H278383   0.331   5.642  13.515  0.6224  1.3033 -2.1274
18990TIP3   OH278384   0.605   1.115   0.659  0.3453  0.5451 -0.1853
18990TIP3    H178385   0.515   1.130   0.690  0.6550  2.1756 -0.0028
18990TIP3    H278386   0.609   1.160   0.575  0.4791 -1.0921 -1.0950
18991TIP3   OH278387   4.061   2.842   5.910  0.1050 -0.5606 -0.5708
18991TIP3    H178388   4.149   2.804   5.907  0.3567  0.0535 -1.6086
18991TIP3    H278389   4.007   2.775   5.952  0.6900 -1.7661 -1.6821
18992TIP3   OH278390   4.554   2.246  12.517  0.5284 -0.6149  0.4678
18992TIP3    H178391   4.542   2.191  12.440  1.5408  0.3342 -0.3991
18992TIP3    H278392   4.647   2.268  12.516 -0.0168  1.9332  0.2025
18993TIP3   OH278393   3.306   3.701  12.561 -0.0695  0.0286 -0.4803
18993TIP3    H178394   3.383   3.648  12.537  1.3177  0.7171  2.0827
18993TIP3    H278395   3.259   3.647  12.624  0.2627  0.9596  0.6124
18994TIP3   OH278396   6.710   3.153  13.953  1.2651  0.3112  0.6268
18994TIP3    H178397   6.667   3.168  13.869  1.6609 -0.1623  0.3396
18994TIP3    H278398   6.791   3.108  13.932  1.7535  0.8896  1.1955
18995TIP3   OH278399   4.778   4.361  14.595  0.5152 -0.4637 -0.0291
18995TIP3    H178400   4.773   4.375  14.689  1.0962  2.6102 -0.3272
18995TIP3    H278401   4.704   4.304  14.574 -0.3016 -0.2575  2.1234
18996TIP3   OH278402   6.326   6.131   5.011 -0.4401 -0.2382  0.1365
18996TIP3    H178403   6.235   6.133   4.979 -0.0221  1.2138 -1.0908
18996TIP3    H278404   6.359   6.046   4.982 -1.7124 -1.3259  1.6472
18997TIP3   OH278405   6.258   6.416  14.773 -0.4663 -0.0392 -0.6246
18997TIP3    H178406   6.352   6.422  14.758 -0.4452  1.1921 -0.1572
18997TIP3    H278407   6.222   6.495  14.732 -1.2598 -0.3850 -0.6076
18998TIP3   OH278408   1.540   1.241   5.909  0.4792 -0.2692  0.1429
18998TIP3    H178409   1.578   1.159   5.942 -0.5525 -0.6759  0.3369
18998TIP3    H278410   1.557   1.237   5.814  1.0376 -0.3772  0.2406
18999TIP3   OH278411   0.285   3.076   3.821 -0.3490 -0.0900  0.0397
18999TIP3    H178412   0.285   3.080   3.726  0.1927  0.1512  0.0451
18999TIP3    H278413   0.243   3.158   3.848 -0.3610 -0.0858  0.0087
19000TIP3   OH278414   2.230   3.222  16.788 -0.3608 -0.1695  0.3649
19000TIP3    H178415   2.179   3.293  16.827  1.2736  0.1077  2.0975
19000TIP3    H278416   2.317   3.230  16.825  0.9451 -0.8223 -2.2900
19001TIP3   OH278417   5.784   6.493   5.399  0.2457 -0.1225  0.0224
19001TIP3    H178418   5.872   6.499   5.435  0.2828 -0.3129 -0.0378
19001TIP3    H278419   5.792   6.525   5.309  0.2038  0.0996  0.0960
19002TIP3   OH278420   1.378   1.169  14.285  0.2497  0.2785 -0.2943
19002TIP3    H178421   1.355   1.245  14.338 -0.8041 -0.4640  0.3787
19002TIP3    H278422   1.310   1.165  14.218 -1.6987 -1.8427  1.6028
19003TIP3   OH278423   5.469   5.220   3.789  0.0225  0.4693  0.0460
19003TIP3    H178424   5.388   5.173   3.805  0.3689  0.0622  0.6175
19003TIP3    H278425   5.535   5.173   3.840  0.4769  1.2418  0.1832
19004TIP3   OH278426   3.748   4.197  13.699 -0.3254 -0.0867  0.1159
19004TIP3    H178427   3.821   4.188  13.760 -0.0012 -1.0317 -0.4039
19004TIP3    H278428   3.724   4.290  13.704  1.2233  0.3480 -0.0844
19005TIP3   OH278429   0.885   5.947  16.841 -0.7429  0.1447 -0.1440
19005TIP3    H178430   0.903   5.932  16.748 -1.1770 -1.9846  0.0714
19005TIP3    H278431   0.799   5.988  16.843 -1.6860 -1.7161 -0.6345
19006TIP3   OH278432   5.389   3.767  16.923 -0.1118  0.2668  0.0379
19006TIP3    H178433   5.297   3.741  16.934 -0.3094  1.3307  1.0527
19006TIP3    H278434   5.439   3.688  16.943 -0.7302  0.3646  2.1246
19007TIP3   OH278435   3.252   1.014  17.205  0.6095 -0.0213  0.3842
19007TIP3    H178436   3.309   0.980  17.137  1.2223  2.1030 -0.2652
19007TIP3    H278437   3.214   1.093  17.167 -1.4869 -0.4693  1.4119
19008TIP3   OH278438   0.791   1.195  14.285 -0.2185 -0.5251  0.4112
19008TIP3    H178439   0.847   1.240  14.349 -1.0142  0.2433  0.5974
19008TIP3    H278440   0.802   1.102  14.305  2.5447 -0.5819 -0.8724
19009TIP3   OH278441   1.012   0.480   0.789  0.2886  0.1063 -0.2174
19009TIP3    H178442   1.059   0.562   0.804 -0.2991  0.8105 -1.9990
19009TIP3    H278443   1.059   0.439   0.716  0.6204 -1.2230  0.6942
19010TIP3   OH278444   2.967   5.260   6.198 -0.1874 -0.5173  0.0880
19010TIP3    H178445   2.937   5.293   6.282  0.4339  0.6952 -0.1447
19010TIP3    H278446   2.891   5.215   6.161 -1.0840  0.6718  0.4223
19011TIP3   OH278447   3.043   4.213   2.970 -0.0379  0.2084  0.4858
19011TIP3    H178448   3.135   4.239   2.972  0.8049 -2.4422 -0.3654
19011TIP3    H278449   3.044   4.118   2.981 -2.8228  0.2761  2.2929
19012TIP3   OH278450   1.277   2.403  13.405  0.5103 -0.5601  0.0677
19012TIP3    H178451   1.249   2.461  13.476  1.9272  1.6269 -1.0893
19012TIP3    H278452   1.372   2.396  13.415  0.6761 -0.5855 -1.3191
19013TIP3   OH278453   1.828   3.048  15.175  0.1484 -0.1038 -0.0407
19013TIP3    H178454   1.845   3.068  15.267  1.4744  2.1101 -0.7014
19013TIP3    H278455   1.883   3.110  15.126  1.1396 -2.5874 -2.3498
19014TIP3   OH278456   6.333   4.760   6.629 -0.1258  0.5536  0.1213
19014TIP3    H178457   6.374   4.774   6.715  0.5217 -0.5267 -0.0006
19014TIP3    H278458   6.399   4.713   6.578 -1.5568 -1.3985 -0.0275
19015TIP3   OH278459   3.019   0.081  11.043 -0.5175  0.7768 -0.3947
19015TIP3    H178460   3.107   0.088  11.081  0.2487  2.0826 -2.2770
19015TIP3    H278461   3.018  -0.004  11.000 -1.1321 -0.3856  1.7760
19016TIP3   OH278462   2.326   4.894   5.725  0.5252 -0.0065 -0.1299
19016TIP3    H178463   2.300   4.816   5.774 -0.4160 -0.1937 -0.8984
19016TIP3    H278464   2.414   4.874   5.694  0.9906 -0.0303  1.1530
19017TIP3   OH278465   3.232   3.322   3.296  0.3935 -0.5693 -0.2156
19017TIP3    H178466   3.255   3.404   3.340  0.4366  0.2034 -1.6171
19017TIP3    H278467   3.316   3.281   3.276  0.3717 -1.0012  0.5072
19018TIP3   OH278468   3.951   6.230  10.790  0.4583  0.6171 -0.4196
19018TIP3    H178469   3.938   6.267  10.703  1.1027  0.6675 -0.4998
19018TIP3    H278470   3.958   6.136  10.776 -4.3179 -0.0792  0.0862
19019TIP3   OH278471   1.983   6.392   3.189  0.1558 -0.5008 -0.3978
19019TIP3    H178472   1.960   6.366   3.100  0.0839 -1.5472 -0.0870
19019TIP3    H278473   1.909   6.445   3.219  0.4515  0.3687 -1.1568
19020TIP3   OH278474   5.582   0.166   2.299  0.2411 -0.6103 -0.2621
19020TIP3    H178475   5.531   0.185   2.378 -0.0047 -1.3451 -0.2350
19020TIP3    H278476   5.672   0.187   2.322 -0.1038  1.3555 -0.5202
19021TIP3   OH278477   5.812   1.820   5.534  0.4619  0.2290  0.5329
19021TIP3    H178478   5.795   1.850   5.444  1.7484 -0.3263  0.0792
19021TIP3    H278479   5.769   1.885   5.589 -1.9889 -0.4321 -0.4801
19022TIP3   OH278480   4.127   1.150   1.432  0.9529 -0.9753  0.0505
19022TIP3    H178481   4.058   1.086   1.444 -0.1052 -0.1125 -1.1747
19022TIP3    H278482   4.108   1.191   1.348  1.3143  1.2423  0.9611
19023TIP3   OH278483   0.739   5.767   5.818  0.3636 -0.3113  0.3978
19023TIP3    H178484   0.824   5.795   5.783  0.3515 -2.5872 -1.6816
19023TIP3    H278485   0.699   5.848   5.850  2.2050  1.2638 -1.0388
19024TIP3   OH278486   0.338   0.828  17.049  0.4143 -0.2920 -0.2221
19024TIP3    H178487   0.252   0.786  17.046 -0.1679  0.7339  1.0858
19024TIP3    H278488   0.319   0.922  17.051  1.5389 -0.0592  0.4570
19025TIP3   OH278489   1.772   3.755   0.212 -0.0854  0.2059 -0.0140
19025TIP3    H178490   1.799   3.670   0.246 -0.0111  0.0122 -0.5502
19025TIP3    H278491   1.839   3.778   0.147 -0.2336  0.5613 -0.0468
19026TIP3   OH278492   1.386   1.099  15.254  0.3381 -0.2403 -0.2350
19026TIP3    H178493   1.440   1.177  15.242 -0.1229  0.0412 -0.4966
19026TIP3    H278494   1.307   1.131  15.297  1.4493 -1.0459  2.6011
19027TIP3   OH278495   3.932   1.357   5.532 -0.3393 -0.0174 -0.0900
19027TIP3    H178496   3.850   1.347   5.484 -0.0602 -0.5993 -0.4566
19027TIP3    H278497   4.000   1.341   5.467  0.0425 -1.8513  0.6974
19028TIP3   OH278498   1.958   6.508  14.930 -0.2301  0.4117  0.5872
19028TIP3    H178499   1.942   6.511  15.024  0.0347  0.0700  0.6425
19028TIP3    H278500   1.933   6.419  14.904  1.0701  0.0230  0.5863
19029TIP3   OH278501   6.665   3.395  16.100 -0.2517 -0.1279 -0.3037
19029TIP3    H178502   6.656   3.414  16.007 -2.4043  1.3770  0.1482
19029TIP3    H278503   6.620   3.311  16.112 -3.8283  1.6345 -0.0604
19030TIP3   OH278504   1.518   4.135   4.562 -0.2171 -0.1298  0.0157
19030TIP3    H178505   1.540   4.154   4.653  0.8033 -0.9234 -0.0489
19030TIP3    H278506   1.514   4.040   4.557  2.5891 -0.2854 -1.3487
19031TIP3   OH278507   6.472   5.348   5.108  0.0912 -0.6216 -0.2799
19031TIP3    H178508   6.387   5.368   5.146  1.1340  1.3564  1.1784
19031TIP3    H278509   6.463   5.258   5.075 -2.0636 -1.0279  1.2213
19032TIP3   OH278510   4.326   5.682  11.630  0.6242 -0.0713 -0.0368
19032TIP3    H178511   4.422   5.680  11.626  0.6064  0.2687 -1.5151
19032TIP3    H278512   4.298   5.606  11.578  0.1135  0.5724 -0.7304
19033TIP3   OH278513   6.483   1.607  12.839  0.2536  0.1467 -0.0692
19033TIP3    H178514   6.448   1.519  12.852 -1.0147  0.9965  3.8631
19033TIP3    H278515   6.476   1.622  12.745 -1.2966 -3.2214 -0.6483
19034TIP3   OH278516   6.353   1.521  16.460 -0.5843  0.1850  0.2908
19034TIP3    H178517   6.420   1.496  16.524  0.3565 -0.2453 -0.8188
19034TIP3    H278518   6.360   1.455  16.391 -0.2153  1.6859 -1.1988
19035TIP3   OH278519   2.567   2.531   3.714  0.0016  0.3325 -0.4614
19035TIP3    H178520   2.578   2.521   3.808  0.3904 -1.3174 -0.6467
19035TIP3    H278521   2.651   2.565   3.684  0.8791 -1.7310 -0.5081
19036TIP3   OH278522   4.649   4.820   5.740 -0.2636 -0.0401  0.6109
19036TIP3    H178523   4.676   4.769   5.663  1.0867  0.0579  0.9980
19036TIP3    H278524   4.577   4.770   5.778  0.3824 -1.1494  0.4173
19037TIP3   OH278525   1.035   5.051   0.976  0.0499 -0.0503 -0.0855
19037TIP3    H178526   1.119   5.059   1.022  0.0438  0.4369 -0.1567
19037TIP3    H278527   1.056   5.000   0.898  0.3153  0.2056 -0.1826
19038TIP3   OH278528   3.276   1.198   0.875 -0.4600 -0.1378 -0.0217
19038TIP3    H178529   3.326   1.237   0.802 -1.9518  0.5187 -0.7378
19038TIP3    H278530   3.330   1.125   0.904  1.1167  0.7780 -0.4861
19039TIP3   OH278531   6.475   0.993   2.396  0.4432  0.0225  0.0253
19039TIP3    H178532   6.475   0.923   2.461  2.0172 -0.0585 -0.0390
19039TIP3    H278533   6.432   0.954   2.320 -0.9755 -0.0365  0.8225
19040TIP3   OH278534   4.266   5.366   3.008  0.0631  0.3394  0.6926
19040TIP3    H178535   4.203   5.438   3.010  0.2838  0.5748 -0.3229
19040TIP3    H278536   4.227   5.301   2.951  1.2943  1.0642 -1.0908
19041TIP3   OH278537   5.971   6.400   2.613  0.2620  0.0498  0.0896
19041TIP3    H178538   6.002   6.312   2.636 -0.2747  0.1534  1.2792
19041TIP3    H278539   5.978   6.450   2.694 -3.0300  0.0694  0.4775
19042TIP3   OH278540   1.173   4.082  14.546 -0.2362  0.4007 -0.0568
19042TIP3    H178541   1.088   4.037  14.552  0.2517 -0.6139 -0.4482
19042TIP3    H278542   1.187   4.118  14.633 -2.1313  2.6322 -0.5824
19043TIP3   OH278543   4.051   0.736   1.093  0.4789  0.0879 -0.1651
19043TIP3    H178544   4.105   0.815   1.088 -0.9451  1.0318 -1.2250
19043TIP3    H278545   4.110   0.666   1.065  0.4500  1.5169 -4.5779
19044TIP3   OH278546   3.526   1.252   0.304 -0.1818  0.1287 -0.3764
19044TIP3    H178547   3.590   1.215   0.243 -0.3159  1.3380 -1.2949
19044TIP3    H278548   3.525   1.191   0.378 -0.4686 -1.6985 -1.8310
19045TIP3   OH278549   4.010   3.469  16.085 -0.4917  0.1772 -0.1032
19045TIP3    H178550   4.056   3.490  16.004 -1.3241 -0.4439 -0.7645
19045TIP3    H278551   4.007   3.373  16.086 -0.9282  0.1916  0.4040
19046TIP3   OH278552   5.285   1.670   1.898 -0.0903  0.0771 -0.8436
19046TIP3    H178553   5.262   1.739   1.836  0.8250  0.3180 -0.9312
19046TIP3    H278554   5.354   1.709   1.952  0.6063 -0.8579 -1.0506
19047TIP3   OH278555   4.553   1.774   5.220  0.0037  0.1538 -0.4555
19047TIP3    H178556   4.637   1.810   5.249  0.1305  0.0295 -0.6599
19047TIP3    H278557   4.566   1.755   5.127  0.6709 -2.4073  0.0780
19048TIP3   OH278558   5.640   0.882  10.947 -0.0392  0.1924 -0.4928
19048TIP3    H178559   5.618   0.838  11.030 -0.8864 -0.6678 -1.1521
19048TIP3    H278560   5.727   0.849  10.924  1.3346  2.2857  1.2494
19049TIP3   OH278561   3.735   6.349   2.408  0.8385  0.7132  0.2187
19049TIP3    H178562   3.790   6.306   2.343  0.5052 -2.2851  1.7401
19049TIP3    H278563   3.796   6.379   2.475  0.9243  1.0991 -0.0271
19050TIP3   OH278564   2.830   4.757   0.854 -0.2455 -0.5347 -0.0171
19050TIP3    H178565   2.901   4.784   0.912 -1.2796 -1.5370  1.7992
19050TIP3    H278566   2.829   4.823   0.785  0.6623  1.0556  1.4219
19051TIP3   OH278567   2.163   5.046   0.075  0.3049  0.4979 -0.2352
19051TIP3    H178568   2.072   5.017   0.072  0.5172 -0.6416  1.7843
19051TIP3    H278569   2.167   5.123   0.018 -2.3690  1.7414  1.0768
19052TIP3   OH278570   3.051   5.474  13.723  0.5587  0.0142  0.2465
19052TIP3    H178571   2.967   5.479  13.769  0.1496 -1.1013 -0.3246
19052TIP3    H278572   3.112   5.440  13.788 -0.2240 -2.4624 -0.1885
19053TIP3   OH278573   5.612   5.803  17.282 -0.0209  0.1931 -1.1023
19053TIP3    H178574   5.581   5.778  17.195 -0.7189 -0.8874 -0.5697
19053TIP3    H278575   5.624   5.720  17.328  0.1466  0.7510 -0.0999
19054TIP3   OH278576   3.061   6.220   2.623  0.1529 -0.0267  0.2035
19054TIP3    H178577   2.973   6.239   2.656 -0.1060  0.1071 -0.5487
19054TIP3    H278578   3.111   6.197   2.701  0.1707  2.4961  1.0155
19055TIP3   OH278579   1.527   3.964  12.129 -0.4331 -0.1691  0.4048
19055TIP3    H178580   1.442   3.976  12.173 -0.0272  0.7667  0.9670
19055TIP3    H278581   1.554   3.876  12.155 -1.7188 -0.9233 -0.6646
19056TIP3   OH278582   5.781   5.674   1.594 -0.4427 -0.6599 -0.1501
19056TIP3    H178583   5.752   5.664   1.503 -0.2437  1.7395 -0.5480
19056TIP3    H278584   5.876   5.686   1.588 -0.4859 -0.0184  0.3025
19057TIP3   OH278585   5.498   6.563  12.462 -0.0860 -0.1709  0.3130
19057TIP3    H178586   5.584   6.589  12.493 -0.3272 -0.6604  1.4377
19057TIP3    H278587   5.507   6.556  12.367  1.6713 -2.2269  0.5636
19058TIP3   OH278588   6.384   5.813   4.093 -0.1099 -0.0162 -0.1712
19058TIP3    H178589   6.361   5.768   4.012  0.4222 -0.7115  0.0421
19058TIP3    H278590   6.461   5.765   4.125 -0.7856 -0.2718  1.1471
19059TIP3   OH278591   0.635   5.345   1.773  0.1128 -0.2388 -0.3798
19059TIP3    H178592   0.560   5.343   1.713  0.4150  1.8571 -0.9172
19059TIP3    H278593   0.603   5.304   1.853 -1.5630  0.4041 -0.6756
19060TIP3   OH278594   6.150   1.147  13.153 -0.1610  0.5152  0.0423
19060TIP3    H178595   6.081   1.113  13.096 -0.4608  0.2343  0.5577
19060TIP3    H278596   6.214   1.076  13.159  0.0801  0.7037 -0.2816
19061TIP3   OH278597   2.269   4.494  16.838 -0.2859 -0.4343  0.2410
19061TIP3    H178598   2.342   4.465  16.893  0.7831  3.6990  1.3430
19061TIP3    H278599   2.200   4.519  16.900 -0.2855  1.2755 -0.3972
19062TIP3   OH278600   1.557   6.597   6.279 -0.4716 -0.2090 -0.1393
19062TIP3    H178601   1.591   6.607   6.368 -2.7208  2.0020  0.5912
19062TIP3    H278602   1.632   6.614   6.222  0.8136 -0.8176  1.3078
19063TIP3   OH278603   6.087   3.356   2.843  0.0853  0.2308  0.3692
19063TIP3    H178604   6.067   3.448   2.827  1.4450  0.2412 -1.6723
19063TIP3    H278605   6.053   3.339   2.931 -0.5959  2.5427  0.6249
19064TIP3   OH278606   1.741   3.798   3.230 -0.0752 -0.2787 -0.2095
19064TIP3    H178607   1.703   3.742   3.298 -0.1266  0.4305  0.3708
19064TIP3    H278608   1.834   3.804   3.254 -0.3647  1.2028  0.7346
19065TIP3   OH278609   5.506   6.059  11.127  0.1527 -0.4122  0.1018
19065TIP3    H178610   5.586   6.055  11.074  1.0981  0.0055  1.4260
19065TIP3    H278611   5.443   6.105  11.072  0.7544 -0.9318 -1.0591
19066TIP3   OH278612   2.328   3.023   5.340  0.4657  0.3276 -0.1463
19066TIP3    H178613   2.419   3.043   5.362  0.4236 -1.9431  2.5810
19066TIP3    H278614   2.333   2.948   5.281  0.3697  0.4219 -0.2746
19067TIP3   OH278615   0.863   1.804   4.378 -0.0564  0.5338 -0.0617
19067TIP3    H178616   0.879   1.827   4.470  0.7320  1.0508 -0.3169
19067TIP3    H278617   0.805   1.873   4.346  0.6561  1.0453 -0.2740
19068TIP3   OH278618   2.336   5.763   4.360  0.2301  0.3254 -0.2669
19068TIP3    H178619   2.350   5.727   4.272 -1.0129  3.9102 -2.1457
19068TIP3    H278620   2.241   5.763   4.370  0.3794 -0.7625  1.5063
19069TIP3   OH278621   1.374   4.173  13.224 -0.4257  0.6783 -0.0903
19069TIP3    H178622   1.334   4.217  13.299  2.4148  0.8727  1.4753
19069TIP3    H278623   1.410   4.244  13.170 -0.8669  0.4681 -0.6703
19070TIP3   OH278624   1.796   5.777  12.398  0.5513 -0.6717  0.7192
19070TIP3    H178625   1.756   5.788  12.312  0.5137 -1.1194  0.6766
19070TIP3    H278626   1.749   5.703  12.437  1.7672 -1.6460  0.4044
19071TIP3   OH278627   3.859   0.310   4.504 -0.0722  0.2080  0.0633
19071TIP3    H178628   3.823   0.352   4.426 -0.0883  2.1552  1.0535
19071TIP3    H278629   3.953   0.327   4.499  0.0904 -0.6983 -0.1114
19072TIP3   OH278630   3.611   4.439  12.760  1.2202 -0.1799  0.1666
19072TIP3    H178631   3.652   4.401  12.682  1.0078  0.2262 -0.1477
19072TIP3    H278632   3.673   4.422  12.831  2.3077  1.1069 -0.4383
19073TIP3   OH278633   0.090   4.987   6.321 -0.0588  0.6876  0.0062
19073TIP3    H178634   0.014   4.944   6.361 -0.8688  2.5095  0.5101
19073TIP3    H278635   0.102   5.067   6.372  1.9027  0.6884 -0.3961
19074TIP3   OH278636   1.312   3.332  12.222 -0.2402  0.1128  0.4869
19074TIP3    H178637   1.288   3.394  12.154 -0.9803  1.6926  2.1228
19074TIP3    H278638   1.408   3.330  12.219 -0.2624 -0.8415 -1.3914
19075TIP3   OH278639   4.369   3.080  16.001  0.2215  0.1339  0.3218
19075TIP3    H178640   4.464   3.074  15.997  0.1081 -1.2037 -1.3708
19075TIP3    H278641   4.352   3.154  16.060  2.2848  0.5028  0.5219
19076TIP3   OH278642   3.417   2.947  13.483 -0.5898  0.1185  0.2071
19076TIP3    H178643   3.503   2.910  13.465 -0.8857 -0.5693  0.2096
19076TIP3    H278644   3.422   3.036  13.447  0.3000  0.2811  0.6992
19077TIP3   OH278645   0.305   2.332  16.685 -0.5609  0.3119  0.0153
19077TIP3    H178646   0.240   2.366  16.746  0.3807  2.8238 -0.2574
19077TIP3    H278647   0.279   2.242  16.670 -1.6203 -0.0120  3.0521
19078TIP3   OH278648   4.136   3.917   1.145 -0.2568  0.1643  0.1138
19078TIP3    H178649   4.048   3.942   1.117  0.3506  1.2566 -0.9286
19078TIP3    H278650   4.136   3.822   1.142 -1.3352  0.1521 -0.0738
19079TIP3   OH278651   6.533   6.296   6.303 -0.4242  0.4054  0.7803
19079TIP3    H178652   6.557   6.212   6.263  0.3206  1.2610 -0.6665
19079TIP3    H278653   6.597   6.307   6.374 -0.9304 -0.5265  1.4018
19080TIP3   OH278654   4.156   1.890  16.207 -0.0663  0.2857 -0.1747
19080TIP3    H178655   4.160   1.834  16.285 -0.5142  0.9778  0.3636
19080TIP3    H278656   4.100   1.963  16.233  1.8840  1.9019 -0.2364
19081TIP3   OH278657   0.074   2.008   3.771 -0.0580 -0.4650  0.1655
19081TIP3    H178658   0.113   1.977   3.689 -0.0078 -1.7151  0.6354
19081TIP3    H278659   0.149   2.028   3.827 -0.0071  2.8700 -0.8853
19082TIP3   OH278660   0.698   3.656   2.103 -0.5355 -0.2572 -0.0439
19082TIP3    H178661   0.603   3.648   2.116 -0.7605 -0.1848 -1.4735
19082TIP3    H278662   0.707   3.707   2.023  0.6890 -1.5320 -0.7745
19083TIP3   OH278663   1.177   6.378   2.916 -0.3415  0.1364 -0.0227
19083TIP3    H178664   1.167   6.283   2.912 -0.2850  0.1665 -2.2114
19083TIP3    H278665   1.097   6.412   2.876 -1.0083  1.0921  2.0085
19084TIP3   OH278666   1.124   0.665  10.995 -0.2888 -0.1278  0.0569
19084TIP3    H178667   1.083   0.693  10.913  3.5776  0.4016 -1.9091
19084TIP3    H278668   1.127   0.570  10.990  1.1277 -0.0542 -1.1633
19085TIP3   OH278669   1.465   5.213  11.450  0.1810  0.0903  0.3462
19085TIP3    H178670   1.559   5.202  11.461  0.1097 -0.0084  0.8710
19085TIP3    H278671   1.426   5.175  11.529 -0.1705  2.2297  1.2753
19086TIP3   OH278672   0.139   4.265  13.178  0.6676  0.4121 -0.4627
19086TIP3    H178673   0.169   4.252  13.088  0.0241  0.0621 -0.6336
19086TIP3    H278674   0.155   4.357  13.196  2.1028  0.1768 -0.4461
19087TIP3   OH278675   0.535   3.479  12.963  0.1285  0.3251 -0.1664
19087TIP3    H178676   0.569   3.568  12.972  1.5762 -0.1752 -0.4085
19087TIP3    H278677   0.607   3.423  12.989 -1.6301 -0.8007  2.7210
19088TIP3   OH278678   6.645   5.001   0.275 -0.0609  0.1985  0.3274
19088TIP3    H178679   6.666   4.908   0.280 -0.0347  0.1676 -0.2659
19088TIP3    H278680   6.635   5.018   0.181  1.7998  1.2009  0.2514
19089TIP3   OH278681   0.650   4.260   5.433  0.4051 -0.4799 -0.4419
19089TIP3    H178682   0.660   4.254   5.528  1.7348 -0.5860 -0.5750
19089TIP3    H278683   0.633   4.170   5.405  0.9118 -0.5937 -0.3931
19090TIP3   OH278684   2.814   5.449  13.124  0.5403 -0.4172 -0.3515
19090TIP3    H178685   2.845   5.363  13.150  1.0805  0.3902  1.9644
19090TIP3    H278686   2.724   5.454  13.156  0.4242 -0.1956 -0.6943
19091TIP3   OH278687   3.527   4.414  13.309 -0.0704 -0.3068 -0.0084
19091TIP3    H178688   3.464   4.404  13.381 -0.5412  1.4812 -0.1167
19091TIP3    H278689   3.611   4.428  13.353 -0.0509 -0.9249  0.1612
19092TIP3   OH278690   2.384   4.858  14.216  0.0108  0.8719  0.2982
19092TIP3    H178691   2.308   4.898  14.258 -0.4804 -0.6792  0.9464
19092TIP3    H278692   2.393   4.772  14.258  1.8176  0.8089 -0.1254
19093TIP3   OH278693   3.020   2.168   2.365 -0.0156  0.1856  0.1012
19093TIP3    H178694   3.042   2.260   2.349  0.1395  0.2245  0.5173
19093TIP3    H278695   3.104   2.127   2.385  0.1388 -0.3555 -1.4585
19094TIP3   OH278696   5.877   4.010  15.660  0.1498 -0.2912 -0.0501
19094TIP3    H178697   5.887   4.086  15.602 -3.1687  0.2938 -0.0211
19094TIP3    H278698   5.815   3.953  15.615  0.6310 -1.8110  1.1118
19095TIP3   OH278699   2.510   1.704  13.379  0.5789 -0.1339 -0.0048
19095TIP3    H178700   2.451   1.778  13.393  0.5232 -0.5383  2.2627
19095TIP3    H278701   2.463   1.647  13.319 -0.3646  0.6137  0.0005
19096TIP3   OH278702   5.609   0.706  10.513  0.0952  0.9533  0.3833
19096TIP3    H178703   5.586   0.616  10.491 -0.6273  0.7956  1.6655
19096TIP3    H278704   5.685   0.697  10.571 -0.7712  1.0754  1.5617
19097TIP3   OH278705   4.244   2.382  13.547 -0.5398  0.0072  0.0803
19097TIP3    H178706   4.331   2.365  13.512 -0.6123  1.9465 -1.2082
19097TIP3    H278707   4.184   2.353  13.478 -0.9386 -0.9380  0.7905
19098TIP3   OH278708   5.328   1.879   4.893 -0.1977 -0.1307  0.2939
19098TIP3    H178709   5.373   1.869   4.977  1.5261 -0.8497 -0.6572
19098TIP3    H278710   5.258   1.814   4.895 -0.0481 -0.2714  1.1001
19099TIP3   OH278711   5.433   1.100  10.988  0.0707 -0.1872 -0.4624
19099TIP3    H178712   5.521   1.078  11.019 -0.1508 -0.7879 -0.2494
19099TIP3    H278713   5.376   1.035  11.029 -0.7580  1.3949  1.0134
19100TIP3   OH278714   0.344   6.408   5.066  0.2174 -0.4913 -0.4267
19100TIP3    H178715   0.331   6.332   5.009  0.1684 -0.0946 -0.9470
19100TIP3    H278716   0.344   6.483   5.007  2.2576 -0.2287 -0.1590
19101TIP3   OH278717   1.541   6.072  12.704 -0.5472  0.1759 -0.1911
19101TIP3    H178718   1.571   6.151  12.749  0.5084 -1.1630  1.5767
19101TIP3    H278719   1.487   6.026  12.769  0.1019 -1.2804 -0.6383
19102TIP3   OH278720   4.111   3.340  17.257 -0.1213  0.2975 -0.0398
19102TIP3    H178721   4.131   3.433  17.271  0.6043  0.3291 -1.1366
19102TIP3    H278722   4.018   3.332  17.274  0.1731  0.8244  2.0508
19103TIP3   OH278723   0.886   3.378  17.182  0.3451  0.3879  0.4519
19103TIP3    H178724   0.804   3.415  17.216 -0.3066  0.4480 -1.0708
19103TIP3    H278725   0.872   3.284  17.182  0.2729  0.3960  0.2361
19104TIP3   OH278726   0.662   1.744   6.023  0.2739  0.0359 -0.1601
19104TIP3    H178727   0.747   1.779   5.996 -0.3067  1.9457  0.2819
19104TIP3    H278728   0.673   1.722   6.115  0.7949 -1.5163 -0.5753
19105TIP3   OH278729   4.488   5.791  15.148  0.0637 -0.6780 -0.6679
19105TIP3    H178730   4.570   5.792  15.196 -0.6672 -0.0593  0.6299
19105TIP3    H278731   4.426   5.748  15.208 -0.8996  0.1974 -1.0057
19106TIP3   OH278732   4.285   2.937   3.985 -0.7539  0.5714  0.3984
19106TIP3    H178733   4.242   2.852   3.983 -0.8877  0.5900  1.7012
19106TIP3    H278734   4.378   2.917   3.970 -1.1344  0.5271 -2.3245
19107TIP3   OH278735   3.085   6.507  11.173  0.4763 -0.3754 -0.5362
19107TIP3    H178736   3.083   6.561  11.095 -2.1956 -1.3355 -1.2412
19107TIP3    H278737   3.170   6.463  11.170  1.8755  2.1798 -0.9775
19108TIP3   OH278738   5.201   6.716   3.879  0.0370 -0.0337  0.2872
19108TIP3    H178739   5.179   6.809   3.877  0.5368  0.1365  1.5681
19108TIP3    H278740   5.230   6.701   3.969 -1.8555 -1.8404  0.6692
19109TIP3   OH278741   1.377   2.851   0.998  0.0611 -0.1218  0.1393
19109TIP3    H178742   1.384   2.900   0.916 -0.2018  0.3239  0.3869
19109TIP3    H278743   1.288   2.867   1.029  0.1718 -0.2600  0.5364
19110TIP3   OH278744   4.245   5.600   3.944 -0.5181 -0.3628  0.1115
19110TIP3    H178745   4.206   5.545   4.012 -0.0312 -1.3396 -0.3857
19110TIP3    H278746   4.293   5.539   3.888 -1.8604  0.2427 -1.7947
19111TIP3   OH278747   6.487   5.062  15.645 -0.2429 -0.4578 -0.0921
19111TIP3    H178748   6.538   4.981  15.643 -0.5239 -0.6467  0.2859
19111TIP3    H278749   6.540   5.121  15.699 -1.2155 -1.2183  1.8090
19112TIP3   OH278750   1.119   5.884   5.966 -0.1529  0.1237 -0.3223
19112TIP3    H178751   1.193   5.938   5.939  0.3117 -0.2913  0.0948
19112TIP3    H278752   1.052   5.900   5.899  0.7894 -0.5149 -1.4747
19113TIP3   OH278753   3.965   2.218  13.111  0.0632  0.0283 -0.4986
19113TIP3    H178754   4.016   2.269  13.047 -0.2178  0.2377 -0.5580
19113TIP3    H278755   3.878   2.211  13.072 -0.4823  1.2538  0.4262
19114TIP3   OH278756   6.073   6.624   1.687 -0.5312 -0.1489 -0.4879
19114TIP3    H178757   6.094   6.555   1.749  0.4106 -0.5707 -1.2491
19114TIP3    H278758   6.137   6.693   1.704 -0.6943  0.0174 -0.5449
19115TIP3   OH278759   1.878   5.269   0.715 -0.0446  0.2269  0.1168
19115TIP3    H178760   1.786   5.246   0.706 -0.2855  1.1927 -0.0722
19115TIP3    H278761   1.904   5.296   0.626  1.1365 -2.4283 -0.4493
19116TIP3   OH278762   4.265   3.619  14.990 -0.0819 -0.3809 -0.2243
19116TIP3    H178763   4.290   3.684  14.925 -0.7349 -0.1171 -0.2247
19116TIP3    H278764   4.206   3.559  14.943 -1.5214  0.4987  0.4018
19117TIP3   OH278765   1.103   3.416   0.668 -0.0043 -0.4915  0.0219
19117TIP3    H178766   1.188   3.380   0.693 -0.7090 -1.9676  0.3801
19117TIP3    H278767   1.122   3.507   0.644  1.3003 -0.0902  2.3375
19118TIP3   OH278768   5.491   1.731  12.971 -0.6654  0.1323 -0.4753
19118TIP3    H178769   5.555   1.683  12.919 -0.3567  0.3290 -0.2819
19118TIP3    H278770   5.492   1.820  12.934 -0.1083  0.3951  0.1564
19119TIP3   OH278771   5.891   3.249   2.217 -0.2305 -0.2152  0.0699
19119TIP3    H178772   5.848   3.250   2.131 -1.7214  0.6918  0.7861
19119TIP3    H278773   5.838   3.308   2.271 -1.4371 -3.3657  2.6457
19120TIP3   OH278774   5.109   4.013   3.066 -0.7224  0.0528 -0.2025
19120TIP3    H178775   5.192   4.035   3.024 -0.0775 -0.9855  0.4820
19120TIP3    H278776   5.134   3.969   3.148 -1.9458  0.2037  0.2728
19121TIP3   OH278777   2.480   2.382   3.083 -0.0421  0.0194  0.1904
19121TIP3    H178778   2.481   2.431   3.165  0.2313  0.3301  0.0049
19121TIP3    H278779   2.528   2.302   3.102 -0.1999 -0.0280  0.4010
19122TIP3   OH278780   0.125   5.123  12.703 -0.1135 -0.2585 -0.0925
19122TIP3    H178781   0.068   5.087  12.634  1.0137 -0.4605 -0.9424
19122TIP3    H278782   0.136   5.215  12.678 -0.4110 -0.1096  0.3161
19123TIP3   OH278783   3.760   3.163   1.143 -0.8400 -0.2738 -0.2751
19123TIP3    H178784   3.770   3.086   1.087  0.0505  0.0969 -0.6545
19123TIP3    H278785   3.710   3.132   1.218  1.1080 -1.7224  0.5017
19124TIP3   OH278786   6.207   5.282  11.443 -0.1260 -0.2443 -0.4445
19124TIP3    H178787   6.233   5.237  11.523 -0.7009 -1.3866 -0.8785
19124TIP3    H278788   6.184   5.371  11.471 -0.8934 -0.8012  0.7491
19125TIP3   OH278789   1.084   6.019   1.712  0.2765  0.6614 -0.0891
19125TIP3    H178790   1.059   6.110   1.728  1.0646  0.9528 -0.4988
19125TIP3    H278791   1.029   5.969   1.772 -0.6521  1.3521 -0.3393
19126TIP3   OH278792   6.617   2.307   3.606  1.0696  0.5098  0.2273
19126TIP3    H178793   6.619   2.331   3.513 -1.5141 -0.1110 -0.0517
19126TIP3    H278794   6.576   2.220   3.608 -1.3546  1.5802  2.0760
19127TIP3   OH278795   3.766   6.531  17.373  0.4524 -0.2626  0.0512
19127TIP3    H178796   3.785   6.624  17.362  1.1764 -0.3298  0.6824
19127TIP3    H278797   3.834   6.499  17.432 -1.4214 -0.5591  2.2191
19128TIP3   OH278798   6.631   1.480  15.106  0.0638 -0.0075 -0.0595
19128TIP3    H178799   6.660   1.519  15.024  0.0511  0.0028 -0.0594
19128TIP3    H278800   6.537   1.468  15.095 -0.2929  1.7907  0.6876
19129TIP3   OH278801   3.366   0.118  15.238 -0.4332 -0.4702 -0.2074
19129TIP3    H178802   3.366   0.078  15.324  0.0254 -0.6974 -0.3114
19129TIP3    H278803   3.338   0.209  15.253  0.3045 -0.3192  0.2694
19130TIP3   OH278804   0.166   0.650  15.201  0.0337 -0.3451 -0.4948
19130TIP3    H178805   0.144   0.667  15.110 -0.2445  1.0749 -0.1997
19130TIP3    H278806   0.257   0.620  15.199 -0.0608 -0.5870 -1.2559
19131TIP3   OH278807   2.788   5.943  16.167  0.1268 -0.0448  0.6686
19131TIP3    H178808   2.697   5.937  16.139  0.7228  0.2502 -1.4708
19131TIP3    H278809   2.786   6.003  16.242 -1.2439  1.2991 -0.3763
19132TIP3   OH278810   2.429   6.060   6.444  0.1896 -0.5820 -0.4834
19132TIP3    H178811   2.482   6.134   6.474 -0.5767 -0.3302  0.2988
19132TIP3    H278812   2.358   6.101   6.395 -0.1324 -0.8057 -0.2075
19133TIP3   OH278813   4.926   1.374  14.356 -0.1227 -0.3920  0.1144
19133TIP3    H178814   5.009   1.328  14.370  0.2951  0.6913  1.5024
19133TIP3    H278815   4.869   1.310  14.314  0.3612 -2.2698  2.1371
19134TIP3   OH278816   6.219   5.880  12.756 -0.2149  0.2222 -0.2277
19134TIP3    H178817   6.256   5.947  12.699 -1.1251  0.4619 -0.5656
19134TIP3    H278818   6.246   5.906  12.844  2.2052 -0.8219 -0.6082
19135TIP3   OH278819   1.666   1.901   0.927  0.1466 -1.0029  0.0683
19135TIP3    H178820   1.622   1.859   0.853 -1.3263 -0.3303  0.5189
19135TIP3    H278821   1.612   1.878   1.003 -0.3247  1.0732  0.4242
19136TIP3   OH278822   2.645   6.053   0.351 -0.2841  0.1172  0.5852
19136TIP3    H178823   2.654   6.017   0.263  0.6724  1.2608  0.1921
19136TIP3    H278824   2.556   6.088   0.353 -0.2799  0.1772  0.0249
19137TIP3   OH278825   4.125   6.157  16.580 -0.2819 -0.3246  0.4459
19137TIP3    H178826   4.072   6.233  16.605 -1.2284 -0.9060  0.2694
19137TIP3    H278827   4.063   6.084  16.580  0.1269 -0.7215 -1.5077
19138TIP3   OH278828   2.215   4.284  13.971 -0.0770  0.0847  0.4381
19138TIP3    H178829   2.128   4.294  14.010  0.0043  1.0850  0.4114
19138TIP3    H278830   2.274   4.328  14.032  0.0175  1.9012 -0.8462
19139TIP3   OH278831   6.096   5.877   2.305  0.6417 -0.2112 -0.3164
19139TIP3    H178832   6.139   5.839   2.382  1.9309  0.5818 -0.6101
19139TIP3    H278833   6.168   5.914   2.254 -0.1698 -0.9139 -2.0318
19140TIP3   OH278834   2.932   6.422   1.398 -0.2857 -0.2453  0.2128
19140TIP3    H178835   3.017   6.377   1.406 -0.3090 -0.6052 -1.1801
19140TIP3    H278836   2.867   6.354   1.414 -0.3104 -0.4169 -0.5680
19141TIP3   OH278837   3.916   1.986   0.107 -0.0097 -0.3488 -0.3563
19141TIP3    H178838   3.893   2.079   0.111  1.2420 -0.0383 -0.0460
19141TIP3    H278839   3.840   1.941   0.145 -0.5734  0.5476 -0.3930
19142TIP3   OH278840   0.926   2.631  17.076 -0.5764 -0.2203 -0.9868
19142TIP3    H178841   1.000   2.651  17.133 -0.5691 -1.4182 -0.5406
19142TIP3    H278842   0.933   2.537  17.059 -2.1539 -0.4202 -0.6954
19143TIP3   OH278843   3.925   6.190   1.527  0.3266 -0.4940 -0.1658
19143TIP3    H178844   3.909   6.160   1.437  1.4171 -0.6252 -0.3339
19143TIP3    H278845   3.841   6.178   1.571  0.1331 -1.7369 -0.8030
19144TIP3   OH278846   1.750   1.655  15.290 -0.3129 -0.0450  0.0737
19144TIP3    H178847   1.748   1.741  15.331  0.3596 -0.6125  1.3357
19144TIP3    H278848   1.811   1.604  15.343  1.1655 -0.6269 -2.0094
19145TIP3   OH278849   0.811   2.866  17.407  0.7474 -0.2914 -0.5095
19145TIP3    H178850   0.836   2.915  17.329 -0.5332 -0.1782 -0.8658
19145TIP3    H278851   0.717   2.879  17.415  0.9537  0.2521  1.4522
19146TIP3   OH278852   4.345   0.096   1.515  0.4961 -0.5288  0.3411
19146TIP3    H178853   4.370   0.007   1.538  1.6701 -0.9198 -2.0765
19146TIP3    H278854   4.414   0.151   1.552  1.0065 -0.8693 -0.0921
19147TIP3   OH278855   1.354   0.241   5.008 -0.7400 -0.4973  0.5540
19147TIP3    H178856   1.368   0.314   5.068 -1.0247  0.0988 -0.0977
19147TIP3    H278857   1.269   0.206   5.032 -0.5535 -0.7000  0.9425
19148TIP3   OH278858   0.752   3.442  12.434  0.4447  0.1438 -0.0569
19148TIP3    H178859   0.674   3.422  12.383  0.4750  1.3618 -0.6145
19148TIP3    H278860   0.809   3.366  12.422 -0.7555 -0.9165  0.6196
19149TIP3   OH278861   1.796   4.557   3.321 -0.3034 -0.3783 -0.0590
19149TIP3    H178862   1.791   4.504   3.401 -0.3777  0.0746  0.2365
19149TIP3    H278863   1.890   4.564   3.303 -0.2953 -0.7015 -0.1664
19150TIP3   OH278864   0.074   5.978   0.270  0.1247  0.1338  0.4617
19150TIP3    H178865   0.038   5.965   0.358  0.2461 -1.1855  0.3406
19150TIP3    H278866  -0.003   5.976   0.213  0.1763 -0.5473  0.4055
19151TIP3   OH278867   1.817   5.322   1.791  0.0236 -0.1144  0.1424
19151TIP3    H178868   1.735   5.368   1.774  1.0907  2.1107  0.6370
19151TIP3    H278869   1.815   5.300   1.884 -0.3008 -0.7231 -0.0020
19152TIP3   OH278870   3.089   3.837  13.923  0.3904  0.4255  0.2091
19152TIP3    H178871   3.178   3.817  13.894  0.2824  0.3710 -0.0860
19152TIP3    H278872   3.058   3.754  13.960 -0.1594 -0.0498 -1.2772
19153TIP3   OH278873   1.095   1.771  10.786 -0.3290  0.5758 -0.2697
19153TIP3    H178874   1.072   1.728  10.704  0.4962 -0.0281 -0.1936
19153TIP3    H278875   1.184   1.804  10.772 -0.9353  2.2920 -0.3356
19154TIP3   OH278876   5.600   4.254   3.314  0.0506 -0.2934  0.1707
19154TIP3    H178877   5.611   4.313   3.240 -0.5304 -0.1507  0.1970
19154TIP3    H278878   5.686   4.212   3.324 -0.1260 -1.0395 -1.2030
19155TIP3   OH278879   2.610   2.888   0.808 -0.5356 -0.7451 -0.1812
19155TIP3    H178880   2.627   2.795   0.824 -1.1007 -1.1052 -1.5064
19155TIP3    H278881   2.612   2.928   0.895  3.4184 -1.3091  0.1578
19156TIP3   OH278882   3.008   2.580   4.953  0.0612 -0.6848 -0.1082
19156TIP3    H178883   3.059   2.563   5.032  1.6924  0.4770 -0.8484
19156TIP3    H278884   2.990   2.493   4.917  4.8693 -1.3391 -1.7882
19157TIP3   OH278885   2.889   3.182  10.928 -0.5196 -0.0152 -0.2500
19157TIP3    H178886   2.906   3.088  10.928 -2.3358 -0.3928  0.7506
19157TIP3    H278887   2.921   3.213  11.013  0.6491  0.4216 -0.8254
19158TIP3   OH278888   4.486   3.157  10.779  0.0195 -0.0278 -0.0836
19158TIP3    H178889   4.505   3.084  10.720  1.2539  0.7031 -0.6316
19158TIP3    H278890   4.543   3.143  10.855  1.5367  1.2076 -0.9284
19159TIP3   OH278891   1.364   3.287  12.646  0.3328  0.2501  0.4986
19159TIP3    H178892   1.378   3.193  12.639  0.4686  0.2779  0.3808
19159TIP3    H278893   1.441   3.319  12.693 -0.1238  0.1901  1.3162
19160TIP3   OH278894   2.217   2.173   5.364  0.4787 -0.0178  0.4300
19160TIP3    H178895   2.186   2.126   5.441 -0.2591  0.1061  0.2194
19160TIP3    H278896   2.228   2.263   5.394  0.9139 -0.1214  0.5788
19161TIP3   OH278897   2.264   1.429  11.055  0.6171  0.4594  0.1016
19161TIP3    H178898   2.352   1.392  11.060  0.6008  0.4818  0.6647
19161TIP3    H278899   2.210   1.358  11.021  0.8742  0.4854 -0.3636
19162TIP3   OH278900   1.712   2.030   2.783  0.1610  0.0418  0.7395
19162TIP3    H178901   1.713   2.104   2.722  1.5044  1.6192  2.5794
19162TIP3    H278902   1.797   1.988   2.773  0.3965  0.3153  1.5043
19163TIP3   OH278903   0.636   5.811  16.918 -0.6626  0.0853 -0.5440
19163TIP3    H178904   0.670   5.900  16.909 -0.2110 -0.0848 -0.5099
19163TIP3    H278905   0.544   5.824  16.942 -0.6712  0.5419 -0.8031
19164TIP3   OH278906   3.524   6.028  12.147 -0.5981  0.1729  0.2244
19164TIP3    H178907   3.580   5.991  12.079 -1.0343  1.6307 -0.9645
19164TIP3    H278908   3.474   6.097  12.103 -0.3877  1.6361  2.1565
19165TIP3   OH278909   3.219   6.591  12.391 -0.0085 -0.1282 -0.3067
19165TIP3    H178910   3.161   6.642  12.336  0.4620  0.2630 -0.4519
19165TIP3    H278911   3.170   6.578  12.472 -0.5257 -0.3198 -0.6476
19166TIP3   OH278912   2.416   5.691   3.319 -0.4965  0.2536  0.3265
19166TIP3    H178913   2.423   5.721   3.409  0.8654 -0.5026  0.5002
19166TIP3    H278914   2.434   5.769   3.266 -0.2856  0.4750  0.7196
19167TIP3   OH278915   0.050   3.682  16.856  0.0031  0.5792 -0.0463
19167TIP3    H178916   0.023   3.636  16.777  2.6243  4.0959 -3.3866
19167TIP3    H278917   0.105   3.620  16.903 -1.4770 -1.5721 -1.0149
19168TIP3   OH278918   5.600   1.732   1.293 -0.2872  0.0135  0.1295
19168TIP3    H178919   5.648   1.678   1.355 -0.7250 -1.5620 -0.8471
19168TIP3    H278920   5.643   1.716   1.208 -0.9367  0.5693 -0.3197
19169TIP3   OH278921   2.333   0.619  16.884 -0.0160  0.0811  0.0006
19169TIP3    H178922   2.401   0.570  16.929 -0.2890 -0.9383 -0.6718
19169TIP3    H278923   2.374   0.704  16.864  1.5856 -1.0201 -1.6738
19170TIP3   OH278924   4.768   0.104   4.315  0.2822  0.3596  0.1146
19170TIP3    H178925   4.810   0.127   4.232 -0.3874 -0.4842 -0.4723
19170TIP3    H278926   4.836   0.118   4.381  1.0818  0.2432 -0.6691
19171TIP3   OH278927   6.115   3.806   3.724 -0.0978  0.1342 -0.4531
19171TIP3    H178928   6.087   3.833   3.637  0.7316 -0.8856 -1.0653
19171TIP3    H278929   6.131   3.888   3.771 -1.2301  0.7067 -1.0100
19172TIP3   OH278930   6.168   4.849   0.765 -0.4031  0.4832  0.1411
19172TIP3    H178931   6.216   4.837   0.683 -1.9570  4.0892 -1.5222
19172TIP3    H278932   6.229   4.897   0.822  0.3902 -1.3110  0.8593
19173TIP3   OH278933   6.246   0.398  12.610  0.1336  0.0106  0.2896
19173TIP3    H178934   6.282   0.421  12.695 -0.7466  0.0672  0.6544
19173TIP3    H278935   6.181   0.466  12.592  1.9684  1.4230 -1.5487
19174TIP3   OH278936   4.472   1.858   1.994 -0.0605  0.7477 -0.1058
19174TIP3    H178937   4.404   1.891   1.935  1.1867  1.3580 -1.2618
19174TIP3    H278938   4.554   1.886   1.954  0.8499  1.5030  2.1006
19175TIP3   OH278939   0.304   4.834  16.461  0.4758  0.0434  0.1387
19175TIP3    H178940   0.243   4.898  16.497  1.0305  0.0892  1.0352
19175TIP3    H278941   0.289   4.755  16.513 -1.4517 -1.1884 -2.0916
19176TIP3   OH278942   5.164   5.179  16.515  0.3701  0.2281 -0.2213
19176TIP3    H178943   5.075   5.153  16.541  0.4110 -0.3431 -0.6184
19176TIP3    H278944   5.181   5.128  16.436  0.8726  0.6967 -0.4189
19177TIP3   OH278945   2.645   2.174   5.964  0.3409  0.0775 -0.6000
19177TIP3    H178946   2.572   2.175   5.901 -0.1640 -1.1335 -0.0680
19177TIP3    H278947   2.643   2.086   6.001  1.8626  0.1521 -0.2988
19178TIP3   OH278948   2.605   0.136  15.185  0.3149  0.1059  0.2468
19178TIP3    H178949   2.604   0.217  15.133 -0.5449 -1.2072 -1.9063
19178TIP3    H278950   2.697   0.126  15.211  1.1339  0.0419 -2.3731
19179TIP3   OH278951   3.215   5.127  12.469 -0.6703  0.2656  0.0101
19179TIP3    H178952   3.223   5.134  12.565  0.0470  0.1142 -0.0342
19179TIP3    H278953   3.121   5.117  12.454 -0.6625 -1.2762  0.8124
19180TIP3   OH278954   1.267   4.980  11.373 -0.0359  0.0989  0.3222
19180TIP3    H178955   1.359   4.972  11.350 -0.4321 -2.5243 -0.7766
19180TIP3    H278956   1.225   4.906  11.327 -2.6517  1.1467  0.8668
19181TIP3   OH278957   6.428   4.936  17.091  0.1139 -0.3082 -0.3673
19181TIP3    H178958   6.485   4.890  17.029  0.9583 -2.9274  2.1558
19181TIP3    H278959   6.485   4.999  17.134  0.4838 -1.0305  0.2354
19182TIP3   OH278960   5.397   4.056   5.414  0.0106  0.2607 -0.0725
19182TIP3    H178961   5.400   3.990   5.483 -0.8417 -1.0855 -1.2569
19182TIP3    H278962   5.313   4.100   5.426 -0.5239 -0.5385 -0.6908
19183TIP3   OH278963   1.901   0.353  11.450 -0.1001 -0.3458 -0.4589
19183TIP3    H178964   1.877   0.444  11.468 -1.5066 -0.3686 -1.9751
19183TIP3    H278965   1.988   0.343  11.487  0.2166  1.7051 -0.5508
19184TIP3   OH278966   3.828   1.153  16.412 -0.2311 -0.0183 -0.2023
19184TIP3    H178967   3.747   1.133  16.364 -1.6235 -2.0304  2.6843
19184TIP3    H278968   3.798   1.179  16.500  2.1980 -2.9365  1.6882
19185TIP3   OH278969   4.504   6.616   2.648  0.1747  0.5679  0.1803
19185TIP3    H178970   4.566   6.654   2.711 -0.0461  3.4393 -1.1894
19185TIP3    H278971   4.421   6.658   2.669  0.2405  2.2044 -2.3950
19186TIP3   OH278972   2.421   3.553  12.305 -0.3381  0.4880  0.3838
19186TIP3    H178973   2.471   3.549  12.386 -1.1447 -1.4058  0.8570
19186TIP3    H278974   2.460   3.625  12.255  2.8692 -0.9035  0.6724
19187TIP3   OH278975   5.041   6.523  14.121 -0.2922  0.1270  0.2078
19187TIP3    H178976   4.982   6.459  14.162  0.0470 -0.0539  0.4266
19187TIP3    H278977   5.127   6.482  14.125 -0.1696  0.3349 -0.2233
19188TIP3   OH278978   6.245   5.017   6.482 -0.1508 -0.2622 -0.0906
19188TIP3    H178979   6.199   4.978   6.407 -2.8789 -0.0784  1.3372
19188TIP3    H278980   6.277   4.942   6.532  0.8239 -0.4073 -0.8943
19189TIP3   OH278981   1.251   1.788  15.076  0.5454 -0.3571 -0.4771
19189TIP3    H178982   1.256   1.738  15.158  2.2387 -0.2078 -0.4445
19189TIP3    H278983   1.330   1.762  15.028 -1.3558 -1.9323 -2.9828
19190TIP3   OH278984   1.059   6.257   6.505  0.1988 -0.3998 -0.2674
19190TIP3    H178985   1.110   6.319   6.453  1.4647 -0.9035  0.3105
19190TIP3    H278986   1.108   6.175   6.499 -0.3183 -0.8019  0.6632
19191TIP3   OH278987   1.568   6.349   0.048  0.3234  0.2625 -0.8727
19191TIP3    H178988   1.542   6.306  -0.033 -0.2102  1.0728 -1.1431
19191TIP3    H278989   1.525   6.299   0.117 -1.4471  1.1506 -1.2657
19192TIP3   OH278990   1.060   2.790   3.181 -0.1541  0.1951  0.0099
19192TIP3    H178991   0.983   2.837   3.212  0.4646  1.5243 -0.3411
19192TIP3    H278992   1.027   2.726   3.119 -0.8914  1.6470 -1.1576
19193TIP3   OH278993   3.434   2.838  11.777 -0.1286 -0.1425 -0.8155
19193TIP3    H178994   3.488   2.793  11.712 -0.1907 -1.1320 -0.1986
19193TIP3    H278995   3.493   2.901  11.818  0.0145  0.2161 -1.5437
19194TIP3   OH278996   0.360   1.385   5.339 -0.2406 -0.1973 -0.1443
19194TIP3    H178997   0.371   1.384   5.435 -1.9053  1.3304  0.1292
19194TIP3    H278998   0.401   1.467   5.311 -2.0582  0.7192 -0.3237
19195TIP3   OH278999   5.020   1.938  13.367  0.3854  0.1794 -0.2654
19195TIP3    H179000   5.095   1.933  13.307 -0.4541 -1.5622 -1.2505
19195TIP3    H279001   4.946   1.961  13.310 -0.2439 -0.4746  0.2761
19196TIP3   OH279002   0.124   3.680   3.171  0.0091 -0.4371  0.3651
19196TIP3    H179003   0.159   3.729   3.097  0.9243  1.4268  1.9311
19196TIP3    H279004   0.039   3.721   3.188  1.3358  1.7218  2.5057
19197TIP3   OH279005   4.527   3.552   5.784 -0.3710 -0.0623 -0.1650
19197TIP3    H179006   4.576   3.470   5.789 -0.4255 -0.0227  1.3901
19197TIP3    H279007   4.436   3.527   5.799 -0.4138  0.2546  0.1074
19198TIP3   OH279008   5.302   2.753  17.295  0.4039  0.3666 -0.6222
19198TIP3    H179009   5.212   2.781  17.311 -0.2282 -1.1607 -1.3230
19198TIP3    H279010   5.315   2.767  17.201  0.9547  0.6732 -0.5100
19199TIP3   OH279011   6.089   1.084   5.861 -0.1708 -0.8034  0.0892
19199TIP3    H179012   6.158   1.048   5.805 -0.1807 -1.0447  0.2302
19199TIP3    H279013   6.015   1.097   5.802  0.0532 -0.3677 -0.1019
19200TIP3   OH279014   0.143   4.730   0.680 -0.7912  0.1865  0.1974
19200TIP3    H179015   0.148   4.817   0.718 -1.3097  0.6525 -0.7534
19200TIP3    H279016   0.172   4.742   0.589  0.7652 -0.9466  0.5021
19201TIP3   OH279017   6.095   5.575   2.030  0.1774  0.0594 -0.1875
19201TIP3    H179018   6.033   5.503   2.035  1.4974 -1.0312  1.7706
19201TIP3    H279019   6.050   5.642   1.978 -1.1831 -2.0294 -1.9042
19202TIP3   OH279020   4.706   3.195  14.581  0.1529  0.3911  0.2104
19202TIP3    H179021   4.778   3.257  14.591  1.1956 -0.9176  1.1468
19202TIP3    H279022   4.660   3.197  14.665 -0.4646  0.6632 -0.1255
19203TIP3   OH279023   4.867   2.476   0.317  0.3546  0.5879 -0.0264
19203TIP3    H179024   4.807   2.413   0.356  0.0204 -0.3115 -1.8734
19203TIP3    H279025   4.898   2.529   0.390 -0.4244 -0.8302  1.3784
19204TIP3   OH279026   0.738   1.107   1.887 -0.3605  0.4359  0.8061
19204TIP3    H179027   0.669   1.076   1.947 -0.3471  0.3222  0.7633
19204TIP3    H279028   0.696   1.108   1.801  0.0595 -0.9120  0.5530
19205TIP3   OH279029   4.986   2.251  15.319  0.1388 -0.7883  0.5468
19205TIP3    H179030   5.016   2.266  15.229 -0.2131 -0.7774  0.4286
19205TIP3    H279031   4.906   2.303  15.326 -0.0585 -1.1185  0.7360
19206TIP3   OH279032   4.328   4.827   2.567 -0.0968  0.5291 -0.1617
19206TIP3    H179033   4.328   4.737   2.533  1.8306  0.4749 -0.1443
19206TIP3    H279034   4.421   4.850   2.574 -0.4203  1.4183  2.7470
19207TIP3   OH279035   2.120   5.594  10.127  0.1189 -0.1761  0.1022
19207TIP3    H179036   2.136   5.565  10.217 -0.5628 -0.9440 -0.0205
19207TIP3    H279037   2.188   5.550  10.076  1.7264  1.7366  0.4622
19208TIP3   OH279038   2.238   3.925  11.651 -0.3872 -0.0038 -0.1302
19208TIP3    H179039   2.203   3.848  11.606  1.2227 -0.6512 -0.3527
19208TIP3    H279040   2.201   3.922  11.739 -0.0310 -1.2817 -0.0118
19209TIP3   OH279041   2.718   0.418  14.024 -0.0828 -0.1381 -0.3631
19209TIP3    H179042   2.695   0.509  14.006 -1.8951 -0.3492  0.6614
19209TIP3    H279043   2.743   0.418  14.117 -0.9461 -0.8280 -0.1265
19210TIP3   OH279044   2.438   4.300  15.398  0.2215  0.0002  0.2924
19210TIP3    H179045   2.409   4.342  15.479 -0.4018 -0.8720  0.5442
19210TIP3    H279046   2.522   4.342  15.377  1.6170 -1.3693  2.6899
19211TIP3   OH279047   4.765   3.793   1.136 -0.0398 -0.0424 -0.3154
19211TIP3    H179048   4.811   3.872   1.105  0.6077 -0.5326 -0.6515
19211TIP3    H279049   4.720   3.760   1.058 -0.1313 -0.1229 -0.2280
19212TIP3   OH279050   0.929   4.321   3.512  0.2883  0.6280  0.0922
19212TIP3    H179051   0.856   4.353   3.459  0.5511  1.9446  0.5028
19212TIP3    H279052   0.888   4.283   3.589 -0.1542 -2.0221 -1.3178
19213TIP3   OH279053   5.574   4.902   2.672 -0.1241 -0.1639  0.9498
19213TIP3    H179054   5.627   4.979   2.692 -0.9786  0.6311  0.2351
19213TIP3    H279055   5.612   4.866   2.592 -0.0427 -0.1862  0.9987
19214TIP3   OH279056   5.078   4.544   4.524  0.1204 -0.1465 -0.3281
19214TIP3    H179057   4.987   4.541   4.495 -0.9606 -0.4043  2.7017
19214TIP3    H279058   5.127   4.494   4.459 -2.0915 -0.9342 -1.4568
19215TIP3   OH279059   0.390   4.784  13.227 -0.1162  0.3607 -0.0373
19215TIP3    H179060   0.443   4.861  13.247  0.5088 -0.3261  1.0366
19215TIP3    H279061   0.447   4.727  13.175  0.2922 -0.4496  1.2562
19216TIP3   OH279062   6.033   1.717   5.274  0.4602  0.1111 -0.2452
19216TIP3    H179063   5.951   1.712   5.226  0.1298  0.8478  0.2176
19216TIP3    H279064   6.013   1.678   5.359  0.5234  0.4656 -0.0628
19217TIP3   OH279065   4.768   5.664   6.292  0.3940  0.9277  0.1529
19217TIP3    H179066   4.786   5.633   6.203 -0.7139  0.7136 -0.0073
19217TIP3    H279067   4.690   5.616   6.319  0.2454  1.5869  0.9412
19218TIP3   OH279068   4.907   5.638  16.324 -0.5158  0.2347  0.1238
19218TIP3    H179069   4.858   5.696  16.383 -0.5101 -0.3910  0.7529
19218TIP3    H279070   4.970   5.594  16.381 -1.8735 -1.9189  0.0688
19219TIP3   OH279071   1.408   6.655   1.336 -0.0322 -0.2307 -0.5614
19219TIP3    H179072   1.433   6.595   1.406  0.5706  1.3313  0.6371
19219TIP3    H279073   1.368   6.729   1.381  4.3424  2.9910 -1.1926
19220TIP3   OH279074   3.979   5.321   3.538  0.2298  0.0257 -0.0005
19220TIP3    H179075   3.926   5.379   3.483 -0.0526  0.3357  0.5902
19220TIP3    H279076   3.963   5.234   3.502 -0.9510  0.0678  0.3621
19221TIP3   OH279077   0.662   4.911  15.718  0.8739  0.4737 -0.0880
19221TIP3    H179078   0.700   4.997  15.738  2.8522 -0.3796  0.0955
19221TIP3    H279079   0.725   4.848  15.753 -0.4056 -1.0746 -0.4298
19222TIP3   OH279080   2.124   4.776  13.999 -0.2191 -0.5294 -0.7360
19222TIP3    H179081   2.133   4.799  13.907 -1.0340  1.5233 -0.3696
19222TIP3    H279082   2.105   4.859  14.043 -2.5595 -1.7910  0.9029
19223TIP3   OH279083   6.454   5.260  14.991  0.0156 -0.8256  0.4606
19223TIP3    H179084   6.444   5.292  15.080  1.4114 -0.8229  0.6332
19223TIP3    H279085   6.545   5.231  14.985 -0.2654 -1.5446 -0.7320
19224TIP3   OH279086   2.003   0.314  16.683 -0.1933  0.0677  0.3110
19224TIP3    H179087   1.909   0.324  16.699 -0.6768 -0.0023 -2.0509
19224TIP3    H279088   2.015   0.220  16.668  0.5226 -0.1126  1.8525
19225TIP3   OH279089   4.088   2.575   6.420 -0.4362 -0.0061 -0.3523
19225TIP3    H179090   4.016   2.595   6.480 -0.6340  0.9131 -0.8626
19225TIP3    H279091   4.074   2.635   6.346  0.7232  0.0286 -0.5636
19226TIP3   OH279092   2.476   4.035   4.276 -0.1619 -0.4964  0.0037
19226TIP3    H179093   2.458   4.042   4.369 -0.0454 -1.8886  0.1505
19226TIP3    H279094   2.395   4.062   4.233 -0.1760  0.2561  0.4971
19227TIP3   OH279095   4.028   3.656  11.295  0.2790  0.3440  0.0990
19227TIP3    H179096   4.078   3.578  11.272 -1.3420 -0.3242 -1.3930
19227TIP3    H279097   3.985   3.634  11.378 -0.4035 -0.4862 -0.4628
19228TIP3   OH279098   6.192   5.151   0.611 -0.3015 -0.7684 -0.5213
19228TIP3    H179099   6.144   5.083   0.659  0.3008  0.1786  1.5632
19228TIP3    H279100   6.257   5.104   0.559  0.2116 -1.8021  0.9968
19229TIP3   OH279101   3.921   6.231   3.968  0.2763 -0.1269 -0.1203
19229TIP3    H179102   3.956   6.320   3.982  1.6836 -0.5662 -0.6291
19229TIP3    H279103   3.909   6.226   3.873  0.2004 -0.4857 -0.0905
19230TIP3   OH279104   4.552   4.223   5.081  0.5345  0.6882 -0.0193
19230TIP3    H179105   4.511   4.304   5.112 -0.2621  0.4467 -0.4257
19230TIP3    H279106   4.481   4.159   5.078  0.3091  0.9065 -3.1591
19231TIP3   OH279107   6.047   2.320  14.710 -0.0251  0.0469  0.6672
19231TIP3    H179108   5.971   2.293  14.761 -0.0320 -0.5626  0.3427
19231TIP3    H279109   6.114   2.339  14.775 -0.7362  1.5228  1.0038
19232TIP3   OH279110   6.032   0.567   0.338 -0.1512  0.0818 -0.3393
19232TIP3    H179111   6.059   0.483   0.375 -0.4281  0.0455 -0.2192
19232TIP3    H279112   6.113   0.607   0.308 -0.0840 -0.4794 -0.9160
19233TIP3   OH279113   1.531   4.543   3.586 -0.5041 -0.2306 -0.1678
19233TIP3    H179114   1.617   4.502   3.592  0.6993  2.1908  0.3683
19233TIP3    H279115   1.521   4.591   3.669 -2.8772 -1.2975  0.2536
19234TIP3   OH279116   5.724   2.167   0.202 -0.5831  0.5711 -0.2062
19234TIP3    H179117   5.671   2.247   0.199 -0.8575  0.3676 -1.0549
19234TIP3    H279118   5.755   2.162   0.292 -1.0993  1.2896  0.0177
19235TIP3   OH279119   4.340   4.268   0.619 -0.2502 -0.2333 -0.4219
19235TIP3    H179120   4.321   4.201   0.685  2.6524  1.6509  2.6579
19235TIP3    H279121   4.420   4.236   0.577  1.1922  1.1872  1.1175
19236TIP3   OH279122   0.276   1.809  11.087 -0.1368  0.1606 -0.1270
19236TIP3    H179123   0.323   1.829  11.167  0.4537  1.2023 -0.7158
19236TIP3    H279124   0.210   1.745  11.113  1.1551 -0.8146  0.8460
19237TIP3   OH279125   6.518   0.853  13.238  0.6499  0.4379  0.2894
19237TIP3    H179126   6.438   0.877  13.191  1.3584  4.2241  0.7268
19237TIP3    H279127   6.501   0.764  13.270 -2.5535  0.3380 -1.2711
19238TIP3   OH279128   6.321   3.339   1.537 -0.4023  0.4969  0.4863
19238TIP3    H179129   6.384   3.389   1.486 -0.6417  0.0969 -0.2076
19238TIP3    H279130   6.374   3.285   1.595 -0.0938 -0.2598 -0.4991
19239TIP3   OH279131   4.544   6.123   5.326 -0.1872 -0.3953  0.1501
19239TIP3    H179132   4.526   6.178   5.249  0.4475  1.5661  1.3416
19239TIP3    H279133   4.457   6.100   5.359 -0.4600 -0.4375 -0.5677
19240TIP3   OH279134   6.040   3.817  11.266 -0.4470  0.0310 -0.6473
19240TIP3    H179135   6.014   3.736  11.224  0.1215 -0.3521 -0.2709
19240TIP3    H279136   6.098   3.860  11.202  0.0250 -0.3211 -0.4645
19241TIP3   OH279137   3.881   6.464   0.377 -0.9049 -0.3594  0.4207
19241TIP3    H179138   3.923   6.378   0.368  0.2286  0.2054  0.0680
19241TIP3    H279139   3.788   6.445   0.386 -0.7947 -1.5922 -0.7271
19242TIP3   OH279140   2.025   4.949   3.872 -0.3295 -1.1697 -0.3014
19242TIP3    H179141   2.110   4.923   3.838 -0.6883 -1.9276 -0.6375
19242TIP3    H279142   1.963   4.923   3.804 -0.8011 -0.2874 -0.2314
19243TIP3   OH279143   6.301   5.358  17.206 -0.2246 -0.1526  0.1295
19243TIP3    H179144   6.250   5.282  17.178  1.4413 -0.9740 -0.8373
19243TIP3    H279145   6.332   5.336  17.293  0.1794 -0.5483 -0.1116
19244TIP3   OH279146   3.150   1.488   2.422  0.0785  0.2508  0.0965
19244TIP3    H179147   3.157   1.572   2.468  0.5837  0.7317 -0.8148
19244TIP3    H279148   3.230   1.484   2.368  0.2231 -0.9687  0.3654
19245TIP3   OH279149   1.932   6.163   2.382  0.8422 -0.0270 -0.0801
19245TIP3    H179150   1.921   6.070   2.401 -3.0824  0.6204  1.7188
19245TIP3    H279151   1.917   6.207   2.465  1.4048  2.2971 -1.1119
19246TIP3   OH279152   6.018   6.241  16.362 -0.0652  0.2663 -0.0314
19246TIP3    H179153   6.040   6.150  16.344  0.0864  0.1051  0.9521
19246TIP3    H279154   6.101   6.283  16.382 -0.1454  0.6127 -0.4011
19247TIP3   OH279155   3.070   4.548   5.141  0.1865  0.1136  0.1590
19247TIP3    H179156   3.118   4.493   5.203  1.7260 -1.8787 -2.6021
19247TIP3    H279157   3.136   4.581   5.081 -1.4566 -0.2722 -2.0101
19248TIP3   OH279158   5.800   4.315   5.358 -0.3703  0.2966 -0.9023
19248TIP3    H179159   5.890   4.329   5.385 -0.0138 -0.6274 -1.5715
19248TIP3    H279160   5.776   4.231   5.396  0.2517 -1.2146 -3.5895
19249TIP3   OH279161   4.380   2.091  12.671  0.2861 -0.1039  0.9276
19249TIP3    H179162   4.429   2.146  12.611  0.1812  0.5423  1.4263
19249TIP3    H279163   4.292   2.087  12.634  0.9038 -2.1381 -0.5575
19250TIP3   OH279164   3.093   4.895  14.217  0.4734 -0.2499  0.0823
19250TIP3    H179165   3.133   4.972  14.177 -0.2562 -0.6210 -1.4349
19250TIP3    H279166   3.073   4.922  14.306  2.6739  0.4374  0.4335
19251TIP3   OH279167   2.491   2.230  12.886  1.1660 -0.2003  0.2598
19251TIP3    H179168   2.505   2.206  12.795 -0.8486  1.1131 -0.4603
19251TIP3    H279169   2.561   2.293  12.906  0.6900  0.7218 -0.9014
19252TIP3   OH279170   0.843   5.079   5.420  0.3972 -0.0057 -0.5437
19252TIP3    H179171   0.887   5.143   5.363 -0.9451  0.7548 -0.7713
19252TIP3    H279172   0.799   5.133   5.485 -0.5779 -0.7157 -0.6082
19253TIP3   OH279173   4.199   3.613  17.304  0.5379 -0.2307 -0.3444
19253TIP3    H179174   4.276   3.609  17.247  0.1540 -0.0994 -0.8858
19253TIP3    H279175   4.128   3.641  17.246  0.0516 -0.4905  0.1165
19254TIP3   OH279176   4.546   6.512  16.510 -0.2114  0.5687 -0.0665
19254TIP3    H179177   4.532   6.439  16.570  1.3371  1.6893  1.7811
19254TIP3    H279178   4.474   6.572  16.529 -1.2863 -0.2408 -1.3438
19255TIP3   OH279179   5.821   2.311   5.689  0.0632 -0.1892  0.1540
19255TIP3    H179180   5.846   2.388   5.637 -0.9512 -0.3490 -0.5782
19255TIP3    H279181   5.798   2.348   5.775 -2.3579  0.6246 -0.7567
19256TIP3   OH279182   1.035   0.636  12.273 -0.2127 -0.2901 -0.3230
19256TIP3    H179183   1.087   0.634  12.353 -0.1848 -1.1951 -0.3613
19256TIP3    H279184   1.013   0.545  12.256  0.9814 -0.2859 -2.1452
19257TIP3   OH279185   6.505   2.565   4.184  0.3235  0.1851 -0.5140
19257TIP3    H179186   6.420   2.601   4.210  0.7820  1.1576 -0.3098
19257TIP3    H279187   6.517   2.489   4.241  1.0539  1.9253  1.8143
19258TIP3   OH279188   2.540   3.045   5.114 -0.0872 -0.2519 -0.2065
19258TIP3    H179189   2.496   3.126   5.090  1.1921  0.6677  0.3881
19258TIP3    H279190   2.470   2.984   5.136 -1.1145  0.3015 -1.8236
19259TIP3   OH279191   2.231   3.800   3.760 -0.1177  0.5737  0.9622
19259TIP3    H179192   2.318   3.787   3.723 -0.4707  0.9436 -0.0205
19259TIP3    H279193   2.184   3.852   3.695 -0.7985  1.1385  1.8707
19260TIP3   OH279194   6.262   5.388  14.535  0.0663 -0.1670 -0.1411
19260TIP3    H179195   6.202   5.316  14.515 -0.2182 -0.2532  0.9607
19260TIP3    H279196   6.256   5.446  14.459 -0.8614 -0.5414 -0.3673
19261TIP3   OH279197   1.287   0.628   2.397  0.2998  0.6428 -0.3725
19261TIP3    H179198   1.216   0.670   2.350 -0.3828 -1.5439 -1.4457
19261TIP3    H279199   1.269   0.534   2.388  2.2672  0.0728  0.9960
19262TIP3   OH279200   3.935   4.041   2.488  0.1071  0.2421 -0.5615
19262TIP3    H179201   3.861   4.091   2.452  0.0502 -0.2423 -1.1316
19262TIP3    H279202   3.931   3.957   2.443  1.3291  0.3973 -1.0024
19263TIP3   OH279203   1.253   6.719   2.843 -0.2319 -0.6093 -0.5445
19263TIP3    H179204   1.257   6.626   2.865  0.4154 -0.6176 -0.7015
19263TIP3    H279205   1.232   6.762   2.926 -3.6823 -1.1313 -0.9841
19264TIP3   OH279206   4.042   4.402  13.711 -0.2939 -0.3571  0.7452
19264TIP3    H179207   4.118   4.459  13.707 -0.7325  0.3033  1.4852
19264TIP3    H279208   4.001   4.423  13.795 -2.6146  1.0383 -0.6140
19265TIP3   OH279209   5.771   5.038  16.317  0.7029  0.2180 -0.3913
19265TIP3    H179210   5.706   5.043  16.386  1.2270  1.4089  0.0546
19265TIP3    H279211   5.850   5.005  16.361  1.5838  2.7066  0.0786
19266TIP3   OH279212   4.356   0.572  11.532 -0.5899  0.5141 -0.2021
19266TIP3    H179213   4.332   0.625  11.608  0.8952  0.3152  0.4436
19266TIP3    H279214   4.431   0.520  11.562  1.6467  2.1977 -2.5003
19267TIP3   OH279215   1.417   0.885   4.530  0.4967 -0.1211  0.1253
19267TIP3    H179216   1.426   0.901   4.436 -2.4952  0.3194 -0.1855
19267TIP3    H279217   1.367   0.804   4.536 -3.6643  2.2338  1.0371
19268TIP3   OH279218   2.680   3.813   3.878  0.4495 -0.5784 -0.3895
19268TIP3    H179219   2.590   3.812   3.846  0.8088  1.9603 -1.7608
19268TIP3    H279220   2.676   3.862   3.961  0.7941  1.6754 -1.6243
19269TIP3   OH279221   3.238   1.651  14.375 -0.2281 -0.5241  0.1824
19269TIP3    H179222   3.307   1.662  14.439 -0.5312  5.6031 -0.0147
19269TIP3    H279223   3.156   1.661  14.424 -0.9634 -3.1406 -0.2966
19270TIP3   OH279224   4.163   3.484   3.280  0.5836  0.1192 -0.3749
19270TIP3    H179225   4.221   3.501   3.206  3.2023 -0.8297  1.3216
19270TIP3    H279226   4.186   3.395   3.309 -1.0990  0.0598  0.9657
19271TIP3   OH279227   5.717   3.336   4.067  0.5683 -0.1512 -0.3419
19271TIP3    H179228   5.656   3.290   4.009 -0.8624  0.4257  0.6612
19271TIP3    H279229   5.710   3.428   4.042 -0.5089  0.1929  1.0623
19272TIP3   OH279230   0.628   5.251  12.486  0.5209 -0.0161  0.5258
19272TIP3    H179231   0.631   5.182  12.552  1.5120 -0.8048 -0.3085
19272TIP3    H279232   0.644   5.206  12.403 -0.0282  1.0462 -0.1964
19273TIP3   OH279233   5.510   6.676  17.339  0.0457 -0.1903 -0.6732
19273TIP3    H179234   5.444   6.741  17.313 -2.5418 -1.0945  2.8515
19273TIP3    H279235   5.465   6.592  17.331  1.0088 -0.9139  1.1070
19274TIP3   OH279236   2.495   6.695  13.280 -0.3440  0.2795 -0.5219
19274TIP3    H179237   2.586   6.685  13.253  0.5400  3.9227  0.5494
19274TIP3    H279238   2.497   6.690  13.375 -1.1987  0.7220 -0.4647
19275TIP3   OH279239   4.793   4.039   2.364 -0.0626  0.6094  0.3230
19275TIP3    H179240   4.828   3.954   2.337  0.3443  1.2550 -1.2867
19275TIP3    H279241   4.830   4.101   2.301 -2.0882  1.6822  0.1275
19276TIP3   OH279242   4.544   4.839  14.617 -0.4081  0.0689 -0.2656
19276TIP3    H179243   4.476   4.779  14.647 -0.6837  0.7899  0.6026
19276TIP3    H279244   4.497   4.919  14.596  0.2963  1.1079  1.8203
19277TIP3   OH279245   2.041   3.314  17.339 -0.5398 -0.2527  0.1221
19277TIP3    H179246   2.101   3.260  17.289 -0.8852 -0.6279  0.1110
19277TIP3    H279247   2.016   3.260  17.414 -0.8262 -0.0830  0.1534
19278TIP3   OH279248   4.161   5.254   5.142  0.6354  0.8875 -0.4613
19278TIP3    H179249   4.120   5.237   5.057 -1.4380  0.8837  0.4888
19278TIP3    H279250   4.092   5.239   5.206  2.2170  0.6419  1.2743
19279TIP3   OH279251   5.277   1.637   5.491  0.0531  0.2993  0.0786
19279TIP3    H179252   5.357   1.605   5.531  0.7591  2.2778  0.3922
19279TIP3    H279253   5.220   1.560   5.484  1.3942 -0.8498  1.2488
19280TIP3   OH279254   3.467   0.357  12.681  0.2393  0.2678 -0.1638
19280TIP3    H179255   3.548   0.333  12.634  1.0553  1.4097  0.6064
19280TIP3    H279256   3.430   0.428  12.629 -0.3804 -0.3494 -0.5955
19281TIP3   OH279257   2.938   1.914   0.144  0.4008  0.1789  0.3442
19281TIP3    H179258   2.900   1.898   0.231 -0.0366  2.7971  0.7011
19281TIP3    H279259   2.945   2.009   0.138  1.4850  0.0050 -2.0694
19282TIP3   OH279260   1.918   2.058   2.539  0.0496  0.3783 -0.3702
19282TIP3    H179261   1.909   2.138   2.488 -0.1189  0.2899 -0.4818
19282TIP3    H279262   1.890   1.988   2.480  1.5021  0.0831 -0.7339
19283TIP3   OH279263   2.388   2.883  14.582  0.6271  0.2572  0.0215
19283TIP3    H179264   2.425   2.796  14.600  0.8831 -0.1610 -2.2415
19283TIP3    H279265   2.370   2.919  14.669  1.5196 -1.6114  1.0613
19284TIP3   OH279266   2.928   2.834   0.037 -0.6528  0.1107 -0.6127
19284TIP3    H179267   2.892   2.910   0.084  0.3327 -0.3839  1.0003
19284TIP3    H279268   2.851   2.790   0.000 -1.5171  0.2865  0.9137
19285TIP3   OH279269   3.362   4.481  14.919  0.1771 -0.7068  0.6309
19285TIP3    H179270   3.406   4.558  14.885  0.7677 -0.6961  1.3906
19285TIP3    H279271   3.396   4.408  14.866  1.0839 -0.6914  1.1663
19286TIP3   OH279272   4.158   3.621  15.866 -0.1542 -0.2601 -0.0881
19286TIP3    H179273   4.215   3.545  15.872  0.2757 -0.0413 -1.1858
19286TIP3    H279274   4.216   3.693  15.844 -0.6641  0.2549  0.2117
19287TIP3   OH279275   0.219   3.428  15.872 -0.0116  0.0151  0.2178
19287TIP3    H179276   0.123   3.427  15.877 -0.0557  2.0007  3.5439
19287TIP3    H279277   0.239   3.475  15.791 -1.7792 -0.8497 -0.7755
19288TIP3   OH279278   1.040   2.482   2.206 -0.0107 -0.1996 -0.5455
19288TIP3    H179279   1.121   2.465   2.254  0.3897  1.8840 -0.3745
19288TIP3    H279280   0.982   2.410   2.230  0.6584 -0.0023  1.9246
19289TIP3   OH279281   2.743   6.225   1.366  0.6037  0.0847  0.0553
19289TIP3    H179282   2.662   6.275   1.369  0.3758 -0.2919  0.2352
19289TIP3    H279283   2.733   6.167   1.291  1.0881  0.6652 -0.4804
19290TIP3   OH279284   6.618   1.754  17.085  0.5351  0.2981 -0.5158
19290TIP3    H179285   6.673   1.831  17.096  0.1943  0.4511  0.1761
19290TIP3    H279286   6.655   1.709  17.009  0.4414  1.3872 -1.2298
19291TIP3   OH279287   1.147   1.618  11.051  0.0645  0.0657 -0.1466
19291TIP3    H179288   1.236   1.588  11.035  0.3668  0.3834  0.8736
19291TIP3    H279289   1.126   1.672  10.975  0.4982 -0.5305 -0.7022
19292TIP3   OH279290   6.141   3.228  11.958  0.3287 -0.3899  0.8171
19292TIP3    H179291   6.236   3.235  11.968  0.6523 -1.4430 -0.9878
19292TIP3    H279292   6.120   3.141  11.990 -0.1859  0.1351  1.9646
19293TIP3   OH279293   4.257   1.248  16.758 -0.6214  0.3049  0.4899
19293TIP3    H179294   4.308   1.230  16.837  1.6644 -0.8737 -1.1310
19293TIP3    H279295   4.182   1.188  16.764  1.4205 -2.4711  0.1558
19294TIP3   OH279296   4.041   2.332  15.008  0.2414  0.5063  1.0686
19294TIP3    H179297   3.963   2.291  15.045  0.1829  1.0126  1.5343
19294TIP3    H279298   4.076   2.268  14.947 -3.0094  1.8840 -2.6446
19295TIP3   OH279299   6.397   0.536   1.634 -0.2283  0.6896 -0.5602
19295TIP3    H179300   6.454   0.601   1.676 -0.3039  0.1255  0.4355
19295TIP3    H279301   6.330   0.517   1.699 -0.9963  0.6089 -1.3523
19296TIP3   OH279302   2.690   4.251   1.078 -0.4481 -0.0906  0.4706
19296TIP3    H179303   2.607   4.286   1.043 -1.4734 -2.0381  0.8464
19296TIP3    H279304   2.756   4.314   1.048 -1.6056 -0.1531 -2.6619
19297TIP3   OH279305   2.889   0.903   4.935 -0.0849  0.5651 -0.6632
19297TIP3    H179306   2.966   0.950   4.903 -0.8124  1.9242 -0.4872
19297TIP3    H279307   2.919   0.813   4.947  1.8759  1.3482  0.7949
19298TIP3   OH279308   4.524   5.193  11.848  0.2794 -0.0714 -0.2423
19298TIP3    H179309   4.584   5.129  11.810  0.3228 -0.1467 -0.0446
19298TIP3    H279310   4.503   5.159  11.935 -1.4358 -0.9538 -0.9501
19299TIP3   OH279311   1.106   1.689  16.933  0.2077 -0.0525  0.4145
19299TIP3    H179312   1.089   1.772  16.978 -2.1516  0.9577 -2.0785
19299TIP3    H279313   1.039   1.684  16.865  2.2585 -2.4441 -1.6432
19300TIP3   OH279314   1.906   1.100   4.669  0.4727 -0.4792 -0.0035
19300TIP3    H179315   1.814   1.073   4.663  0.0584  0.7858  0.3198
19300TIP3    H279316   1.931   1.121   4.579 -0.5196  2.0608  0.2164
19301TIP3   OH279317   2.118   1.630   5.881 -0.9265  0.0254  0.4463
19301TIP3    H179318   2.135   1.560   5.945 -2.2099  0.1962  0.9997
19301TIP3    H279319   2.063   1.692   5.928  0.5972  1.7070  0.1420
19302TIP3   OH279320   6.139   0.019   0.630 -0.1523 -0.5368  0.2189
19302TIP3    H179321   6.125  -0.043   0.702 -0.5784 -1.0470 -0.2982
19302TIP3    H279322   6.054   0.027   0.587  0.2629 -0.7914 -0.6743
19303TIP3   OH279323   6.034   3.622   2.775 -0.0845 -0.6413 -0.8143
19303TIP3    H179324   6.045   3.712   2.807 -0.5284 -1.3105  1.3723
19303TIP3    H279325   6.108   3.609   2.715  0.5794  0.8522 -0.3735
19304TIP3   OH279326   5.978   4.935  15.872 -0.1114 -0.4641  0.5593
19304TIP3    H179327   5.907   4.962  15.930 -0.7659 -1.6919  0.3781
19304TIP3    H279328   6.026   4.869  15.922 -1.5053 -2.5608 -0.7149
19305TIP3   OH279329   3.204   0.063  12.239 -0.0266  0.9233  0.4929
19305TIP3    H179330   3.181   0.019  12.157 -0.3954 -2.0818  2.0588
19305TIP3    H279331   3.284   0.112  12.218 -0.7118  1.1438 -1.8872
19306TIP3   OH279332   5.539   0.187  14.690 -0.0454  0.3876  0.5622
19306TIP3    H179333   5.596   0.259  14.717  0.1043  0.3385  0.3819
19306TIP3    H279334   5.555   0.118  14.754  0.7979  0.0266 -0.0160
19307TIP3   OH279335   2.730   4.474   1.910 -0.6020  0.0049  0.1671
19307TIP3    H179336   2.661   4.409   1.917 -0.1420 -0.4596  0.4736
19307TIP3    H279337   2.759   4.488   2.000  0.6243 -0.8229 -0.0801
19308TIP3   OH279338   1.324   0.651  12.051 -0.1902 -0.1891  0.1659
19308TIP3    H179339   1.287   0.563  12.055  0.9294 -0.8024 -1.9818
19308TIP3    H279340   1.250   0.707  12.028 -0.9395 -0.4817  1.6840
19309TIP3   OH279341   4.395   6.371  11.383  0.0174 -0.0840 -0.2647
19309TIP3    H179342   4.399   6.292  11.437 -0.4680  0.9432  1.3426
19309TIP3    H279343   4.302   6.395  11.383  0.5018  2.0042  1.6025
19310TIP3   OH279344   3.508   1.002  16.549  0.3243  0.1473  0.2874
19310TIP3    H179345   3.462   1.027  16.469 -0.7526  0.6133  1.0328
19310TIP3    H279346   3.456   1.040  16.620  1.0619 -0.5565  1.2341
19311TIP3   OH279347   6.045   5.690  17.001  0.0016  0.3970 -0.4633
19311TIP3    H179348   6.099   5.732  16.935  0.9446 -1.0959 -0.7099
19311TIP3    H279349   6.106   5.636  17.051 -0.9883  0.0595  0.4340
19312TIP3   OH279350   6.492   0.848   3.762 -0.4886  0.0032 -0.6186
19312TIP3    H179351   6.409   0.834   3.807 -0.6234  1.6829 -0.2787
19312TIP3    H279352   6.474   0.919   3.701  0.6824  0.3282 -0.6109
19313TIP3   OH279353   0.682   5.297  13.302  0.7295  0.4492  1.0145
19313TIP3    H179354   0.736   5.327  13.229  0.0841 -0.4136  0.1474
19313TIP3    H279355   0.643   5.215  13.270  0.7610 -0.1702  2.4919
19314TIP3   OH279356   1.188   0.842  13.066 -0.4095 -0.1135  0.1849
19314TIP3    H179357   1.165   0.785  13.140  1.0321 -0.9960 -0.0149
19314TIP3    H279358   1.263   0.892  13.097  0.9001 -1.2681 -1.0064
19315TIP3   OH279359   5.060   3.992  16.821  0.5403 -0.0118 -0.2608
19315TIP3    H179360   5.049   3.915  16.877  0.1580  1.2079  1.3925
19315TIP3    H279361   5.014   4.062  16.866 -0.9149  0.7603 -2.7475
19316TIP3   OH279362   2.360   0.490   3.987 -0.4591  0.2009  0.4455
19316TIP3    H179363   2.290   0.554   3.999 -0.1801  0.6206 -0.1430
19316TIP3    H279364   2.434   0.526   4.036  0.4777  1.5920 -1.8447
19317TIP3   OH279365   3.604   5.193  12.101  0.2147 -0.6183 -0.1880
19317TIP3    H179366   3.628   5.110  12.142 -0.0113 -0.5546  0.0740
19317TIP3    H279367   3.546   5.236  12.164  1.5541  0.4389  0.3578
19318TIP3   OH279368   1.559   3.605  16.425 -0.6699 -0.1552  0.5843
19318TIP3    H179369   1.468   3.596  16.397 -1.0264  1.3480  1.1622
19318TIP3    H279370   1.567   3.546  16.499 -0.1916 -2.8604 -1.4479
19319TIP3   OH279371   2.953   1.816   3.668  0.3008 -0.3631  0.0384
19319TIP3    H179372   2.885   1.867   3.713 -0.0121 -0.9001  0.1737
19319TIP3    H279373   3.014   1.883   3.636  0.1525  0.0756  0.6356
19320TIP3   OH279374   2.865   5.384  13.916 -0.0452 -0.1863 -0.5614
19320TIP3    H179375   2.776   5.358  13.894  0.2274 -0.7216 -1.0678
19320TIP3    H279376   2.911   5.302  13.934  0.1574  0.1373  0.4339
19321TIP3   OH279377   3.357   4.098   5.641 -0.0396  0.5813  0.1616
19321TIP3    H179378   3.369   4.134   5.729 -2.7064  1.4180  0.2618
19321TIP3    H279379   3.313   4.014   5.655 -1.2676  1.1142 -0.3646
19322TIP3   OH279380   1.308   6.124  14.488 -0.0684  0.2475 -0.3191
19322TIP3    H179381   1.217   6.122  14.517 -0.5573 -0.3082 -1.7731
19322TIP3    H279382   1.358   6.151  14.565 -1.3269 -0.6231  0.8456
19323TIP3   OH279383   0.646   4.660  16.910 -0.7180  0.3453 -0.2896
19323TIP3    H179384   0.564   4.651  16.959 -0.0557  2.7912  1.4519
19323TIP3    H279385   0.622   4.712  16.833 -0.8117  1.1078  0.2465
19324TIP3   OH279386   4.932   6.719  14.951 -0.0541  0.1993 -0.4395
19324TIP3    H179387   4.981   6.680  15.024 -0.8862  0.0283  0.0330
19324TIP3    H279388   4.937   6.654  14.881  0.1379  0.0537 -0.2914
19325TIP3   OH279389   2.283   6.460   1.521  0.0188 -0.2496 -0.4197
19325TIP3    H179390   2.193   6.472   1.550  0.1580 -0.5234  0.1421
19325TIP3    H279391   2.313   6.548   1.497 -1.0211 -0.4085 -2.5216
19326TIP3   OH279392   5.393   2.861  13.630  0.2922 -0.0714 -0.1250
19326TIP3    H179393   5.405   2.930  13.695  0.1543 -0.5788  0.4489
19326TIP3    H279394   5.482   2.828  13.615  0.1167 -1.3227  1.3472
19327TIP3   OH279395   0.045   2.911  15.694  0.5397 -0.1823  0.0096
19327TIP3    H179396   0.080   2.984  15.644  1.2056 -0.6061 -0.1635
19327TIP3    H279397  -0.027   2.948  15.745  1.1172  0.6716  0.2251
19328TIP3   OH279398   0.018   5.878  14.583 -0.0363 -0.2215  0.3246
19328TIP3    H179399  -0.066   5.839  14.610 -0.0338  0.1699  0.8907
19328TIP3    H279400   0.011   5.883  14.487  0.0379 -1.7804  0.2052
19329TIP3   OH279401   2.206   2.584   1.853 -0.4129 -0.4511  0.0060
19329TIP3    H179402   2.174   2.674   1.858  0.7564 -0.0252  0.1581
19329TIP3    H279403   2.154   2.537   1.919 -1.0358  0.0963 -0.0784
19330TIP3   OH279404   1.320   2.820  12.247  0.4005  0.2554 -0.4403
19330TIP3    H179405   1.289   2.767  12.173 -1.4005  0.9874 -0.2672
19330TIP3    H279406   1.271   2.902  12.240 -0.8133 -0.1176  2.2385
19331TIP3   OH279407   0.010   1.857  16.380  0.1384  0.0079 -0.0207
19331TIP3    H179408   0.020   1.782  16.321 -1.7575 -0.8411  0.6383
19331TIP3    H279409   0.030   1.821  16.467  0.2959  0.5516  0.1665
19332TIP3   OH279410   1.051   5.357   6.176  0.2124 -0.8431 -0.7705
19332TIP3    H179411   1.125   5.392   6.126 -0.6872 -0.8715 -2.1689
19332TIP3    H279412   1.089   5.285   6.228  1.9917  1.6649  1.7381
19333TIP3   OH279413   4.489   0.959  15.476  0.1501 -0.4598 -0.8230
19333TIP3    H179414   4.547   0.886  15.498 -0.0318 -1.2187 -2.6695
19333TIP3    H279415   4.513   0.982  15.386 -0.0995  1.4935 -0.4364
19334TIP3   OH279416   0.802   5.270  17.127 -0.1973  0.5872 -0.2815
19334TIP3    H179417   0.864   5.338  17.100  0.9108 -0.3987 -0.2849
19334TIP3    H279418   0.839   5.189  17.093 -0.5669 -0.2596  1.2737
19335TIP3   OH279419   6.228   4.720   2.590 -0.5168  0.3232 -0.2311
19335TIP3    H179420   6.216   4.798   2.644 -0.3988  0.3721 -0.2761
19335TIP3    H279421   6.193   4.649   2.643  1.2624  0.0883  0.7024
19336TIP3   OH279422   2.081   6.687   5.549  0.6316  0.2697 -0.1207
19336TIP3    H179423   2.000   6.706   5.596  0.3460 -0.6476 -0.2156
19336TIP3    H279424   2.122   6.616   5.599  0.5609 -0.3855 -0.9666
19337TIP3   OH279425   6.349   0.986   1.074  0.5442 -0.3103 -0.6027
19337TIP3    H179426   6.374   1.037   0.997  0.0410 -1.2776 -1.4228
19337TIP3    H279427   6.268   0.942   1.049  0.1066 -0.2590  0.6631
19338TIP3   OH279428   5.225   5.130  11.600 -0.3318  0.9878  0.0744
19338TIP3    H179429   5.202   5.185  11.526 -1.2115  1.0021  0.3377
19338TIP3    H279430   5.318   5.112  11.590 -0.7618 -0.4118 -1.9747
19339TIP3   OH279431   2.788   1.074  10.323 -0.4179 -0.0883 -0.2434
19339TIP3    H179432   2.713   1.113  10.368 -0.8891 -0.4973 -0.6627
19339TIP3    H279433   2.770   1.088  10.230  1.9366  3.4204 -0.4048
19340TIP3   OH279434   5.400   5.669   4.451 -0.0613 -0.0949  0.0241
19340TIP3    H179435   5.479   5.703   4.409 -1.5126  1.8529 -1.3247
19340TIP3    H279436   5.329   5.696   4.393 -1.6527 -3.0472  0.3993
19341TIP3   OH279437   0.708   5.654  16.697  0.4815 -0.0693  1.0256
19341TIP3    H179438   0.802   5.641  16.711  0.8074  3.2105  3.0407
19341TIP3    H279439   0.679   5.704  16.774 -2.6434  0.2080 -0.1783
19342TIP3   OH279440   3.146   1.162  10.375 -0.0200  0.5876  0.0390
19342TIP3    H179441   3.143   1.096  10.305  0.6240  1.5438 -0.9281
19342TIP3    H279442   3.232   1.150  10.415 -0.5038 -0.1547  0.8897
19343TIP3   OH279443   4.210   6.646  11.720  0.9667 -0.0889 -0.5217
19343TIP3    H179444   4.217   6.557  11.685 -0.5457  0.0326 -1.2167
19343TIP3    H279445   4.250   6.701  11.653  1.6026 -0.2034 -0.2437
19344TIP3   OH279446   1.578   5.553   5.129 -0.1138  0.1864 -0.1530
19344TIP3    H179447   1.564   5.458   5.133 -1.0257  0.2845 -0.8080
19344TIP3    H279448   1.650   5.569   5.190  0.8921 -1.0882 -0.9635
19345TIP3   OH279449   1.898   5.379  14.330  0.4985  0.2109  0.2731
19345TIP3    H179450   1.811   5.417  14.339  0.9441  1.9318 -1.8267
19345TIP3    H279451   1.957   5.446  14.364  1.2520  1.2958 -2.8672
19346TIP3   OH279452   4.003   2.089  11.825  0.9413  0.3880  0.3882
19346TIP3    H179453   3.999   2.181  11.800  1.1957  0.1835 -0.4190
19346TIP3    H279454   4.041   2.090  11.913 -1.6958  1.2457  1.6471
19347TIP3   OH279455   0.674   5.509   0.851  0.1262  0.0960  0.7902
19347TIP3    H179456   0.636   5.520   0.763 -1.6316 -0.7577  1.3955
19347TIP3    H279457   0.613   5.554   0.909  1.1682  0.4745  1.6201
19348TIP3   OH279458   1.570   6.556  11.609 -0.0930 -0.1673  0.3100
19348TIP3    H179459   1.655   6.520  11.583 -0.0161  0.7549 -0.7810
19348TIP3    H279460   1.541   6.500  11.682  1.5762 -0.3147  0.8970
19349TIP3   OH279461   2.171   0.195   0.166  0.0723 -0.4812  0.1656
19349TIP3    H179462   2.198   0.123   0.224 -0.6371 -0.4842  0.5024
19349TIP3    H279463   2.195   0.274   0.214 -0.0362 -0.4878  0.2316
19350TIP3   OH279464   0.792   6.006  15.895  0.2439  0.5160 -1.0134
19350TIP3    H179465   0.844   5.969  15.966 -0.7332  0.0857 -0.4914
19350TIP3    H279466   0.701   5.986  15.919 -0.3605  3.1788 -0.7161
19351TIP3   OH279467   1.243   0.031   0.085  0.0295  0.3635 -0.0650
19351TIP3    H179468   1.334   0.062   0.091 -0.5747  2.3874 -0.4798
19351TIP3    H279469   1.207   0.080   0.011 -1.1751 -1.0591 -0.4503
19352TIP3   OH279470   3.104   3.059   5.003  0.8615  0.1163 -0.0801
19352TIP3    H179471   3.033   2.995   5.000  1.5783 -0.6746 -0.9421
19352TIP3    H279472   3.112   3.090   4.912  0.6483  1.3076  0.2909
19353TIP3   OH279473   5.056   1.837  13.625  0.1490 -0.1149  0.3545
19353TIP3    H179474   5.059   1.879  13.539  0.0007 -2.5090 -0.9228
19353TIP3    H279475   5.132   1.872  13.671  2.0138 -0.9153 -1.8824
19354TIP3   OH279476   0.771   3.136   3.003  0.0429  0.2393  0.0549
19354TIP3    H179477   0.731   3.209   2.957  1.8361  1.3489  0.1669
19354TIP3    H279478   0.811   3.083   2.934  0.8784  0.7289  0.1578
19355TIP3   OH279479   1.699   0.997   0.660  0.1382  0.3150 -0.3420
19355TIP3    H179480   1.666   1.075   0.614  2.5935  1.6762  0.0211
19355TIP3    H279481   1.752   0.951   0.594 -1.8732 -1.5639 -0.7768
19356TIP3   OH279482   4.833   2.250   2.055 -0.2637 -0.3082 -0.0288
19356TIP3    H179483   4.886   2.204   2.120  0.5442 -1.8712 -1.7077
19356TIP3    H279484   4.888   2.322   2.026  0.6508 -1.4044 -1.1257
19357TIP3   OH279485   3.284   6.081   0.596 -0.5290  0.1723  0.2712
19357TIP3    H179486   3.291   5.989   0.621  2.6900  0.1519 -0.1919
19357TIP3    H279487   3.241   6.123   0.670  1.6948 -1.0994  2.4489
19358TIP3   OH279488   0.527   6.210   1.038 -0.2399 -0.5302  0.4787
19358TIP3    H179489   0.616   6.175   1.048 -0.2136 -0.4350  0.5732
19358TIP3    H279490   0.538   6.305   1.042 -0.3535 -0.5200  0.5522
19359TIP3   OH279491   0.500   0.134  12.768 -0.5178  0.4323 -0.6012
19359TIP3    H179492   0.415   0.170  12.740 -1.1292 -0.8132 -0.4264
19359TIP3    H279493   0.531   0.085  12.692 -0.6241 -0.2529 -0.2106
19360TIP3   OH279494   4.361   6.339  13.895  0.6926  0.1467  0.4964
19360TIP3    H179495   4.318   6.290  13.965 -0.9514  1.6776  0.6203
19360TIP3    H279496   4.422   6.397  13.941  0.0714  0.7048  0.6251
19361TIP3   OH279497   1.940   3.147   1.708  0.1428  0.8057  0.1753
19361TIP3    H179498   1.904   3.204   1.776 -1.3261  0.0272  0.0742
19361TIP3    H279499   1.882   3.072   1.705  1.0101  0.1405 -0.9607
19362TIP3   OH279500   6.447   1.867  14.110 -0.2064  0.2518  0.1016
19362TIP3    H179501   6.454   1.824  14.025  0.5924 -0.6890  0.6203
19362TIP3    H279502   6.524   1.837  14.159 -1.1346  0.0092  1.4859
19363TIP3   OH279503   2.642   1.805   0.605 -0.7615  0.7733  0.0816
19363TIP3    H179504   2.660   1.841   0.692  1.4868 -0.2908  0.1078
19363TIP3    H279505   2.712   1.742   0.589 -0.7565  1.3553 -2.7680
19364TIP3   OH279506   0.635   0.677  17.120 -0.7719  0.1047  0.7009
19364TIP3    H179507   0.653   0.701  17.029 -1.8387 -2.8275 -0.4207
19364TIP3    H279508   0.557   0.621  17.114 -1.2488  0.3410  3.5280
19365TIP3   OH279509   2.760   4.396  15.400  0.4481 -0.6269 -0.1132
19365TIP3    H179510   2.824   4.325  15.410  0.6018 -0.4780 -0.0483
19365TIP3    H279511   2.716   4.401  15.484  0.7456 -0.3442  0.0247
19366TIP3   OH279512   3.342   0.993  14.726  0.3461  0.2269 -0.2836
19366TIP3    H179513   3.381   1.030  14.646  0.3081  0.4793 -0.1861
19366TIP3    H279514   3.249   0.988  14.707  0.6447 -2.9026 -1.5601
19367TIP3   OH279515   0.466   1.105   1.357 -0.3112  0.1090  0.2306
19367TIP3    H179516   0.482   1.022   1.404  1.1586  0.3529  0.2087
19367TIP3    H279517   0.411   1.155   1.416  1.1512  0.2360  1.5599
19368TIP3   OH279518   0.442   4.156  13.217  0.6630 -0.2275 -0.1266
19368TIP3    H179519   0.483   4.095  13.156  0.5658 -0.0130 -0.4071
19368TIP3    H279520   0.366   4.108  13.251  0.7729 -0.3841 -0.0993
19369TIP3   OH279521   5.222   4.153   4.304  0.5808  0.0166  0.1332
19369TIP3    H179522   5.253   4.239   4.274 -1.4228  1.1406  1.1247
19369TIP3    H279523   5.129   4.164   4.320  0.5060 -1.9937  1.5697
19370TIP3   OH279524   1.747   1.923  16.677  0.1897  0.3785  0.3179
19370TIP3    H179525   1.824   1.872  16.654 -0.9544 -1.4600  0.3758
19370TIP3    H279526   1.780   2.012  16.690  2.0563 -0.0497 -1.0636
19371TIP3   OH279527   4.942   6.308  12.587  0.2733 -0.1985  0.1057
19371TIP3    H179528   4.947   6.222  12.628  3.1743 -0.9223 -1.4996
19371TIP3    H279529   5.004   6.362  12.635  0.3699  0.2324 -0.4821
19372TIP3   OH279530   3.688   1.350   0.758  0.1935  0.2790 -0.1217
19372TIP3    H179531   3.744   1.333   0.683  0.4435  0.6443 -0.0206
19372TIP3    H279532   3.612   1.295   0.744 -1.0294  2.2737 -2.0224
19373TIP3   OH279533   6.358   2.351   2.074 -0.2985  0.1845  0.0930
19373TIP3    H179534   6.330   2.394   2.154 -0.2182  2.1529 -0.8971
19373TIP3    H279535   6.297   2.381   2.007  1.0523  0.4892 -1.0567
19374TIP3   OH279536   5.131   5.612   4.646 -0.2583  0.1079 -0.3553
19374TIP3    H179537   5.183   5.668   4.703  0.9683  0.4358 -1.7348
19374TIP3    H279538   5.189   5.592   4.573 -0.6029 -3.0113  0.0724
19375TIP3   OH279539   2.831   3.865   4.333 -0.5883 -0.6604 -0.6908
19375TIP3    H179540   2.796   3.951   4.351 -0.2631 -0.5274 -0.6820
19375TIP3    H279541   2.872   3.874   4.247  1.3273 -0.2137  0.2130
19376TIP3   OH279542   0.471   0.752   0.716 -0.0396 -0.6112 -0.0142
19376TIP3    H179543   0.507   0.781   0.632 -1.0044 -2.3789 -1.1102
19376TIP3    H279544   0.535   0.689   0.749  0.7479  0.6817  1.0455
19377TIP3   OH279545   3.785   0.967   1.408 -0.0634  0.0430  0.0704
19377TIP3    H179546   3.773   0.891   1.350 -3.5537 -2.1389  3.1720
19377TIP3    H279547   3.868   0.949   1.454 -0.2827 -1.3284 -0.0316
19378TIP3   OH279548   0.631   2.538  10.906 -0.1093  0.0055 -0.9724
19378TIP3    H179549   0.536   2.526  10.902 -0.6378  3.3994 -1.7742
19378TIP3    H279550   0.659   2.535  10.815  0.0138  1.9814 -1.0400
19379TIP3   OH279551   4.840   3.254  14.032  0.5804 -1.0407  0.5074
19379TIP3    H179552   4.765   3.220  14.081  0.1044 -0.2703  0.3361
19379TIP3    H279553   4.801   3.288  13.950  0.9874  0.0836  0.7565
19380TIP3   OH279554   0.509   2.886  12.815 -0.0288 -0.1915  0.1690
19380TIP3    H179555   0.599   2.916  12.801 -0.0769 -0.9554 -2.3062
19380TIP3    H279556   0.468   2.957  12.864  0.9450  1.9744 -1.9193
19381TIP3   OH279557   4.280   4.600  10.303  0.3463 -0.1975  0.9554
19381TIP3    H179558   4.270   4.683  10.350  2.4971  1.7210 -1.6676
19381TIP3    H279559   4.373   4.595  10.284 -0.1464 -1.8376 -1.3230
19382TIP3   OH279560   4.347   5.205  10.706  0.2177 -0.5381  0.1166
19382TIP3    H179561   4.440   5.193  10.689  0.8304  2.7652  0.3974
19382TIP3    H279562   4.315   5.252  10.629 -0.8494 -0.2949  0.6920
19383TIP3   OH279563   5.832   6.403  16.830  0.4203  0.3555 -0.0792
19383TIP3    H179564   5.766   6.453  16.878  1.3226 -0.1676  1.8222
19383TIP3    H279565   5.885   6.362  16.899  2.6114  0.6040 -1.5431
19384TIP3   OH279566   3.542   1.709  13.014 -0.1564  0.0812 -0.5445
19384TIP3    H179567   3.573   1.711  13.105  2.0345 -0.2495 -1.2243
19384TIP3    H279568   3.483   1.784  13.007 -0.5159  0.0142  1.1703
19385TIP3   OH279569   2.510   0.322  13.882  0.0486 -0.3927  0.6824
19385TIP3    H179570   2.575   0.363  13.939 -0.6544  1.8947 -0.0463
19385TIP3    H279571   2.443   0.290  13.942 -0.3572  1.3856  1.2219
19386TIP3   OH279572   3.356   0.262  12.917  0.8602 -1.0298 -0.5793
19386TIP3    H179573   3.425   0.301  12.863  0.1397  0.6947 -0.3268
19386TIP3    H279574   3.286   0.241  12.855 -0.5193  2.1701 -0.3317
19387TIP3   OH279575   2.098   0.884   0.274  0.4652 -0.4680  0.5308
19387TIP3    H179576   2.071   0.825   0.344  0.0196 -0.4827  0.3501
19387TIP3    H279577   2.157   0.832   0.220 -1.1893 -1.3049 -0.5613
19388TIP3   OH279578   3.927   3.439  13.112 -0.0666  0.7775 -0.2845
19388TIP3    H179579   3.909   3.423  13.019  0.7050  0.9897 -0.4776
19388TIP3    H279580   3.851   3.486  13.144 -2.2804 -2.7174  0.1794
19389TIP3   OH279581   2.668   4.728   5.470 -0.0489  0.1829  0.1327
19389TIP3    H179582   2.724   4.719   5.547 -0.5429 -0.7768  0.3957
19389TIP3    H279583   2.579   4.713   5.503 -0.2688 -0.2081 -0.6146
19390TIP3   OH279584   5.786   4.978  12.270 -0.4109 -0.1348 -0.3328
19390TIP3    H179585   5.763   4.891  12.303  1.6743 -0.9916 -1.0001
19390TIP3    H279586   5.782   4.970  12.175 -2.8130  1.3098 -0.4446
19391TIP3   OH279587   5.564   3.180  14.155 -0.1070  0.1104  0.1903
19391TIP3    H179588   5.589   3.088  14.154  1.0950  0.3297  2.6722
19391TIP3    H279589   5.622   3.222  14.091  0.0062 -0.6934 -0.2459
19392TIP3   OH279590   5.670   2.302  16.366  0.3306  0.1845 -0.2598
19392TIP3    H179591   5.699   2.380  16.318 -2.5773  0.0503 -2.5528
19392TIP3    H279592   5.662   2.330  16.457  2.4544  1.5594 -0.4342
19393TIP3   OH279593   0.631   0.604   2.353 -0.0299 -0.4887 -0.4098
19393TIP3    H179594   0.608   0.518   2.318  2.7904 -1.1159 -0.9913
19393TIP3    H279595   0.717   0.623   2.315  1.5052  0.5525  3.1757
19394TIP3   OH279596   3.384   0.552   4.795  0.4654 -0.2403 -0.1992
19394TIP3    H179597   3.348   0.533   4.709  1.2461  0.6541 -0.7332
19394TIP3    H279598   3.475   0.576   4.778  1.0348 -1.3947  1.0070
19395TIP3   OH279599   3.943   5.448  13.348 -0.5764 -0.0600 -0.2761
19395TIP3    H179600   3.858   5.489  13.330 -0.2985 -0.1539 -1.9334
19395TIP3    H279601   4.005   5.497  13.295  0.0030 -1.6265 -1.1150
19396TIP3   OH279602   2.989   5.173  16.850  0.0270 -0.0183  0.3802
19396TIP3    H179603   2.988   5.267  16.866  0.5408  0.4766 -2.0561
19396TIP3    H279604   3.071   5.157  16.803 -1.3017 -1.1489 -1.7461
19397TIP3   OH279605   5.143   5.733  16.726 -0.3584  0.0670 -0.5250
19397TIP3    H179606   5.096   5.814  16.704  2.5358  1.7256 -1.0871
19397TIP3    H279607   5.176   5.702  16.642 -0.3062 -0.9651 -0.1340
19398TIP3   OH279608   0.178   0.204  12.055 -0.6621 -0.1408 -0.5106
19398TIP3    H179609   0.256   0.258  12.048  0.3363 -1.3216  0.8533
19398TIP3    H279610   0.143   0.201  11.966 -0.6296  2.4817 -0.6724
19399TIP3   OH279611   1.124   0.954   5.085 -0.3407  0.5669 -0.1017
19399TIP3    H179612   1.088   1.001   5.010 -0.4424 -1.4891 -1.4007
19399TIP3    H279613   1.219   0.964   5.075 -0.3746  1.2685  0.1819
19400TIP3   OH279614   0.066   3.595  12.091 -0.2694 -0.3172  0.7409
19400TIP3    H179615   0.153   3.555  12.095 -0.9451 -1.7691  1.4342
19400TIP3    H279616   0.034   3.593  12.181 -1.6508 -1.2565  0.2611
19401TIP3   OH279617   5.663   6.654  14.723 -0.1224  0.2883  0.0581
19401TIP3    H179618   5.724   6.678  14.653  1.3425  2.0810  1.8497
19401TIP3    H279619   5.715   6.598  14.781 -0.2120  1.5769  1.4404
19402TIP3   OH279620   1.014   1.602   0.704 -0.0340  0.3183  0.3554
19402TIP3    H179621   0.979   1.675   0.755  0.2024 -0.9061  2.3368
19402TIP3    H279622   1.061   1.548   0.767  0.7302 -0.9942 -1.2574
19403TIP3   OH279623   5.422   4.383   4.753 -0.5183  0.1427  0.2152
19403TIP3    H179624   5.507   4.339   4.764 -0.8628 -0.5054  0.3500
19403TIP3    H279625   5.432   4.436   4.675  0.1985  0.5158  0.5507
19404TIP3   OH279626   1.991   6.552  11.265 -0.0710  0.1038 -0.2633
19404TIP3    H179627   2.083   6.569  11.242  0.3152 -2.0261 -0.4491
19404TIP3    H279628   1.960   6.492  11.197 -2.3579  2.5485 -1.5409
19405TIP3   OH279629   5.820   4.670  15.311  0.2602 -0.4175  0.0346
19405TIP3    H179630   5.735   4.660  15.355 -0.6840  0.2164 -1.5624
19405TIP3    H279631   5.884   4.644  15.377 -1.2722 -3.4215  0.5381
19406TIP3   OH279632   6.005   2.326   1.570 -0.1598 -0.2378  0.2096
19406TIP3    H179633   6.026   2.233   1.568  0.5705 -0.0974  1.0395
19406TIP3    H279634   6.085   2.369   1.539 -0.7850  0.0862 -1.0419
19407TIP3   OH279635   3.690   4.051   4.593 -0.3556 -0.4991 -0.3537
19407TIP3    H179636   3.745   4.086   4.663  0.2859  1.9197 -1.9358
19407TIP3    H279637   3.749   3.998   4.540 -0.1372 -0.0351 -0.5882
19408TIP3   OH279638   3.699   0.884  15.351  0.2091  0.6474  0.3125
19408TIP3    H179639   3.644   0.895  15.428 -0.9357 -1.7647 -0.0624
19408TIP3    H279640   3.788   0.882  15.386 -0.2815 -0.3539  1.5938
19409TIP3   OH279641   2.885   4.960  15.865  0.2018  0.6179 -0.5461
19409TIP3    H179642   2.800   4.932  15.830 -0.0470  0.7469 -0.0590
19409TIP3    H279643   2.864   4.999  15.950  1.0800 -2.1286  1.0259
19410TIP3   OH279644   6.018   5.246   1.083 -0.0239 -0.6379 -0.1642
19410TIP3    H179645   5.952   5.307   1.116  0.5859  0.3888 -0.7903
19410TIP3    H279646   6.088   5.302   1.050 -0.1095 -1.6117 -2.1722
19411TIP3   OH279647   3.601   5.663  16.127 -0.6127 -0.1039 -0.0913
19411TIP3    H179648   3.640   5.737  16.175 -0.4261 -1.0496  1.2656
19411TIP3    H279649   3.545   5.705  16.062  0.3387  1.2539 -0.0893
19412TIP3   OH279650   5.775   0.981  11.795 -0.6297 -0.4991  0.3110
19412TIP3    H179651   5.813   1.068  11.789  0.5700 -0.9973  0.5174
19412TIP3    H279652   5.779   0.959  11.888 -0.7837 -0.8506  0.2352
19413TIP3   OH279653   1.184   2.057  14.923  0.3009  0.0720  0.4495
19413TIP3    H179654   1.271   2.065  14.883 -1.4068  1.1134 -3.5968
19413TIP3    H279655   1.188   1.975  14.972  3.0448 -0.8798 -1.1428
19414TIP3   OH279656   1.944   2.795   2.345  0.1179 -0.3208  0.5138
19414TIP3    H179657   2.037   2.773   2.341  0.4087  0.8687  0.6168
19414TIP3    H279658   1.909   2.765   2.261  0.7577 -0.0471  0.1435
19415TIP3   OH279659   2.701   1.296   0.244 -0.1906 -0.4706 -0.1147
19415TIP3    H179660   2.627   1.260   0.195 -0.4654 -0.6762  0.4460
19415TIP3    H279661   2.661   1.351   0.312  0.1654 -0.6179  0.2171
19416TIP3   OH279662   2.311   0.155  16.916 -0.3377  0.0230  0.3741
19416TIP3    H179663   2.401   0.175  16.941  0.3308 -2.1889 -0.0202
19416TIP3    H279664   2.260   0.229  16.947  1.6378  1.4469  0.4015
19417TIP3   OH279665   4.112   3.134  17.067  0.3557 -0.4726 -0.2046
19417TIP3    H179666   4.103   3.154  16.974 -0.7392  0.2168  0.0349
19417TIP3    H279667   4.094   3.216  17.111 -3.0283 -1.5774  0.7495
19418TIP3   OH279668   6.177   6.257   0.006  0.2528 -0.2070  0.0929
19418TIP3    H179669   6.212   6.335   0.049 -0.6503  0.6757 -0.7305
19418TIP3    H279670   6.085   6.255   0.032  0.0648 -0.5241 -0.5755
19419TIP3   OH279671   1.752   1.173  13.479 -0.2867 -0.3904 -0.5508
19419TIP3    H179672   1.847   1.178  13.464 -0.0893  0.2063  0.7456
19419TIP3    H279673   1.736   1.236  13.549 -1.7798  0.0958 -1.2938
19420TIP3   OH279674   2.030   5.620  13.338  0.5595 -0.2269 -0.0687
19420TIP3    H179675   2.111   5.601  13.290  0.0195  0.9410 -1.5408
19420TIP3    H279676   1.974   5.663  13.273 -1.0092 -0.4488  1.0912
19421TIP3   OH279677   2.201   1.258   1.444 -0.3228 -0.0714  0.1907
19421TIP3    H179678   2.162   1.294   1.364  1.1371 -0.4988 -0.7612
19421TIP3    H279679   2.219   1.335   1.498 -2.2665  0.1469  0.6085
19422TIP3   OH279680   2.284   0.788   3.287 -0.5188  0.0766  0.1042
19422TIP3    H179681   2.240   0.765   3.205 -1.6320 -1.2316  1.0126
19422TIP3    H279682   2.342   0.714   3.305 -2.0905 -0.8841  1.6633
19423TIP3   OH279683   2.143   2.728  13.931  0.3724 -0.5783 -0.2323
19423TIP3    H179684   2.212   2.667  13.958  0.3961 -0.4153  0.0745
19423TIP3    H279685   2.189   2.810  13.913  0.0883  0.0074  1.5007
19424TIP3   OH279686   2.299   5.033   4.154 -0.2692  0.3350  0.3308
19424TIP3    H179687   2.345   5.108   4.117  1.6780 -1.1860 -0.4926
19424TIP3    H279688   2.208   5.047   4.130  0.2714  1.6586 -1.1501
19425TIP3   OH279689   3.803   3.407   4.500 -0.0710  0.0278 -0.4398
19425TIP3    H179690   3.747   3.485   4.499 -0.4052 -0.2123 -0.7553
19425TIP3    H279691   3.743   3.335   4.481  0.2193 -0.3185 -0.0500
19426TIP3   OH279692   1.205   4.952  15.655  0.1587  0.4443 -0.2218
19426TIP3    H179693   1.295   4.936  15.628 -0.1254 -0.2545 -0.7646
19426TIP3    H279694   1.213   4.986  15.745  0.8332 -2.1883  0.8018
19427TIP3   OH279695   3.183   2.629  16.474  0.0655  0.3543  0.2772
19427TIP3    H179696   3.142   2.708  16.438  0.8995  0.4420 -0.5158
19427TIP3    H279697   3.256   2.660  16.527  0.5145  0.1219 -0.1916
19428TIP3   OH279698   3.780   6.201  13.215 -0.1525  0.0718 -0.2864
19428TIP3    H179699   3.709   6.137  13.215 -0.0930 -0.0112 -1.3407
19428TIP3    H279700   3.849   6.160  13.267 -0.3956 -0.3905 -0.3216
19429TIP3   OH279701   4.069   3.315  13.329  0.3474  0.0648  0.0370
19429TIP3    H179702   4.035   3.349  13.246  1.8775  0.2845 -0.5488
19429TIP3    H279703   4.142   3.259  13.303 -0.2782 -1.3313  1.1614
19430TIP3   OH279704   6.076   5.951   6.147  0.1029 -0.2229 -0.1563
19430TIP3    H179705   6.013   5.949   6.074 -1.2703 -0.1739  0.9928
19430TIP3    H279706   6.154   5.992   6.109 -0.5857 -0.1511 -1.5879
19431TIP3   OH279707   0.382   6.447  15.292 -0.1161 -0.2499  0.3058
19431TIP3    H179708   0.390   6.388  15.217  0.0525  0.3940 -0.1843
19431TIP3    H279709   0.430   6.525  15.267 -2.9337  1.4090 -0.3880
19432TIP3   OH279710   5.727   0.169  14.083 -0.4471  0.0459  0.0368
19432TIP3    H179711   5.781   0.212  14.149  0.1555  2.9869 -2.1396
19432TIP3    H279712   5.790   0.122  14.028 -0.7567 -0.9926  0.5465
19433TIP3   OH279713   3.169   5.141  14.130 -0.0665 -0.1409  0.1035
19433TIP3    H179714   3.264   5.148  14.140  0.3102 -1.4986 -2.0253
19433TIP3    H279715   3.148   5.196  14.055 -1.4890  2.5382  2.2549
19434TIP3   OH279716   4.823   0.337  16.104 -0.0665  0.4845  0.3308
19434TIP3    H179717   4.778   0.410  16.061  0.2384  0.7953  0.5401
19434TIP3    H279718   4.785   0.259  16.063  0.1314  0.7727 -0.4208
19435TIP3   OH279719   1.757   6.328  11.638  0.0884  0.3732  0.3463
19435TIP3    H179720   1.782   6.334  11.546 -2.2229  1.1431 -0.2891
19435TIP3    H279721   1.706   6.246  11.644  1.0255 -0.1739  1.1785
19436TIP3   OH279722   4.841   2.754   0.132  0.1557  0.3483 -0.0270
19436TIP3    H179723   4.871   2.814   0.201 -0.1555  0.9847 -0.4335
19436TIP3    H279724   4.746   2.761   0.134  0.0659 -0.8850  0.5687
19437TIP3   OH279725   3.445   0.417   2.973  0.7814  0.2280 -0.4039
19437TIP3    H179726   3.525   0.460   3.003  0.5418  0.1412  0.3998
19437TIP3    H279727   3.441   0.336   3.025 -0.2043  0.5896  0.1174
19438TIP3   OH279728   0.323   2.671   4.491  0.0097  0.2555  0.2233
19438TIP3    H179729   0.377   2.594   4.471  3.0186  2.3171 -0.2568
19438TIP3    H279730   0.249   2.636   4.542  0.8915 -2.9780 -0.4756
19439TIP3   OH279731   2.462   2.066   0.151  0.1373  0.2531 -0.3477
19439TIP3    H179732   2.448   2.160   0.153 -3.4476 -0.0790 -1.4326
19439TIP3    H279733   2.463   2.039   0.243 -1.6638  1.1233 -0.0254
19440TIP3   OH279734   3.392   3.998   0.617 -0.0828  0.1335  0.2148
19440TIP3    H179735   3.424   3.932   0.555  1.9091  0.4182  0.8504
19440TIP3    H279736   3.455   4.070   0.611  1.4008 -0.6112  3.8546
19441TIP3   OH279737   5.547   3.293  13.686  0.4206 -0.3019 -0.0720
19441TIP3    H179738   5.523   3.242  13.608  1.1943 -1.1517  0.2334
19441TIP3    H279739   5.494   3.372  13.679 -1.7674 -1.6653  0.0970
19442TIP3   OH279740   0.135   5.657  12.782 -0.5009  0.0948 -0.8015
19442TIP3    H179741   0.078   5.731  12.762 -0.5184  0.3968  0.2841
19442TIP3    H279742   0.076   5.591  12.819 -0.0686  0.7226  1.1114
19443TIP3   OH279743   3.266   3.977   0.095 -0.0063  0.1317 -0.0529
19443TIP3    H179744   3.234   4.067   0.088 -2.1051 -0.6292 -0.8349
19443TIP3    H279745   3.303   3.958   0.008  1.8250  0.6798  0.5552
19444TIP3   OH279746   2.063   4.548  17.299  0.7626 -0.3006  1.1413
19444TIP3    H179747   2.112   4.629  17.315  0.7764 -0.2070  0.6428
19444TIP3    H279748   1.974   4.578  17.283  0.3113 -0.5327  2.9646
19445TIP3   OH279749   2.650   2.507  15.127 -0.2729 -0.6785 -0.2248
19445TIP3    H179750   2.737   2.547  15.130 -1.3411  1.8193  0.1731
19445TIP3    H279751   2.631   2.484  15.218 -0.2391 -0.7336 -0.2315
19446TIP3   OH279752   5.543   1.999  11.013 -0.2708  0.1884  0.1904
19446TIP3    H179753   5.476   2.029  11.074 -0.8533  0.7611 -0.7148
19446TIP3    H279754   5.616   2.060  11.026  1.7278 -2.5129  3.8445
19447TIP3   OH279755   3.125   1.631  13.238 -0.1974  0.0994 -0.5573
19447TIP3    H179756   3.155   1.648  13.149  2.7140  1.6732  0.5809
19447TIP3    H279757   3.155   1.543  13.257  0.1791  0.1770 -0.7770
19448TIP3   OH279758   2.950   2.724  17.080 -0.1364 -0.3106  0.0622
19448TIP3    H179759   2.970   2.796  17.140 -0.2302  0.8020 -1.2089
19448TIP3    H279760   2.882   2.758  17.022  0.2247 -1.2293 -0.9389
19449TIP3   OH279761   1.751   2.277  14.363  0.0728  0.6614 -0.1942
19449TIP3    H179762   1.754   2.210  14.295  0.0646 -0.4060  0.8206
19449TIP3    H279763   1.715   2.354  14.320 -0.7793 -0.2596 -1.1831
19450TIP3   OH279764   0.611   5.457  10.389  0.8523  0.2156 -0.2014
19450TIP3    H179765   0.560   5.407  10.452  0.5923 -1.0663 -1.3802
19450TIP3    H279766   0.557   5.459  10.310  2.3004 -0.5689 -1.2623
19451TIP3   OH279767   4.705   0.512  15.875  0.0266 -0.3897 -0.4210
19451TIP3    H179768   4.718   0.606  15.860  0.7114 -0.5651 -0.9946
19451TIP3    H279769   4.631   0.488  15.819  0.6096 -0.4244 -1.1840
19452TIP3   OH279770   3.925   0.862  14.252  0.6232  0.2985  0.0234
19452TIP3    H179771   3.937   0.778  14.296 -0.0597 -0.2120 -0.7316
19452TIP3    H279772   3.958   0.847  14.163  1.2701  1.0819  0.1295
19453TIP3   OH279773   1.999   1.159  11.277 -0.0024 -0.7699 -0.3947
19453TIP3    H179774   2.058   1.102  11.326  2.1835  0.8983 -0.9139
19453TIP3    H279775   2.018   1.139  11.185 -0.4992 -0.4396 -0.5720
19454TIP3   OH279776   2.628   2.018  12.117 -0.6125 -0.2926 -0.3688
19454TIP3    H179777   2.689   2.077  12.161 -1.2934  0.2000 -0.0712
19454TIP3    H279778   2.607   2.062  12.035 -1.6026  0.1842  0.1321
19455TIP3   OH279779   6.241   0.834  16.318  0.2439 -0.0449  0.0755
19455TIP3    H179780   6.223   0.925  16.338  0.1758  0.1318 -0.7366
19455TIP3    H279781   6.182   0.784  16.375 -0.2140  0.4392  0.0356
19456TIP3   OH279782   5.792   6.169   2.864 -0.0591 -0.4914 -0.3304
19456TIP3    H179783   5.884   6.142   2.862 -0.3503 -1.6663  0.5974
19456TIP3    H279784   5.771   6.176   2.957 -1.3136 -1.8479 -0.4606
19457TIP3   OH279785   1.687   5.511   3.329 -0.0324  0.1144 -0.0732
19457TIP3    H179786   1.769   5.497   3.282 -0.5161  0.0629 -0.9237
19457TIP3    H279787   1.693   5.453   3.406  0.2249 -0.8129 -0.7688
19458TIP3   OH279788   5.721   6.688  16.741  0.5549 -0.3380 -0.3611
19458TIP3    H179789   5.773   6.765  16.719  0.9525 -0.6745 -0.6156
19458TIP3    H279790   5.776   6.614  16.717 -0.2779 -0.7098 -1.1836
19459TIP3   OH279791   6.042   0.778   2.050 -0.4733 -0.0952 -0.2741
19459TIP3    H179792   6.111   0.745   2.107 -0.6677 -0.1637 -0.0793
19459TIP3    H279793   6.047   0.723   1.972  0.3812  0.5645 -0.7081
19460TIP3   OH279794   6.545   4.727   2.833 -0.3762 -0.3748  0.2765
19460TIP3    H179795   6.533   4.690   2.921 -2.0403  1.9784  1.1537
19460TIP3    H279796   6.634   4.761   2.833 -0.9321  1.2652  1.8251
19461TIP3   OH279797   3.077   3.933   1.967  0.5980 -0.2223 -0.1577
19461TIP3    H179798   3.078   4.021   1.929 -2.6044  0.1262  0.2253
19461TIP3    H279799   3.020   3.941   2.044 -0.4245 -2.7519 -0.5490
19462TIP3   OH279800   2.986   6.291  11.997  0.2733  0.1142  0.2929
19462TIP3    H179801   2.983   6.372  12.049  1.1495  0.3055  0.0489
19462TIP3    H279802   2.942   6.226  12.052 -1.0838  0.9078  0.1972
19463TIP3   OH279803   4.088   5.110  14.415 -0.6241 -0.0457  0.0333
19463TIP3    H179804   4.182   5.102  14.399 -0.5699  1.9333 -0.9502
19463TIP3    H279805   4.074   5.066  14.499  1.1521 -0.4359  0.1598
19464TIP3   OH279806   4.714   0.514   4.093  0.1415 -0.2068 -0.1812
19464TIP3    H179807   4.646   0.453   4.121  1.4964 -0.9807  1.5409
19464TIP3    H279808   4.705   0.589   4.151 -0.6654  0.7137 -1.4382
19465TIP3   OH279809   6.593   1.142  16.243 -0.1422 -0.4673  0.2893
19465TIP3    H179810   6.652   1.097  16.305  1.6228 -1.4005 -1.9372
19465TIP3    H279811   6.644   1.215  16.210 -0.9332 -0.1901 -0.3458
19466TIP3   OH279812   1.695   0.317  14.257  0.8104 -0.5182  0.5267
19466TIP3    H179813   1.638   0.379  14.302 -0.6218  0.9915 -2.9577
19466TIP3    H279814   1.686   0.236  14.306 -1.5078  0.6371  2.2130
19467TIP3   OH279815   2.860   4.712  17.099 -0.1973 -0.4833 -0.5786
19467TIP3    H179816   2.767   4.724  17.119 -0.6295  0.2941 -2.7447
19467TIP3    H279817   2.890   4.799  17.071  1.6427 -0.3418  1.5576
19468TIP3   OH279818   2.094   3.256  14.194  0.0755 -0.4190  0.1134
19468TIP3    H179819   2.108   3.275  14.287 -0.8106  0.6724  0.0523
19468TIP3    H279820   2.181   3.238  14.159  0.6907  1.2487  0.7221
19469TIP3   OH279821   3.644   5.480   1.121  0.2578 -0.1148  0.3760
19469TIP3    H179822   3.574   5.504   1.182 -0.3905 -0.6539 -0.1355
19469TIP3    H279823   3.650   5.555   1.062 -0.8235 -0.6082 -0.3918
19470TIP3   OH279824   4.228   1.738  13.498 -0.0711 -0.3700  0.1784
19470TIP3    H179825   4.175   1.761  13.575  1.0574 -2.6022  1.7310
19470TIP3    H279826   4.170   1.754  13.424 -1.7180  0.5018  1.5647
19471TIP3   OH279827   5.982   5.309  11.643 -0.1901  0.6939  0.2787
19471TIP3    H179828   6.009   5.387  11.692  1.2148  0.7669 -0.5469
19471TIP3    H279829   5.903   5.336  11.596 -0.2799  1.3092  0.7729
19472TIP3   OH279830   0.172   2.024   0.869 -0.4701 -0.1482 -0.2187
19472TIP3    H179831   0.138   1.936   0.885 -0.7909 -0.1806 -1.0190
19472TIP3    H279832   0.099   2.071   0.828 -0.3438  0.5294  0.3195
19473TIP3   OH279833   0.815   1.525   2.521 -0.2940  0.0989  0.3030
19473TIP3    H179834   0.865   1.530   2.440 -1.1136  0.7809 -0.1829
19473TIP3    H279835   0.833   1.437   2.555  2.6192  0.9096  1.0898
19474TIP3   OH279836   0.430   1.866  10.878  0.1818 -0.0047 -0.0843
19474TIP3    H179837   0.418   1.789  10.822  0.4450 -1.5318  1.8746
19474TIP3    H279838   0.379   1.847  10.957 -0.0157  1.9954  0.3246
19475TIP3   OH279839   6.178   3.043   3.010 -0.6278 -0.0617 -0.0822
19475TIP3    H179840   6.193   3.131   3.045 -1.8140 -0.1412  0.6490
19475TIP3    H279841   6.163   2.988   3.087  3.5859 -1.7317 -0.1762
19476TIP3   OH279842   0.908   1.515  13.009  0.1422 -0.1339  0.5328
19476TIP3    H179843   0.880   1.500  12.919 -0.4947  0.8420  0.5471
19476TIP3    H279844   0.983   1.458  13.021  0.5867  0.1336 -0.8091
19477TIP3   OH279845   0.281   5.915  16.014 -0.1958  0.0663  0.0198
19477TIP3    H179846   0.229   5.953  16.085 -0.4801  1.2638 -0.8038
19477TIP3    H279847   0.251   5.824  16.009 -1.3033  0.3877  0.4053
19478TIP3   OH279848   5.255   3.018   2.816  0.1120  0.1787 -0.3913
19478TIP3    H179849   5.188   2.953   2.796  1.1723 -1.2326  0.4736
19478TIP3    H279850   5.254   3.026   2.911  1.1830  0.0817 -0.3538
19479TIP3   OH279851   4.434   2.447  12.880 -0.1554 -0.7097 -0.3287
19479TIP3    H179852   4.503   2.393  12.841 -1.2043 -1.4836 -1.1753
19479TIP3    H279853   4.448   2.534  12.842  1.1044 -0.5337  0.4810
19480TIP3   OH279854   6.228   3.226  17.345  0.1854 -0.2445 -0.6241
19480TIP3    H179855   6.181   3.233  17.428  1.3986  0.6943  0.0151
19480TIP3    H279856   6.301   3.287  17.353 -0.3964  0.8654 -2.8969
19481TIP3   OH279857   1.951   1.396  11.658  0.0661 -0.0867  0.8603
19481TIP3    H179858   2.024   1.428  11.604  0.0544  0.6816  1.2844
19481TIP3    H279859   1.976   1.307  11.682  0.0571 -0.4701 -0.4391
19482TIP3   OH279860   3.806   4.918   0.314  1.0408  0.2710  0.3719
19482TIP3    H179861   3.901   4.924   0.315  1.1529 -0.7007 -0.9674
19482TIP3    H279862   3.787   4.862   0.239 -0.5332 -0.6568  1.4098
19483TIP3   OH279863   0.616   6.189   3.966 -0.1690 -0.3137 -0.9271
19483TIP3    H179864   0.600   6.260   3.904 -0.6309  2.3959  2.0044
19483TIP3    H279865   0.529   6.154   3.985 -0.1189 -0.5974 -1.2211
19484TIP3   OH279866   6.170   1.732  14.429  0.2281 -0.1335 -0.6328
19484TIP3    H179867   6.118   1.685  14.494  1.3397 -1.0397 -0.3840
19484TIP3    H279868   6.124   1.717  14.347 -0.7683  0.3887 -0.1891
19485TIP3   OH279869   1.582   2.509   2.668  0.1793  0.0876 -0.3123
19485TIP3    H179870   1.658   2.519   2.611 -0.0214 -0.2150 -0.6366
19485TIP3    H279871   1.602   2.563   2.745  0.7234  0.0013 -0.3915
19486TIP3   OH279872   5.180   6.545  17.093  0.3043  0.8601  0.4709
19486TIP3    H179873   5.156   6.638  17.094  0.6712  0.9594  1.4701
19486TIP3    H279874   5.097   6.498  17.094  0.1181  1.1908  1.1298
19487TIP3   OH279875   0.273   1.659  13.315  0.4115  0.1207 -0.3855
19487TIP3    H179876   0.315   1.718  13.253 -0.8430  0.3612 -1.0323
19487TIP3    H279877   0.316   1.678  13.399  0.6618  1.3001 -0.7577
19488TIP3   OH279878   0.842   2.025  14.291  0.1386 -0.5421  0.2462
19488TIP3    H179879   0.932   1.997  14.308  0.0459  0.0740  1.9597
19488TIP3    H279880   0.852   2.106  14.241  0.5978 -0.0928  1.0217
19489TIP3   OH279881   4.120   6.240   6.628 -0.1352  0.0399 -0.3845
19489TIP3    H179882   4.084   6.311   6.681 -0.5802  0.8171 -1.6858
19489TIP3    H279883   4.161   6.284   6.554 -0.8239 -1.0701 -1.4545
19490TIP3   OH279884   1.575   1.400  13.071  0.0810 -0.5213  0.2331
19490TIP3    H179885   1.634   1.412  13.145  1.8992  3.7054 -1.6120
19490TIP3    H279886   1.632   1.378  12.998 -1.1665 -0.4719 -0.7871
19491TIP3   OH279887   4.540   4.260  10.491 -0.0279 -0.0652  0.0314
19491TIP3    H179888   4.469   4.202  10.467 -0.5791 -0.0126  1.4333
19491TIP3    H279889   4.584   4.281  10.408 -1.2213 -0.6259 -0.7603
19492TIP3   OH279890   2.842   1.862   5.285  0.0208 -0.3695 -0.1524
19492TIP3    H179891   2.925   1.883   5.327  1.3695  1.0934 -3.2796
19492TIP3    H279892   2.865   1.798   5.217 -1.8770 -1.8404  0.4882
19493TIP3   OH279893   5.054   3.721   5.527  0.5711 -0.3676 -0.3495
19493TIP3    H179894   4.964   3.718   5.559  0.0794  2.2599 -1.2177
19493TIP3    H279895   5.082   3.629   5.525 -1.7730 -1.1891  0.7327
19494TIP3   OH279896   3.911   2.170  16.382  0.3708  0.4893 -0.5548
19494TIP3    H179897   3.823   2.170  16.418  0.1652  0.0551 -1.0284
19494TIP3    H279898   3.913   2.245  16.323  0.6461  1.0859  0.2014
19495TIP3   OH279899   5.279   5.652  16.187  0.1303  0.6921 -0.2215
19495TIP3    H179900   5.344   5.609  16.242  0.5785  1.7195  0.0862
19495TIP3    H279901   5.316   5.649  16.099  0.5352  1.1500 -0.0686
19496TIP3   OH279902   6.675   6.450  13.758  0.5071 -0.1369 -0.4994
19496TIP3    H179903   6.678   6.392  13.681 -0.3974  1.1189 -1.5370
19496TIP3    H279904   6.607   6.412  13.813  0.1129 -0.2308 -1.0371
19497TIP3   OH279905   4.774   4.237  11.709  0.0355 -0.5668  0.4071
19497TIP3    H179906   4.864   4.230  11.740 -0.2163  0.8928  1.6117
19497TIP3    H279907   4.768   4.177  11.635  2.0925 -0.3772  0.0562
19498TIP3   OH279908   1.962   2.666  11.078 -0.2479 -0.0549  0.1222
19498TIP3    H179909   2.050   2.695  11.101 -0.7614  1.2232  0.5442
19498TIP3    H279910   1.912   2.746  11.064 -1.4242 -0.7437  0.1617
19499TIP3   OH279911   2.055   2.465  12.459 -1.0858  0.3847  0.6532
19499TIP3    H179912   2.114   2.540  12.449 -2.5885  1.6366  0.9117
19499TIP3    H279913   2.104   2.403  12.513  1.2288 -0.0141 -1.6710
19500TIP3   OH279914   5.381   4.087   0.611  0.5898 -0.5514  0.1281
19500TIP3    H179915   5.365   4.023   0.681 -1.2464 -0.1240  0.1598
19500TIP3    H279916   5.384   4.171   0.656  1.2069 -0.4388 -0.1150
19501TIP3   OH279917   2.582   4.148  16.900 -0.0130  0.5880  0.2304
19501TIP3    H179918   2.578   4.228  16.847  1.0688 -1.0626 -2.5562
19501TIP3    H279919   2.490   4.124  16.914 -0.3357  1.9322  0.4885
19502TIP3   OH279920   2.507   1.575  11.762 -0.3902  0.1335 -0.1406
19502TIP3    H179921   2.479   1.484  11.749  3.1649 -1.2827  0.9016
19502TIP3    H279922   2.534   1.604  11.675 -0.5504 -0.2095 -0.3068
19503TIP3   OH279923   0.953   5.158   0.063  0.6511 -0.0273 -0.3110
19503TIP3    H179924   0.994   5.217  -0.001 -0.4677  0.7889 -0.3081
19503TIP3    H279925   0.890   5.213   0.110  2.0684 -0.3667  2.1566
19504TIP3   OH279926   1.223   3.371  16.528 -0.3237  0.3175  0.9932
19504TIP3    H179927   1.132   3.364  16.557 -0.0252 -0.9562  1.7100
19504TIP3    H279928   1.257   3.281  16.533  0.5746  0.5366 -0.6363
19505TIP3   OH279929   6.397   6.557   5.297  0.0761 -0.1366 -0.0969
19505TIP3    H179930   6.365   6.562   5.387 -0.2350  0.4431 -0.2355
19505TIP3    H279931   6.357   6.632   5.253  0.8705  0.0515 -0.5136
19506TIP3   OH279932   0.842   5.916  11.053 -0.2425  0.2068  0.0186
19506TIP3    H179933   0.801   5.842  11.098  0.4857  0.4344  1.0780
19506TIP3    H279934   0.867   5.881  10.968 -3.0774  0.1893 -0.9290
19507TIP3   OH279935   4.101   2.065   5.441 -0.3634 -0.0436 -0.1098
19507TIP3    H179936   4.038   2.034   5.375  0.0004 -0.8234 -0.1086
19507TIP3    H279937   4.053   2.062   5.523 -0.4235 -0.3462 -0.1534
19508TIP3   OH279938   3.833   1.359   0.530  0.3315 -0.2795 -0.1897
19508TIP3    H179939   3.763   1.341   0.467  0.7887  1.7551 -1.3950
19508TIP3    H279940   3.856   1.451   0.514  1.6772 -0.2062  1.7883
19509TIP3   OH279941   2.054   3.644   5.453 -0.1992 -0.6898  0.1414
19509TIP3    H179942   1.989   3.602   5.397  2.0943 -3.1241 -0.8866
19509TIP3    H279943   2.123   3.672   5.393 -0.0614  1.5206  1.2354
19510TIP3   OH279944   6.117   3.410  15.141 -0.1195 -0.0749  0.2745
19510TIP3    H179945   6.205   3.378  15.123  0.0599 -1.1052  2.6094
19510TIP3    H279946   6.129   3.493  15.187 -0.4551  0.6814 -0.9507
19511TIP3   OH279947   5.069   5.367   0.681 -0.2407 -0.0104  0.4742
19511TIP3    H179948   5.147   5.312   0.690  0.6062  1.4389  3.0509
19511TIP3    H279949   5.101   5.446   0.637 -0.0164  0.8790  2.1514
19512TIP3   OH279950   5.644   1.447   2.181 -0.1212 -0.3599 -0.1772
19512TIP3    H179951   5.562   1.402   2.160  0.1310 -0.5430 -0.8150
19512TIP3    H279952   5.656   1.508   2.108 -0.2386  0.4373  0.4647
19513TIP3   OH279953   1.892   0.850   1.562 -0.2433  0.8750 -0.5231
19513TIP3    H179954   1.943   0.784   1.609 -2.1599 -0.2374  0.0860
19513TIP3    H279955   1.958   0.911   1.529  1.5752 -1.1692 -0.8942
19514TIP3   OH279956   3.443   4.091  17.271 -0.1819  0.3005  0.1130
19514TIP3    H179957   3.481   4.003  17.262 -0.4500  0.1730  0.2121
19514TIP3    H279958   3.517   4.147  17.296 -0.0164  0.0955  0.0828
19515TIP3   OH279959   1.516   3.733   0.104 -0.1644 -0.4356  0.4487
19515TIP3    H179960   1.432   3.776   0.088 -1.5768 -1.9596  3.0715
19515TIP3    H279961   1.567   3.799   0.152  0.6958  0.8893 -2.0678
19516TIP3   OH279962   5.716   1.030  16.035 -0.0862 -0.0147  0.0579
19516TIP3    H179963   5.754   1.113  16.006 -0.0482 -0.1568 -0.3042
19516TIP3    H279964   5.728   0.971  15.960 -0.4136 -0.2500  0.1901
19517TIP3   OH279965   3.693   5.075  16.466 -0.1873 -0.1761 -0.0410
19517TIP3    H179966   3.682   5.169  16.457  0.4059 -0.2080 -1.4324
19517TIP3    H279967   3.655   5.039  16.386  0.1973 -1.0530  0.1558
19518TIP3   OH279968   1.182   2.538  11.608 -0.6459  0.5247  0.0236
19518TIP3    H179969   1.174   2.499  11.695 -1.1518  1.3886  0.3783
19518TIP3    H279970   1.273   2.522  11.583 -0.6629 -0.2693  0.4513
19519TIP3   OH279971   3.490   0.796  12.200  0.0919  0.6204  0.2462
19519TIP3    H179972   3.423   0.734  12.231 -0.0641 -0.0667 -1.3932
19519TIP3    H279973   3.536   0.822  12.280 -0.5006 -0.8178  1.1075
19520TIP3   OH279974   0.691   3.711  14.108 -0.2285 -0.0564 -0.0388
19520TIP3    H179975   0.661   3.662  14.031  0.7585 -0.1457 -0.3812
19520TIP3    H279976   0.713   3.643  14.172 -0.8070  0.0116  0.2432
19521TIP3   OH279977   0.058   1.272   5.558 -0.3562  0.1285  0.3839
19521TIP3    H179978  -0.028   1.284   5.599 -0.3630 -1.7111  1.0320
19521TIP3    H279979   0.046   1.198   5.498  0.8236 -0.3620  0.7156
19522TIP3   OH279980   0.854   0.055  12.980 -0.6010 -0.2812  0.1066
19522TIP3    H179981   0.921  -0.003  13.016  0.1242  1.1543  1.1197
19522TIP3    H279982   0.773   0.026  13.021 -0.2447 -0.5723  0.6168
19523TIP3   OH279983   2.112   0.626  11.846 -0.1284 -0.2640 -0.2365
19523TIP3    H179984   2.129   0.532  11.849 -0.8966 -0.4799 -1.5362
19523TIP3    H279985   2.197   0.667  11.860  0.1736 -1.1438  0.5852
19524TIP3   OH279986   2.801   4.159  12.607 -0.2184 -0.0021  0.1312
19524TIP3    H179987   2.711   4.149  12.577 -0.2755 -1.2782  0.6456
19524TIP3    H279988   2.796   4.222  12.679 -0.6287  0.2710 -0.1340
19525TIP3   OH279989   0.279   4.524   0.811 -0.5849  0.2092  0.1302
19525TIP3    H179990   0.272   4.615   0.785  1.1329  0.0380 -1.0741
19525TIP3    H279991   0.221   4.477   0.752 -0.5662  0.3960 -0.0375
19526TIP3   OH279992   1.203   5.498   5.002  0.0027 -1.0253 -0.4107
19526TIP3    H179993   1.234   5.488   5.092  0.1416  1.0009 -0.1693
19526TIP3    H279994   1.256   5.438   4.950  3.7242  1.4371  0.1535
19527TIP3   OH279995   4.538   5.062   5.852  0.3949 -0.3743 -0.6231
19527TIP3    H179996   4.546   4.993   5.787  1.1510 -0.0131 -0.9320
19527TIP3    H279997   4.624   5.064   5.895  0.0646 -0.2768  0.0450
19528TIP3   OH279998   5.317   1.564  11.690  0.3455 -0.4845 -0.1820
19528TIP3    H179999   5.252   1.549  11.621  0.8743  0.6056 -0.9541
19528TIP3    H280000   5.280   1.522  11.767 -0.0170 -2.2273 -1.2485
19529TIP3   OH280001   3.333   3.546   3.916 -0.2814 -0.3976 -0.1334
19529TIP3    H180002   3.268   3.559   3.847 -1.0367 -0.5440  0.5352
19529TIP3    H280003   3.318   3.457   3.946 -0.0436 -0.2948  0.2965
19530TIP3   OH280004   2.781   6.200   3.393 -0.0473  0.3167  0.1431
19530TIP3    H180005   2.697   6.198   3.440 -0.0415 -1.9463  0.1734
19530TIP3    H280006   2.838   6.254   3.448 -0.2032 -1.7451  2.5289
19531TIP3   OH280007   6.302   5.949   3.665 -0.0450 -0.3484 -0.2892
19531TIP3    H180008   6.311   5.869   3.612  0.0934 -0.3301 -0.2919
19531TIP3    H280009   6.357   6.013   3.621  0.1956 -0.3787 -0.0308
19532TIP3   OH280010   6.554   4.807  15.330 -0.6323 -0.1986 -0.4115
19532TIP3    H180011   6.609   4.729  15.338 -0.6653 -0.0858  1.0800
19532TIP3    H280012   6.606   4.878  15.369  0.6531  1.2582 -4.2444
19533TIP3   OH280013   1.785   6.677   1.819  0.4500  0.2302 -0.1213
19533TIP3    H180014   1.744   6.606   1.770  0.4426  1.6197 -2.2545
19533TIP3    H280015   1.718   6.745   1.825  1.6574  1.6926 -1.8346
19534TIP3   OH280016   2.638   6.608   0.329  0.3963  0.0052 -1.3522
19534TIP3    H180017   2.702   6.556   0.280  0.9159 -1.0546  0.3660
19534TIP3    H280018   2.588   6.543   0.378  0.2104  1.0368 -0.1395
19535TIP3   OH280019   1.648   2.364  14.789 -0.4792  0.0234  0.2939
19535TIP3    H180020   1.554   2.353  14.774 -0.3679  0.0608 -0.4668
19535TIP3    H280021   1.662   2.459  14.782 -0.0863 -0.1347 -1.5295
19536TIP3   OH280022   2.840   4.079  16.263  0.3230  0.4636 -0.1811
19536TIP3    H180023   2.934   4.065  16.273  0.4819 -0.1554 -2.1223
19536TIP3    H280024   2.809   4.103  16.351  2.0645 -0.5867  0.7622
19537TIP3   OH280025   4.589   0.945  13.510  0.0225 -0.0465  0.0720
19537TIP3    H180026   4.533   0.903  13.575 -0.9687 -0.0007 -0.7362
19537TIP3    H280027   4.554   1.034  13.502  0.9632  0.3697  0.4206
19538TIP3   OH280028   5.073   0.953  15.336 -0.0075  0.2266 -0.9075
19538TIP3    H180029   5.139   0.935  15.269  0.4570 -0.8666 -0.1903
19538TIP3    H280030   5.124   0.979  15.413 -0.3131 -1.5494 -0.0506
19539TIP3   OH280031   3.444   1.173   2.134 -0.2022 -0.2559 -0.6829
19539TIP3    H180032   3.412   1.219   2.056 -1.2921 -1.6109 -1.0650
19539TIP3    H280033   3.435   1.080   2.113 -1.3278 -0.6593  1.3568
19540TIP3   OH280034   2.690   5.596  15.347 -0.1826  0.1331  0.6117
19540TIP3    H180035   2.636   5.543  15.406  1.1363  0.1056  1.8469
19540TIP3    H280036   2.718   5.670  15.400  0.6042  0.3997 -0.1512
19541TIP3   OH280037   5.268   4.895  15.910 -0.0132 -0.3211 -0.5655
19541TIP3    H180038   5.350   4.858  15.879 -1.1887 -3.1845 -0.5770
19541TIP3    H280039   5.294   4.959  15.977  2.1980 -1.0463 -0.6633
19542TIP3   OH280040   0.299   5.225   0.170 -0.7012  0.6801 -0.0075
19542TIP3    H180041   0.289   5.282   0.094  0.1987  0.4746 -0.2851
19542TIP3    H280042   0.212   5.226   0.212 -1.2382  0.7107 -1.0874
19543TIP3   OH280043   2.209   3.759  12.539 -0.3612  0.7742 -0.5634
19543TIP3    H180044   2.162   3.841  12.552  2.4188  2.6777 -1.6799
19543TIP3    H280045   2.184   3.731  12.451  0.0970  1.4601 -0.9219
19544TIP3   OH280046   5.526   6.182  17.099 -0.1104  0.1420  0.0225
19544TIP3    H180047   5.540   6.128  17.177  0.2329  0.3887  0.1339
19544TIP3    H280048   5.596   6.154  17.039 -0.0969  0.2721 -0.0218
19545TIP3   OH280049   1.471   0.114  17.309 -0.1769 -0.0401  0.1420
19545TIP3    H180050   1.488   0.151  17.222 -1.2626  0.5216  0.1445
19545TIP3    H280051   1.502   0.024  17.303  0.6552  0.2793 -0.5185
19546TIP3   OH280052   0.014   6.446  15.108 -0.3023 -0.2516 -0.0620
19546TIP3    H180053   0.021   6.354  15.082 -1.5685 -0.0538 -1.2179
19546TIP3    H280054   0.051   6.448  15.196  1.2578 -1.5476 -0.6275
19547TIP3   OH280055   0.442   0.709  11.153 -1.2635  0.3683  0.0597
19547TIP3    H180056   0.526   0.736  11.190 -1.6257  0.0714  1.1287
19547TIP3    H280057   0.454   0.617  11.131  0.2758  1.3862 -4.4474
19548TIP3   OH280058   3.509   3.770   1.689  0.4084 -0.3393  0.2093
19548TIP3    H180059   3.515   3.710   1.615 -1.3232 -0.3505  0.0305
19548TIP3    H280060   3.450   3.839   1.660  2.9935  1.9983  0.1083
19549TIP3   OH280061   4.801   4.843  14.259 -0.1741  0.1276 -0.1062
19549TIP3    H180062   4.819   4.866  14.350  0.2491 -0.7822  0.0529
19549TIP3    H280063   4.788   4.749  14.260  0.7949 -0.0459 -1.1295
19550TIP3   OH280064   5.800   0.929  12.056 -0.4808  0.0958 -0.8472
19550TIP3    H180065   5.765   0.998  12.112 -1.0313  0.4790 -1.6487
19550TIP3    H280066   5.815   0.855  12.115  0.8998  1.1463  0.1930
19551TIP3   OH280067   4.630   3.017  10.983 -0.0892 -0.3212  0.3349
19551TIP3    H180068   4.669   2.941  11.028  0.1726  0.2568  1.1119
19551TIP3    H280069   4.602   3.075  11.054 -0.7672  0.0778 -0.2451
19552TIP3   OH280070   4.839   2.703  12.520  0.5365 -0.2664 -0.3778
19552TIP3    H180071   4.899   2.733  12.452  0.9133 -0.1323  0.0086
19552TIP3    H280072   4.836   2.607  12.510 -0.1292 -0.1799 -1.1654
19553TIP3   OH280073   1.516   6.102   4.099 -0.1178  0.6024 -0.1516
19553TIP3    H180074   1.440   6.132   4.149 -0.1728 -0.5445  0.4853
19553TIP3    H280075   1.561   6.041   4.158 -1.5203 -2.7341 -2.3260
19554TIP3   OH280076   4.715   2.226   0.352 -0.4534  0.7453 -0.8126
19554TIP3    H180077   4.655   2.175   0.296 -1.8327  0.5689  0.7578
19554TIP3    H280078   4.660   2.257   0.424  1.0988  1.6670  0.0206
19555TIP3   OH280079   5.797   3.935  14.302 -0.9826  0.0125 -0.5052
19555TIP3    H180080   5.783   3.909  14.393  3.4230  1.1490  0.7592
19555TIP3    H280081   5.876   3.888  14.276 -0.1478  2.3285 -2.5007
19556TIP3   OH280082   4.117   5.208   2.402  0.4609 -0.2656  0.8224
19556TIP3    H180083   4.159   5.244   2.324  0.6720  0.5287  1.2885
19556TIP3    H280084   4.102   5.116   2.381  1.1293 -0.2196  0.1019
19557TIP3   OH280085   5.216   2.574   3.441  0.1123 -0.0998  0.5030
19557TIP3    H180086   5.173   2.656   3.415 -0.5024 -0.4676  0.3434
19557TIP3    H280087   5.166   2.506   3.397  1.3285 -0.4997 -0.2958
19558TIP3   OH280088   4.027   3.101  13.133 -0.2037 -0.6328 -0.2683
19558TIP3    H180089   4.112   3.060  13.121  2.4187  3.7581  1.1109
19558TIP3    H280090   4.010   3.146  13.050 -0.3272 -0.1369  0.0214
19559TIP3   OH280091   0.378   6.176  13.284  0.0945 -0.0828  0.5707
19559TIP3    H180092   0.412   6.110  13.224 -2.4281  0.5485 -1.7409
19559TIP3    H280093   0.299   6.137  13.320 -1.1473  1.4077 -0.4257
19560TIP3   OH280094   3.355   5.013  13.457  0.0925 -0.9192 -0.7054
19560TIP3    H180095   3.361   4.919  13.474  2.8492 -0.3687  2.2270
19560TIP3    H280096   3.443   5.039  13.429 -0.2699  0.9742 -0.2541
19561TIP3   OH280097   5.877   1.190   2.028 -0.7927  0.3439  0.2515
19561TIP3    H180098   5.807   1.138   2.067 -1.8683  0.2884 -1.6246
19561TIP3    H280099   5.849   1.204   1.937  1.5208  0.4942 -0.5242
19562TIP3   OH280100   2.732   2.182   3.589  0.6662 -0.5975 -0.0959
19562TIP3    H180101   2.819   2.179   3.630  0.2936  0.2639  0.7742
19562TIP3    H280102   2.742   2.129   3.509  1.2931 -2.7114  1.2894
19563TIP3   OH280103   2.432   2.136   2.696  0.6062  0.5699 -0.5616
19563TIP3    H180104   2.490   2.132   2.620  0.1191 -1.7350 -0.8673
19563TIP3    H280105   2.367   2.068   2.681  0.8538 -0.4251  2.2044
19564TIP3   OH280106   4.337   2.281  15.042  0.7696  0.1624  0.0390
19564TIP3    H180107   4.338   2.265  14.948 -0.1933 -0.1516  0.0753
19564TIP3    H280108   4.425   2.315  15.062  1.2190 -0.4610 -0.8467
19565TIP3   OH280109   6.750   3.825  11.386  0.1127  0.5034 -1.0254
19565TIP3    H180110   6.835   3.824  11.431 -0.1581  0.3280 -0.5063
19565TIP3    H280111   6.711   3.741  11.408 -0.4175  0.7960 -0.8235
19566TIP3   OH280112   0.955   0.826   0.419 -0.3157  0.4568  0.5585
19566TIP3    H180113   1.014   0.823   0.494 -1.2500  1.1667  1.3351
19566TIP3    H280114   1.004   0.874   0.352  0.9288 -1.0747  0.3071
19567TIP3   OH280115   5.883   1.775   5.909 -0.6901  0.0816 -0.4204
19567TIP3    H180116   5.927   1.822   5.839  1.0028 -0.4770  0.2236
19567TIP3    H280117   5.909   1.820   5.989 -1.3437 -0.2256 -0.0242
19568TIP3   OH280118   4.896   3.046  17.226  0.5012  0.0210  0.3448
19568TIP3    H180119   4.802   3.056  17.212 -0.0113 -1.2224  2.4970
19568TIP3    H280120   4.918   3.111  17.293  1.3675  0.8293 -0.6821
19569TIP3   OH280121   5.063   1.183  13.587 -0.3891 -0.0081 -0.2542
19569TIP3    H180122   4.996   1.246  13.612 -0.7420 -0.3014 -0.4390
19569TIP3    H280123   5.030   1.144  13.506  1.0644  1.4577 -1.6380
19570TIP3   OH280124   4.102   3.156  12.847 -0.1416 -0.3379 -0.0760
19570TIP3    H180125   4.194   3.134  12.834  0.0966  0.9578 -0.8366
19570TIP3    H280126   4.056   3.112  12.776  0.1034  0.2231 -0.5919
19571TIP3   OH280127   3.151   2.529  17.168 -0.2500  0.4449  1.2317
19571TIP3    H180128   3.149   2.530  17.263 -2.3776  0.6524  1.2162
19571TIP3    H280129   3.080   2.586  17.141 -0.4573 -0.5389 -0.4692
19572TIP3   OH280130   1.604   3.499  10.836  0.2734  0.4891  0.4612
19572TIP3    H180131   1.689   3.497  10.792  0.4249 -0.4769  0.7877
19572TIP3    H280132   1.544   3.532  10.770  0.7193  0.1987 -0.0952
19573TIP3   OH280133   3.705   5.123   1.363 -0.0935 -0.0852  0.0472
19573TIP3    H180134   3.789   5.146   1.404 -0.4631  0.2073  0.6564
19573TIP3    H280135   3.641   5.132   1.433 -0.8829  1.3150 -0.8020
19574TIP3   OH280136   5.035   0.808   3.585  0.1055 -0.4538  0.2138
19574TIP3    H180137   5.108   0.857   3.623  0.3284 -3.0696  3.7202
19574TIP3    H280138   5.071   0.768   3.506  1.2513  1.2887 -0.2088
19575TIP3   OH280139   1.756   4.633   4.154 -0.1960 -0.6303  0.1509
19575TIP3    H180140   1.756   4.684   4.073 -1.0914  0.4677  0.7965
19575TIP3    H280141   1.790   4.694   4.220 -1.2240 -0.8705  0.9366
19576TIP3   OH280142   5.280   4.572   2.852 -0.1718 -0.1697 -0.4212
19576TIP3    H180143   5.238   4.491   2.824  0.1923 -0.0240 -1.4356
19576TIP3    H280144   5.249   4.638   2.790  0.6469  0.1708 -0.4818
19577TIP3   OH280145   5.451   6.069   1.776 -0.3670  0.3691  0.0193
19577TIP3    H180146   5.494   6.048   1.694  0.0666 -0.3580  0.4288
19577TIP3    H280147   5.359   6.045   1.762  0.1620 -2.3203  0.6051
19578TIP3   OH280148   1.062   3.639   4.183  0.2833  0.0854 -0.3815
19578TIP3    H180149   1.134   3.581   4.160  0.2492 -0.2465  0.3077
19578TIP3    H280150   1.089   3.725   4.150  0.3960 -0.2875 -1.2778
19579TIP3   OH280151   3.847   6.501   1.457 -0.1124 -0.0984  0.5172
19579TIP3    H180152   3.778   6.558   1.424 -1.3527 -1.2930  0.9730
19579TIP3    H280153   3.909   6.495   1.384 -0.6518  0.7404 -0.0229
19580TIP3   OH280154   2.165   2.599   1.054 -0.0360  0.2566 -0.7019
19580TIP3    H180155   2.142   2.631   1.141  1.5874 -0.1558 -0.0988
19580TIP3    H280156   2.111   2.652   0.995 -1.0426  0.6543  0.5191
19581TIP3   OH280157   1.950   6.094   1.866  0.4996 -0.2619  0.5358
19581TIP3    H180158   1.956   6.128   1.956  0.1496  2.2216 -0.3154
19581TIP3    H280159   1.866   6.126   1.834  1.4318  0.4801 -1.2706
19582TIP3   OH280160   4.696   3.722   5.943  0.4652  0.2891 -0.2127
19582TIP3    H180161   4.617   3.669   5.948 -0.5811  1.4730 -2.4323
19582TIP3    H280162   4.708   3.755   6.032 -2.0502  0.7126  0.0611
19583TIP3   OH280163   5.963   2.637   3.637  0.2739 -0.0258  0.1326
19583TIP3    H180164   5.961   2.623   3.542  0.7678 -1.1981  0.2809
19583TIP3    H280165   5.871   2.636   3.663  0.1989 -1.0987 -0.1466
19584TIP3   OH280166   2.795   4.149   0.100 -0.4547 -0.3165  0.2410
19584TIP3    H180167   2.876   4.186   0.063 -0.7796 -1.1072 -1.3584
19584TIP3    H280168   2.825   4.088   0.167  0.3383 -1.0558 -0.7530
19585TIP3   OH280169   1.421   6.487   3.525 -0.5628 -0.0511 -0.3148
19585TIP3    H180170   1.503   6.535   3.532 -0.7912  0.7068 -2.2435
19585TIP3    H280171   1.440   6.400   3.562  0.3717  0.8877  1.5282
19586TIP3   OH280172   0.991   0.249   0.155  0.3285  0.0879  0.2923
19586TIP3    H180173   0.962   0.193   0.082 -0.2475 -0.2608  0.7765
19586TIP3    H280174   1.072   0.207   0.185  1.4679  1.1408 -1.1503
19587TIP3   OH280175   0.027   3.389   0.167  0.0267 -0.1558  0.5380
19587TIP3    H180176  -0.043   3.345   0.119  0.2679 -1.5144  1.3693
19587TIP3    H280177   0.001   3.481   0.169  0.1815  0.0334 -2.4213
19588TIP3   OH280178   5.516   4.050   4.653 -0.2209  0.5677  0.5548
19588TIP3    H180179   5.472   4.032   4.736 -0.2064  0.1390  0.4734
19588TIP3    H280180   5.598   4.002   4.659  1.1054  2.7897  1.4524
19589TIP3   OH280181   2.404   6.079   2.937  0.2084  0.0662  0.1094
19589TIP3    H180182   2.360   6.064   2.853  0.2681 -1.6568  0.3330
19589TIP3    H280183   2.401   6.173   2.950 -0.3433  0.3083 -1.5395
19590TIP3   OH280184   1.724   5.896  15.859 -0.2245 -0.2145  0.5678
19590TIP3    H180185   1.752   5.874  15.947 -0.7721  0.5695  0.9452
19590TIP3    H280186   1.628   5.901  15.864 -0.2648 -0.1808 -0.0725
19591TIP3   OH280187   3.325   5.176   1.640  0.1292 -0.1796 -0.9918
19591TIP3    H180188   3.260   5.230   1.593 -1.7812 -0.5223  1.0794
19591TIP3    H280189   3.409   5.213   1.614 -1.0038  2.3341 -1.4495
19592TIP3   OH280190   4.740   1.843   0.428 -0.4879 -0.3415 -0.2717
19592TIP3    H180191   4.773   1.860   0.516 -2.9260 -2.1453  1.1068
19592TIP3    H280192   4.801   1.778   0.392  1.7092  1.8628 -0.8445
19593TIP3   OH280193   1.803   1.518  11.397  0.1372 -0.2577  0.1924
19593TIP3    H180194   1.717   1.485  11.371  0.9175 -1.5347 -0.9457
19593TIP3    H280195   1.823   1.470  11.478  0.7597 -1.8275 -0.8278
19594TIP3   OH280196   2.552   4.291   1.346 -0.8773 -0.4201  0.1460
19594TIP3    H180197   2.565   4.385   1.360 -1.6199 -0.5521  2.0581
19594TIP3    H280198   2.617   4.268   1.279  1.2043  0.9650  1.5478
19595TIP3   OH280199   3.305   3.855   4.693 -0.0869 -0.1876 -0.2625
19595TIP3    H180200   3.334   3.912   4.622 -1.2103  0.2237 -0.4047
19595TIP3    H280201   3.343   3.769   4.672  1.5502  0.4645 -0.0844
19596TIP3   OH280202   3.311   0.977   3.889 -0.5058  0.2293 -0.4417
19596TIP3    H180203   3.350   1.041   3.947 -2.2947  2.9558 -2.0414
19596TIP3    H280204   3.381   0.952   3.829  0.3420  0.2882  0.5100
19597TIP3   OH280205   0.736   0.760   4.606  0.5574  0.3950  0.4806
19597TIP3    H180206   0.642   0.743   4.613  0.4009  1.0562  0.0648
19597TIP3    H280207   0.762   0.720   4.523  0.8672 -0.6928  1.0713
19598TIP3   OH280208   0.027   0.741  16.224  0.1700  0.0698  0.1822
19598TIP3    H180209  -0.063   0.770  16.211 -0.0419 -0.4453  0.4631
19598TIP3    H280210   0.028   0.703  16.312  0.6429  0.0037  0.1535
19599TIP3   OH280211   1.181   4.107   1.335 -0.1798 -0.5989 -0.8148
19599TIP3    H180212   1.227   4.117   1.418  1.0763  1.1393 -1.6501
19599TIP3    H280213   1.088   4.118   1.356  0.2587  1.7060  0.1254
19600TIP3   OH280214   3.132   1.707  15.516  0.6754 -0.4626 -0.3419
19600TIP3    H180215   3.208   1.667  15.560  0.9226 -0.3345 -0.6476
19600TIP3    H280216   3.105   1.777  15.576  1.4807  0.2035 -0.7238
19601TIP3   OH280217   4.226   6.445  14.387  0.1869 -0.1383  0.3781
19601TIP3    H180218   4.312   6.487  14.387 -0.8032  2.0047  0.7025
19601TIP3    H280219   4.214   6.414  14.476  1.1126 -1.6088  0.0280
19602TIP3   OH280220   5.762   2.835   5.460  0.1341 -0.8413  0.2854
19602TIP3    H180221   5.856   2.841   5.474  0.2122  0.2789 -0.6127
19602TIP3    H280222   5.753   2.809   5.368 -0.4140  1.5351 -0.4073
19603TIP3   OH280223   5.614   0.551  11.777  0.3148  0.1840 -0.6151
19603TIP3    H180224   5.603   0.554  11.682  0.2688 -0.6768 -0.6431
19603TIP3    H280225   5.694   0.499  11.790  1.2866  1.6966 -0.2265
19604TIP3   OH280226   0.638   2.718   2.489 -0.1595 -0.0977  0.6002
19604TIP3    H180227   0.701   2.696   2.420  0.8044  2.7386  0.4392
19604TIP3    H280228   0.614   2.634   2.527  2.6707 -1.4329 -0.2675
19605TIP3   OH280229   5.599   0.965   3.018  0.4864 -0.1286 -0.0827
19605TIP3    H180230   5.633   0.927   2.938  2.5971 -1.2781  1.2594
19605TIP3    H280231   5.505   0.946   3.017  0.8923 -2.3255 -1.1105
19606TIP3   OH280232   3.627   2.667   0.504 -0.3706  0.0367  0.2569
19606TIP3    H180233   3.668   2.680   0.419 -1.2573  0.1236 -0.1670
19606TIP3    H280234   3.590   2.752   0.527 -0.5722 -0.1117  0.4893
19607TIP3   OH280235   6.221   2.660   3.507 -0.1342  0.4265 -0.3484
19607TIP3    H180236   6.231   2.678   3.601  1.9938 -0.5209 -0.3486
19607TIP3    H280237   6.141   2.706   3.483 -1.1777  0.0678  2.0964
19608TIP3   OH280238   2.972   0.748  16.226  0.2342  0.5358  0.2472
19608TIP3    H180239   2.892   0.771  16.179  0.7182  3.7287  0.8095
19608TIP3    H280240   2.948   0.670  16.276 -1.5510 -0.4216 -1.9282
19609TIP3   OH280241   2.620   5.943  11.855  0.1345 -0.4735  0.1212
19609TIP3    H180242   2.701   5.924  11.809 -0.6814  1.5881 -2.3943
19609TIP3    H280243   2.552   5.939  11.788 -1.9981 -2.4839  2.1792
19610TIP3   OH280244   2.684   0.010  12.278 -0.2465  0.0737  0.1313
19610TIP3    H180245   2.692   0.027  12.372  0.9747 -1.7434  0.4133
19610TIP3    H280246   2.603  -0.041  12.270 -0.7664  0.8929  0.0732
19611TIP3   OH280247   3.055   4.247   2.453  0.3460  0.2832  0.0522
19611TIP3    H180248   3.005   4.242   2.534  0.1027  2.0193  0.0653
19611TIP3    H280249   3.142   4.212   2.476  0.6388  1.7537  1.4087
19612TIP3   OH280250   4.662   4.104  10.151  0.2581 -0.4413  0.1006
19612TIP3    H180251   4.577   4.075  10.182 -0.2585  0.1313 -0.7330
19612TIP3    H280252   4.669   4.195  10.179  0.5490 -0.4511  0.0657
19613TIP3   OH280253   4.893   1.617  14.546  0.0131  0.9034  0.3496
19613TIP3    H180254   4.927   1.561  14.477 -0.4308  0.7832  0.2252
19613TIP3    H280255   4.969   1.639  14.599  0.6580  2.3716 -1.1212
19614TIP3   OH280256   6.457   6.621   6.078 -0.3340  0.0960  0.4623
19614TIP3    H180257   6.463   6.585   5.990  1.6764 -2.9752  1.6590
19614TIP3    H280258   6.371   6.594   6.110 -0.7015  0.4262 -0.2425
19615TIP3   OH280259   5.557   4.682   5.283 -0.4951 -0.7396  0.7467
19615TIP3    H180260   5.547   4.613   5.348 -0.0567  0.6431  2.3586
19615TIP3    H280261   5.627   4.738   5.318 -0.5650  0.2962 -0.6920
19616TIP3   OH280262   1.658   3.052   3.511 -0.0441 -0.1645 -0.3177
19616TIP3    H180263   1.603   2.988   3.465  0.1843  0.6371 -1.7463
19616TIP3    H280264   1.597   3.103   3.564 -0.7122  0.6516 -1.8102
19617TIP3   OH280265   2.285   1.412  16.566 -0.0593 -0.0373 -0.4473
19617TIP3    H180266   2.296   1.362  16.646  0.0931 -0.6702 -0.8556
19617TIP3    H280267   2.369   1.404  16.521 -0.4683 -0.5524 -1.1499
19618TIP3   OH280268   5.449   0.796  15.206 -0.0250 -0.4068 -0.2402
19618TIP3    H180269   5.484   0.864  15.262 -0.5134  0.8779 -1.4298
19618TIP3    H280270   5.460   0.715  15.256 -0.2130  0.6354  1.5782
19619TIP3   OH280271   1.337   2.157   3.010 -0.1472  0.2468 -0.6364
19619TIP3    H180272   1.407   2.213   3.044 -0.7053  0.7664 -0.3236
19619TIP3    H280273   1.382   2.078   2.980  0.3297 -0.6656  2.1856
19620TIP3   OH280274   2.026   1.848  16.890 -0.2637 -0.3752  0.1306
19620TIP3    H180275   1.956   1.786  16.910 -0.3563 -0.8732 -1.5850
19620TIP3    H280276   2.011   1.922  16.949 -0.5057 -1.7055  1.7824
19621TIP3   OH280277   3.633   3.797   2.401 -0.4147  0.3665  0.3106
19621TIP3    H180278   3.658   3.771   2.489  0.2662 -2.8435 -0.7244
19621TIP3    H280279   3.702   3.858   2.373  0.8495 -0.6751  1.0607
19622TIP3   OH280280   2.490   1.019   0.862 -0.2543  0.5018  0.3463
19622TIP3    H180281   2.448   1.099   0.832 -0.9304  0.7056  1.7538
19622TIP3    H280282   2.517   1.038   0.952 -0.7507 -0.9525  0.8395
19623TIP3   OH280283   3.001   4.127  15.589  0.4848  0.2964 -0.8393
19623TIP3    H180284   3.016   4.076  15.510 -0.3982  1.2558 -1.6483
19623TIP3    H280285   2.929   4.186  15.567  0.9423  1.3404  0.3277
19624TIP3   OH280286   3.751   5.661  16.596 -0.0714  0.1262  0.0333
19624TIP3    H180287   3.713   5.731  16.543  0.8565  0.1368 -0.6551
19624TIP3    H280288   3.787   5.705  16.672  3.0536  0.9198 -1.7087
19625TIP3   OH280289   0.312   0.697  11.861  0.0968 -0.2475  0.6568
19625TIP3    H180290   0.275   0.728  11.944 -1.3297  0.8115 -0.3249
19625TIP3    H280291   0.255   0.625  11.835 -0.0224  0.0346  0.1381
19626TIP3   OH280292   4.559   6.343   1.498  0.5654 -0.5285 -0.1397
19626TIP3    H180293   4.530   6.258   1.465  0.6084 -0.3508 -0.6480
19626TIP3    H280294   4.545   6.403   1.425  2.5797 -0.5024 -0.5557
19627TIP3   OH280295   2.811   3.206  17.142 -0.2437  0.2013  0.6309
19627TIP3    H180296   2.755   3.199  17.218 -0.4367 -0.1218  0.4623
19627TIP3    H280297   2.887   3.256  17.172 -0.5174  0.4453  0.9168
19628TIP3   OH280298   5.844   4.784  12.583  0.0019  0.2774  0.0597
19628TIP3    H180299   5.838   4.696  12.620  0.1920  0.0116 -0.5415
19628TIP3    H280300   5.762   4.795  12.534  0.4846 -0.0107 -0.8287
19629TIP3   OH280301   6.438   4.365  14.681 -0.1097 -1.0417  0.1396
19629TIP3    H180302   6.495   4.434  14.646 -0.9150 -0.0742  0.6932
19629TIP3    H280303   6.458   4.363  14.774 -0.3999 -1.2662  0.1951
19630TIP3   OH280304   1.298   2.782  11.308  0.3340 -0.2591  0.0533
19630TIP3    H180305   1.234   2.712  11.298 -1.6826  1.6209 -0.9572
19630TIP3    H280306   1.251   2.861  11.284  2.3338  1.5678  1.7626
19631TIP3   OH280307   2.169   2.676  14.980  0.1522 -0.5035 -0.0377
19631TIP3    H180308   2.164   2.608  15.047  0.0067  0.3507  0.8499
19631TIP3    H280309   2.230   2.741  15.015 -0.5969  0.3874 -0.3160
19632TIP3   OH280310   2.506   4.909   1.036  0.3353 -0.0516 -0.3308
19632TIP3    H180311   2.601   4.903   1.047  0.5331  0.1358 -1.7081
19632TIP3    H280312   2.494   4.941   0.946 -1.0418 -1.0882 -0.5585
19633TIP3   OH280313   1.996   2.428  11.694  0.1765  0.1639 -0.1261
19633TIP3    H180314   2.005   2.469  11.609  0.0079  0.2866 -0.0853
19633TIP3    H280315   2.025   2.338  11.680  0.1029  0.1697 -0.3252
19634TIP3   OH280316   4.744   4.924   1.644  0.3896  0.2234 -0.0796
19634TIP3    H180317   4.686   4.999   1.658  1.0410  0.5748  0.8440
19634TIP3    H280318   4.801   4.951   1.573  0.4079  0.4868  0.0317
19635TIP3   OH280319   4.854   0.410  12.629 -0.6690 -0.2395 -0.1607
19635TIP3    H180320   4.874   0.503  12.639  1.9146 -0.4901 -2.0219
19635TIP3    H280321   4.792   0.407  12.555 -1.6139  0.0371  0.6014
19636TIP3   OH280322   5.588   3.716  11.417 -0.0924  0.2084 -0.4111
19636TIP3    H180323   5.633   3.663  11.351  0.1210 -0.0676 -0.0504
19636TIP3    H280324   5.648   3.717  11.491  0.1329  1.3854 -0.5902
19637TIP3   OH280325   5.187   2.492   1.777  0.0928 -0.3488  0.3447
19637TIP3    H180326   5.129   2.551   1.728  0.2616  0.0578  0.6322
19637TIP3    H280327   5.264   2.544   1.795  0.2037 -0.6327  0.6869
19638TIP3   OH280328   0.784   1.141   3.907 -0.0374 -0.8282 -0.1793
19638TIP3    H180329   0.808   1.053   3.934 -1.2415 -1.1418 -0.0630
19638TIP3    H280330   0.863   1.176   3.865  0.2805 -2.1673 -0.7521
19639TIP3   OH280331   6.571   1.811   1.123 -0.6512 -0.4214 -0.7308
19639TIP3    H180332   6.659   1.837   1.152 -0.4411 -1.1295 -0.6970
19639TIP3    H280333   6.529   1.778   1.203 -1.0491  0.1840 -0.6916
19640TIP3   OH280334   5.063   5.362   4.775 -0.0659  0.7910 -1.3294
19640TIP3    H180335   4.980   5.315   4.765 -0.5139  1.6250 -1.6401
19640TIP3    H280336   5.048   5.447   4.733  0.6821  1.2659 -0.6785
19641TIP3   OH280337   4.895   5.672  12.448  0.0555  0.5361 -0.3112
19641TIP3    H180338   4.954   5.681  12.374 -0.2093 -0.6014 -0.6671
19641TIP3    H280339   4.808   5.666  12.409 -0.0780 -0.1459  0.0866
19642TIP3   OH280340   1.166   5.432  16.503  0.3556  0.2840 -0.2581
19642TIP3    H180341   1.148   5.497  16.435 -2.7273  1.0061  1.0579
19642TIP3    H280342   1.202   5.484  16.575 -0.3040  0.2411  0.1100
19643TIP3   OH280343   0.759   0.228  13.531  0.0249  0.0074  0.1921
19643TIP3    H180344   0.697   0.203  13.462  1.8965 -0.4544 -1.4051
19643TIP3    H280345   0.734   0.317  13.555 -1.3216 -0.2152 -0.2837
19644TIP3   OH280346   5.173   4.465  13.183  0.0978 -0.8963  0.6381
19644TIP3    H180347   5.177   4.456  13.088  0.4859  0.7446  0.4778
19644TIP3    H280348   5.238   4.402  13.215  1.7711  0.2776 -0.3159
19645TIP3   OH280349   0.185   1.955  12.654  0.5816 -0.0971  0.3540
19645TIP3    H180350   0.155   2.017  12.587 -0.3674 -2.1062 -1.1560
19645TIP3    H280351   0.109   1.898  12.669  1.9882 -2.0304  0.3636
19646TIP3   OH280352   1.133   2.133  15.866  0.2489 -0.3843  0.1896
19646TIP3    H180353   1.041   2.153  15.880  0.0834 -1.1495  0.2652
19646TIP3    H280354   1.180   2.188  15.928 -0.2549 -1.1003  1.2476
19647TIP3   OH280355   3.279   4.816  13.986  0.2462 -0.0757 -0.0049
19647TIP3    H180356   3.235   4.802  13.902  0.8824 -1.3285 -0.1458
19647TIP3    H280357   3.234   4.757  14.047 -0.9314  1.5939  0.8314
19648TIP3   OH280358   3.323   2.690   5.349  0.2945  0.1320  0.3873
19648TIP3    H180359   3.379   2.762   5.377  0.6922 -0.7428  1.9679
19648TIP3    H280360   3.383   2.626   5.310 -0.1433  0.9201 -1.7125
19649TIP3   OH280361   5.710   5.377  11.131  0.5283 -0.2158  0.3431
19649TIP3    H180362   5.648   5.307  11.113  1.4647 -0.4814 -2.2320
19649TIP3    H280363   5.658   5.457  11.124  0.0340 -0.5236  0.4404
19650TIP3   OH280364   2.359   6.733  11.880 -0.3226  0.2113  0.1431
19650TIP3    H180365   2.407   6.802  11.835  1.3718 -1.2762 -0.4411
19650TIP3    H280366   2.283   6.717  11.824  1.1465 -0.8118 -1.6864
19651TIP3   OH280367   6.269   4.013  13.332 -0.0007 -0.8193  0.0986
19651TIP3    H180368   6.310   4.038  13.415 -0.3245 -2.5682  0.8230
19651TIP3    H280369   6.254   3.919  13.340 -0.2611 -0.9822 -1.8628
19652TIP3   OH280370   2.209   5.679   0.911  0.2831  0.1832  0.1159
19652TIP3    H180371   2.277   5.630   0.864 -0.2060  0.4284 -0.8787
19652TIP3    H280372   2.139   5.690   0.847 -0.8629 -0.3695  1.2293
19653TIP3   OH280373   4.660   5.569  14.270 -0.1397 -0.5619  0.7053
19653TIP3    H180374   4.720   5.496  14.288  1.1300  0.2890  0.0554
19653TIP3    H280375   4.575   5.527  14.256  0.4961 -1.8898  0.6776
19654TIP3   OH280376   4.655   1.439  14.446 -0.2604 -0.2133  0.3443
19654TIP3    H180377   4.734   1.474  14.404  0.1165 -2.3418 -0.8699
19654TIP3    H280378   4.585   1.498  14.418  0.4733  0.1283 -0.8673
19655TIP3   OH280379   1.466   4.342   0.279 -0.0119 -0.4293 -0.5520
19655TIP3    H180380   1.383   4.320   0.321  0.3216 -1.0264 -0.1981
19655TIP3    H280381   1.471   4.282   0.205  0.6756 -1.2396  0.1373
19656TIP3   OH280382   5.345   2.464   1.334  0.1340 -0.4985  0.3440
19656TIP3    H180383   5.414   2.529   1.319  0.0374 -0.4294  0.2021
19656TIP3    H280384   5.373   2.418   1.413 -1.2934  1.7189  2.2895
19657TIP3   OH280385   0.414   4.467  14.893 -0.2985 -0.1231 -0.1273
19657TIP3    H180386   0.436   4.441  14.982  0.0437 -0.1564 -0.2209
19657TIP3    H280387   0.410   4.384  14.845  1.9006  0.0364 -0.6791
19658TIP3   OH280388   2.009   3.263  10.865 -0.3499 -0.5051 -0.0954
19658TIP3    H180389   1.925   3.263  10.818  0.1887  0.8409 -1.1295
19658TIP3    H280390   2.019   3.352  10.896  1.8523  0.1093 -2.2265
19659TIP3   OH280391   1.016   3.291   3.766 -0.4158 -0.1542  0.2021
19659TIP3    H180392   0.942   3.323   3.714  0.4742  1.4338 -0.1417
19659TIP3    H280393   0.983   3.212   3.808 -1.7765 -0.3977 -1.2438
19660TIP3   OH280394   3.253   0.817   1.764  0.2318 -0.3614 -0.1522
19660TIP3    H180395   3.173   0.844   1.808  0.5530  0.7133 -0.1953
19660TIP3    H280396   3.259   0.874   1.687 -0.1552 -1.9942 -1.4497
19661TIP3   OH280397   0.156   1.732   3.553  0.4437  0.0249 -0.4192
19661TIP3    H180398   0.190   1.661   3.498 -0.8782 -0.6672 -0.3931
19661TIP3    H280399   0.178   1.812   3.505 -1.0365 -0.5769 -2.2270
19662TIP3   OH280400   0.476   3.478   2.973  0.0042 -0.2571 -0.5085
19662TIP3    H180401   0.410   3.415   2.943 -0.6318 -0.2464  0.8159
19662TIP3    H280402   0.448   3.562   2.936 -1.2459 -0.0859  0.7577
19663TIP3   OH280403   6.131   1.257  16.609 -0.2141 -0.1016 -0.6724
19663TIP3    H180404   6.153   1.349  16.626 -0.3863  0.2158 -2.0417
19663TIP3    H280405   6.199   1.208  16.655 -0.1685  0.6946  0.1539
19664TIP3   OH280406   0.137   0.675  17.393 -0.3145 -0.0072  0.2125
19664TIP3    H180407   0.103   0.764  17.381  0.1182  0.0363 -0.7861
19664TIP3    H280408   0.087   0.622  17.332  0.8457 -0.0755 -0.7114
19665TIP3   OH280409   5.948   5.055   4.292 -0.0082  0.1770  0.2104
19665TIP3    H180410   5.857   5.078   4.273 -0.3058 -0.7719  0.4194
19665TIP3    H280411   5.955   4.964   4.263  0.5791 -0.0958  1.1715
19666TIP3   OH280412   2.659   5.104  16.547 -0.4856 -0.2447 -0.4180
19666TIP3    H180413   2.660   5.191  16.589 -0.0142 -0.9511  1.1295
19666TIP3    H280414   2.748   5.093  16.514 -0.2302 -0.5516  0.3403
19667TIP3   OH280415   0.712   0.285  17.027 -0.6689 -0.1519  0.2647
19667TIP3    H180416   0.769   0.209  17.017 -1.1704 -0.3330 -1.5410
19667TIP3    H280417   0.765   0.360  17.002 -0.4804 -0.0056  1.0686
19668TIP3   OH280418   1.635   5.063   4.028  0.1227  0.2030 -0.1893
19668TIP3    H180419   1.619   5.141   4.080 -1.2418  0.3615 -0.7980
19668TIP3    H280420   1.556   5.010   4.038  1.2698 -1.4116  0.7056
19669TIP3   OH280421   3.026   1.807  17.119 -0.2856 -0.4104  0.3728
19669TIP3    H180422   2.955   1.742  17.109  1.2998 -2.4192  1.3443
19669TIP3    H280423   3.082   1.770  17.188  1.3599  1.4496  0.1117
19670TIP3   OH280424   5.154   4.946   0.877  0.6351 -0.2183  0.1634
19670TIP3    H180425   5.125   4.989   0.957  0.4583 -0.5067  0.2549
19670TIP3    H280426   5.219   4.882   0.906 -0.1637 -1.0320  0.1963
19671TIP3   OH280427   5.139   4.532   3.519 -0.1223  0.6784  0.0573
19671TIP3    H180428   5.220   4.536   3.468 -0.7234 -0.0433 -1.0043
19671TIP3    H280429   5.156   4.466   3.586 -0.6978 -1.5899 -1.8836
19672TIP3   OH280430   5.975   2.158   0.707 -0.5968 -0.1289  0.2860
19672TIP3    H180431   5.897   2.179   0.656 -0.8431  0.1413  0.7606
19672TIP3    H280432   5.982   2.230   0.770 -0.4787 -0.6069  0.8282
19673TIP3   OH280433   0.278   2.071   1.886 -0.0773  0.1253  0.0651
19673TIP3    H180434   0.225   1.991   1.878  1.3219 -0.7258 -1.2010
19673TIP3    H280435   0.214   2.141   1.899 -1.3447 -1.1877  1.3461
19674TIP3   OH280436   3.042   1.711  16.354 -0.4319 -0.4272  0.2781
19674TIP3    H180437   3.052   1.621  16.387 -1.0858  0.2637  2.5212
19674TIP3    H280438   2.950   1.718  16.330 -0.3024 -0.4437 -0.2394
19675TIP3   OH280439   1.661   5.997  14.649 -0.2760 -0.4825  0.2327
19675TIP3    H180440   1.700   5.935  14.710  1.7791 -0.8260 -1.3161
19675TIP3    H280441   1.634   5.943  14.574 -3.4738 -0.1947  1.0372
19676TIP3   OH280442   4.584   1.706   3.741 -0.1149  0.4060 -0.5782
19676TIP3    H180443   4.641   1.641   3.701  2.0179  2.0951 -0.4662
19676TIP3    H280444   4.586   1.686   3.835 -1.0155 -0.4922 -0.7416
19677TIP3   OH280445   2.963   5.502   3.899  0.1913  0.1019  0.2598
19677TIP3    H180446   2.918   5.505   3.983  2.0968  0.0010  1.3248
19677TIP3    H280447   3.029   5.571   3.904  2.3174 -1.8207  0.0541
19678TIP3   OH280448   1.291   3.621   1.905  0.5556 -0.2027  0.2511
19678TIP3    H180449   1.221   3.603   1.842  0.0252 -2.5879  1.3840
19678TIP3    H280450   1.367   3.640   1.852 -0.2096 -0.7901 -1.1032
19679TIP3   OH280451   0.132   1.019  15.925 -0.1128 -0.1662 -0.4662
19679TIP3    H180452   0.073   1.095  15.929 -0.8037 -0.7062 -0.2092
19679TIP3    H280453   0.074   0.943  15.926  0.5607 -0.7054 -0.9002
19680TIP3   OH280454   6.697   3.435   2.717 -0.1513 -0.2298 -0.6334
19680TIP3    H180455   6.747   3.419   2.637  2.6342  0.8704  0.7383
19680TIP3    H280456   6.710   3.356   2.770  0.3016  0.1300 -0.2007
19681TIP3   OH280457   2.867   4.276  11.661 -0.1805  0.0534 -0.2193
19681TIP3    H180458   2.910   4.268  11.575  0.2895  0.3722 -0.0229
19681TIP3    H280459   2.907   4.207  11.714  0.7177  0.8635  0.2056
19682TIP3   OH280460   3.332   5.826   4.960  0.0217 -0.2631 -0.8261
19682TIP3    H180461   3.352   5.905   5.009 -2.3829  0.2243 -0.5192
19682TIP3    H280462   3.326   5.757   5.026  1.2387 -0.5688 -1.0000
19683TIP3   OH280463   3.635   3.361   2.464  0.7446 -0.9801  0.4420
19683TIP3    H180464   3.710   3.386   2.411 -0.2713  0.2132 -0.4984
19683TIP3    H280465   3.649   3.405   2.548 -0.4044  1.9834 -0.7815
19684TIP3   OH280466   6.443   1.728  15.764 -0.2364  0.1830 -0.6775
19684TIP3    H180467   6.489   1.651  15.729  0.4347  0.3466 -0.1867
19684TIP3    H280468   6.362   1.693  15.799  0.8724 -0.6535  1.2454
19685TIP3   OH280469   3.273   2.896  14.229 -0.3357 -0.0861  0.2668
19685TIP3    H180470   3.341   2.938  14.281 -1.2391  1.7958  0.0190
19685TIP3    H280471   3.204   2.874  14.293  0.1580 -1.3319  0.4068
19686TIP3   OH280472   6.701   6.556  12.527 -0.5511 -0.2402  0.3540
19686TIP3    H180473   6.660   6.568  12.613 -0.8767  0.1140  0.1507
19686TIP3    H280474   6.628   6.534  12.468 -0.4734  0.5025 -0.0296
19687TIP3   OH280475   6.590   3.223  11.708  0.2432  0.3058  0.8086
19687TIP3    H180476   6.677   3.248  11.674  0.0362  1.2711  0.9449
19687TIP3    H280477   6.584   3.268  11.792  1.0859 -2.7129  2.6025
19688TIP3   OH280478   3.862   5.550  12.820  0.1384 -0.1683 -0.4695
19688TIP3    H180479   3.851   5.615  12.750 -1.0281 -0.5735 -0.6722
19688TIP3    H280480   3.873   5.467  12.775 -0.2819 -0.3858 -0.1755
19689TIP3   OH280481   1.540   1.984  14.372  0.2194 -0.2847 -0.0094
19689TIP3    H180482   1.612   2.026  14.325  0.4452 -0.1442  0.4578
19689TIP3    H280483   1.526   1.901  14.326 -0.3485  0.3569 -1.0611
19690TIP3   OH280484   4.010   2.257  13.636  0.6612  0.2739  0.3581
19690TIP3    H180485   4.079   2.306  13.593  0.9729  0.5354  1.1388
19690TIP3    H280486   4.056   2.186  13.682  0.2213 -0.7977 -0.7810
19691TIP3   OH280487   5.366   2.787   5.192  0.0225 -0.0263 -0.3107
19691TIP3    H180488   5.415   2.751   5.118 -1.2412  0.3330 -1.3628
19691TIP3    H280489   5.340   2.875   5.164 -0.2385  0.2267  0.6721
19692TIP3   OH280490   2.205   6.416   0.970 -0.3003 -0.4477  0.2567
19692TIP3    H180491   2.168   6.368   1.044 -0.5965 -0.1628  0.2967
19692TIP3    H280492   2.294   6.382   0.962 -0.6137 -1.2425  0.0698
19693TIP3   OH280493   1.502   2.562  11.630 -0.2994 -0.2106 -0.1547
19693TIP3    H180494   1.539   2.588  11.546  0.1340  2.1506  0.6996
19693TIP3    H280495   1.576   2.563  11.691 -0.8656 -0.4537  0.5556
19694TIP3   OH280496   4.635   5.606   5.735  0.2059  0.0272  0.4898
19694TIP3    H180497   4.638   5.606   5.639  0.1737  0.6536  0.4806
19694TIP3    H280498   4.727   5.598   5.761  0.3427  1.0098  0.3822
19695TIP3   OH280499   4.499   5.443   3.459  0.2156  0.5584  0.0867
19695TIP3    H180500   4.417   5.400   3.483  0.2608  0.2891 -0.2311
19695TIP3    H280501   4.495   5.451   3.364  0.1392  1.3993  0.1480
19696TIP3   OH280502   6.567   3.397  14.077  0.6138  1.0107 -0.2239
19696TIP3    H180503   6.613   3.314  14.070  0.5800  0.7864  1.8237
19696TIP3    H280504   6.632   3.463  14.051  1.1364  0.4812 -0.2741
19697TIP3   OH280505   2.720   6.177  16.657 -0.1092 -0.8299 -0.0498
19697TIP3    H180506   2.777   6.207  16.728 -2.0547 -0.6927  1.5160
19697TIP3    H280507   2.691   6.258  16.614 -1.5821 -0.6714  1.1685
19698TIP3   OH280508   2.279   1.219  10.838  0.2766 -0.0838 -0.5672
19698TIP3    H180509   2.296   1.256  10.751 -0.5655 -0.5921 -0.9610
19698TIP3    H280510   2.260   1.127  10.821 -0.1330 -0.1310  0.1379
19699TIP3   OH280511   3.314   0.905   2.831  0.4320  0.5252 -0.6544
19699TIP3    H180512   3.329   0.999   2.826  1.3749  0.3747 -0.7312
19699TIP3    H280513   3.246   0.895   2.898 -0.0507  1.2884 -1.0111
19700TIP3   OH280514   0.646   5.115  13.677  0.5068 -0.3495 -0.0204
19700TIP3    H180515   0.565   5.064  13.670  0.4881 -0.1028 -2.2108
19700TIP3    H280516   0.618   5.206  13.667  0.7791  0.0058  1.9372
19701TIP3   OH280517   1.468   3.322   1.834  0.2837 -0.1127 -0.0206
19701TIP3    H180518   1.439   3.300   1.923  1.8955  0.1175  0.5864
19701TIP3    H280519   1.466   3.238   1.787 -2.3396  0.0498 -0.3495
19702TIP3   OH280520   3.878   1.175   1.663  0.3071  0.1765  0.5059
19702TIP3    H180521   3.923   1.097   1.630 -2.5902 -0.7289 -1.7870
19702TIP3    H280522   3.816   1.141   1.728  1.0875  1.0352  1.7321
19703TIP3   OH280523   4.845   2.173   2.414 -0.2726  0.5287  0.1985
19703TIP3    H180524   4.909   2.210   2.353 -0.5857  0.9420  0.1190
19703TIP3    H280525   4.889   2.096   2.451 -0.6696 -0.7473 -1.7916
19704TIP3   OH280526   2.777   6.351  15.950  0.0415 -0.1028 -0.1621
19704TIP3    H180527   2.719   6.314  15.883 -1.3644  3.7346 -1.3640
19704TIP3    H280528   2.725   6.350  16.030 -0.1678 -0.3087 -0.3002
19705TIP3   OH280529   5.392   1.882   4.341 -0.1527  0.2023 -0.2796
19705TIP3    H180530   5.413   1.883   4.434  1.2376  0.2484 -0.5740
19705TIP3    H280531   5.391   1.975   4.316 -2.0235  0.2869 -0.0174
19706TIP3   OH280532   6.635   0.538  14.769  0.0044 -0.3454 -0.6158
19706TIP3    H180533   6.719   0.558  14.811 -1.0934  0.2971  1.3670
19706TIP3    H280534   6.597   0.469  14.824 -2.3992  1.9502  0.7810
19707TIP3   OH280535   5.219   5.125  10.885 -0.2059 -0.0005  0.0722
19707TIP3    H180536   5.175   5.083  10.811 -0.6615  0.1055  0.2821
19707TIP3    H280537   5.249   5.209  10.851  0.8268 -0.5373 -0.3896
19708TIP3   OH280538   5.833   2.344  12.917  0.2524 -0.3233  0.4552
19708TIP3    H180539   5.921   2.309  12.903 -0.3700 -1.3608 -1.1199
19708TIP3    H280540   5.817   2.398  12.839  0.6370  2.4673  2.1485
19709TIP3   OH280541   1.888   0.543   5.422 -0.7920  0.1916 -0.2622
19709TIP3    H180542   1.944   0.488   5.366  0.5397 -1.8697  2.7635
19709TIP3    H280543   1.807   0.493   5.430 -0.5548 -0.0878  0.4674
19710TIP3   OH280544   1.069   1.624   4.303  0.0120  0.6514  0.4039
19710TIP3    H180545   1.017   1.691   4.348  0.2198  1.0220  0.1055
19710TIP3    H280546   1.119   1.673   4.237  0.5251  0.2639  0.4959
19711TIP3   OH280547   3.611   0.505  17.012 -0.1203  0.1960 -0.1377
19711TIP3    H180548   3.554   0.571  16.971 -2.0470 -0.8861  0.6478
19711TIP3    H280549   3.693   0.511  16.963 -1.1913  1.2312 -1.9355
19712TIP3   OH280550   5.136   5.500   5.957 -0.7801  0.1639  0.1995
19712TIP3    H180551   5.143   5.595   5.965  1.3735 -0.0229  1.3123
19712TIP3    H280552   5.223   5.468   5.979 -1.4045 -2.0768 -0.3357
19713TIP3   OH280553   6.175   2.373  11.958 -0.1236  0.0489  1.1590
19713TIP3    H180554   6.225   2.403  11.882  2.8146  0.8469  3.1980
19713TIP3    H280555   6.090   2.416  11.950  0.9762  2.1471 -0.4178
19714TIP3   OH280556   4.181   0.932  12.429  0.0878  0.0175  0.0604
19714TIP3    H180557   4.135   0.900  12.352  0.9880 -0.7945 -0.1644
19714TIP3    H280558   4.137   1.014  12.451 -1.0751 -0.4354 -0.4738
19715TIP3   OH280559   1.759   1.548   0.206  0.0314 -0.0356 -0.3913
19715TIP3    H180560   1.733   1.463   0.170 -1.9551 -0.1711  1.1630
19715TIP3    H280561   1.847   1.533   0.241 -0.0352 -1.2843 -0.6985
19716TIP3   OH280562   2.455   3.533   2.025 -0.2047 -0.0207  0.2047
19716TIP3    H180563   2.434   3.603   1.964 -0.8111  0.6281  1.1274
19716TIP3    H280564   2.505   3.469   1.973 -0.8998  0.3927 -1.0085
19717TIP3   OH280565   5.331   4.031   2.932 -0.7908 -0.1557 -0.6271
19717TIP3    H180566   5.344   3.953   2.879 -0.9824  0.7534 -2.0787
19717TIP3    H280567   5.417   4.046   2.973 -0.0187  0.2294 -2.2921
19718TIP3   OH280568   3.598   0.914   2.808  0.0941  0.1361 -0.0293
19718TIP3    H180569   3.636   0.881   2.889  0.2716 -2.7146 -1.1610
19718TIP3    H280570   3.504   0.898   2.817 -0.0613  1.0370  0.0980
19719TIP3   OH280571   1.109   2.242  14.122 -0.1573  0.0619 -0.9232
19719TIP3    H180572   1.020   2.274  14.108  0.8119  2.8989 -1.1737
19719TIP3    H280573   1.143   2.226  14.034  0.6566  2.3237 -1.0660
19720TIP3   OH280574   6.200   4.707  13.931  0.6243 -0.3284  0.5508
19720TIP3    H180575   6.130   4.675  13.989 -1.8843  1.1759 -1.4231
19720TIP3    H280576   6.197   4.802  13.941  3.6549 -0.2298  1.6319
19721TIP3   OH280577   3.711   1.938   3.978  0.2524  0.3747 -0.2097
19721TIP3    H180578   3.627   1.931   3.932  0.1351  0.8942 -0.0815
19721TIP3    H280579   3.700   1.885   4.057  0.3141 -0.1856 -0.5692
19722TIP3   OH280580   1.748   5.599  15.774 -0.3857  0.3539  0.0465
19722TIP3    H180581   1.830   5.641  15.798  0.2359 -0.2640 -0.9178
19722TIP3    H280582   1.701   5.589  15.857  0.6808  0.3510  0.6739
19723TIP3   OH280583   6.067   5.331   5.712  0.1208  0.6636  0.1032
19723TIP3    H180584   6.055   5.293   5.799 -1.7186  2.6073  0.7877
19723TIP3    H280585   5.991   5.301   5.662 -0.0423  1.3948 -0.1023
19724TIP3   OH280586   3.001   6.635  11.671 -0.0852 -0.6823  0.1264
19724TIP3    H180587   2.956   6.573  11.728  0.5492 -1.9308 -0.6816
19724TIP3    H280588   3.078   6.663  11.721  0.2111 -1.4047  0.0829
19725TIP3   OH280589   5.274   3.358  12.859  0.0744 -0.2446  0.7588
19725TIP3    H180590   5.349   3.365  12.800 -0.6783  0.3713 -0.1667
19725TIP3    H280591   5.302   3.298  12.927  0.6246 -1.8750 -0.8178
19726TIP3   OH280592   5.031   6.195  14.327  0.0082 -0.1603  0.0962
19726TIP3    H180593   5.015   6.114  14.280 -0.0117  0.6465 -1.3444
19726TIP3    H280594   5.096   6.242  14.274  0.2489  0.6339  1.0534
19727TIP3   OH280595   0.863   2.493   0.799  0.2203  0.8299  1.0505
19727TIP3    H180596   0.930   2.432   0.768 -1.0834 -1.4979  2.4974
19727TIP3    H280597   0.903   2.535   0.876  0.8677  1.3131  0.4634
19728TIP3   OH280598   1.676   2.131  14.941 -0.2167 -0.5677 -0.4283
19728TIP3    H180599   1.636   2.201  14.888 -0.8064 -1.1110 -0.7163
19728TIP3    H280600   1.696   2.174  15.025  0.3524  0.1964 -0.9370
19729TIP3   OH280601   0.486   2.870   1.685  0.6712  0.3082  0.0018
19729TIP3    H180602   0.394   2.881   1.708  0.6805  1.1746 -0.3284
19729TIP3    H280603   0.526   2.955   1.704  1.7821 -0.5772  1.8300
19730TIP3   OH280604   2.169   0.182  14.427  0.1307  0.1857  0.2647
19730TIP3    H180605   2.258   0.166  14.395  0.7592  1.8053  1.0785
19730TIP3    H280606   2.116   0.190  14.348  1.1547  1.5211 -0.3285
19731TIP3   OH280607   5.407   0.490  15.801 -0.6321  0.2237 -0.1434
19731TIP3    H180608   5.445   0.455  15.720 -0.8404  2.6143 -1.3829
19731TIP3    H280609   5.383   0.413  15.852 -1.8466 -1.4428 -2.9816
19732TIP3   OH280610   5.343   3.498   3.293 -0.2912  0.3383 -0.6781
19732TIP3    H180611   5.349   3.551   3.372  0.2404 -1.6024  0.6735
19732TIP3    H280612   5.312   3.558   3.225  0.8118  2.4534  0.5925
19733TIP3   OH280613   1.002   1.400  11.182  0.0989  0.2866  0.2538
19733TIP3    H180614   1.077   1.342  11.196 -1.7814 -2.1511  0.9833
19733TIP3    H280615   1.034   1.466  11.121  2.2125 -2.0018 -1.3409
19734TIP3   OH280616   3.286   4.708   5.598  0.2106 -0.2310 -0.3266
19734TIP3    H180617   3.247   4.793   5.613 -0.3076 -0.5558  0.2166
19734TIP3    H280618   3.370   4.727   5.556  0.2315  0.5564  0.0523
19735TIP3   OH280619   2.301   5.171  14.992  0.2300 -0.2598  0.3084
19735TIP3    H180620   2.276   5.100  14.934 -1.3106 -0.5606  1.2646
19735TIP3    H280621   2.328   5.127  15.073 -0.2768  0.2038  0.7409
19736TIP3   OH280622   1.657   3.022   1.690  0.1151  0.3042  0.0388
19736TIP3    H180623   1.575   3.073   1.688  0.6170  1.1248  0.0546
19736TIP3    H280624   1.673   2.999   1.599 -0.6621 -0.7434  0.1458
19737TIP3   OH280625   2.451   5.657  16.564 -0.9502 -0.5608 -0.0347
19737TIP3    H180626   2.517   5.712  16.523 -1.6022  0.5949  0.4157
19737TIP3    H280627   2.399   5.623  16.492  0.8827 -2.5767 -0.5219
19738TIP3   OH280628   4.561   4.080   1.202  0.0095 -0.4265 -0.2333
19738TIP3    H180629   4.548   3.993   1.164 -0.4223  0.2330 -1.6642
19738TIP3    H280630   4.483   4.095   1.256 -0.5620 -0.4092 -1.0454
19739TIP3   OH280631   5.143   3.835  12.837 -0.6196 -0.0926 -0.2526
19739TIP3    H180632   5.070   3.896  12.828  0.3912  1.0306 -1.3031
19739TIP3    H280633   5.189   3.842  12.754  1.2807  0.0514  0.7565
19740TIP3   OH280634   5.870   5.237   1.571  0.1048 -0.6556  0.2696
19740TIP3    H180635   5.837   5.193   1.493 -0.2703 -0.6058  0.3985
19740TIP3    H280636   5.916   5.314   1.537  1.1531 -1.3676  0.0134
19741TIP3   OH280637   0.331   2.271   3.432  0.4985 -0.1302  0.3375
19741TIP3    H180638   0.278   2.309   3.502  0.0074  3.9196 -1.8851
19741TIP3    H280639   0.420   2.298   3.453  0.2143  2.1497 -0.9636
19742TIP3   OH280640   5.634   6.740   4.690 -0.4323 -0.3905  0.3556
19742TIP3    H180641   5.680   6.664   4.726 -1.4071 -0.6105  1.1982
19742TIP3    H280642   5.545   6.708   4.675 -0.8451  0.5616  0.6791
19743TIP3   OH280643   1.643   3.027  11.534  0.4125 -0.5671  0.5330
19743TIP3    H180644   1.623   2.981  11.453 -0.9936  0.7803  0.0623
19743TIP3    H280645   1.693   2.964  11.585  1.1367 -1.5395 -1.2701
19744TIP3   OH280646   4.912   1.755   5.146  0.2481 -0.7839  0.5592
19744TIP3    H180647   4.961   1.786   5.223  0.2519 -0.9546  0.6272
19744TIP3    H280648   4.893   1.663   5.166  0.7863 -1.0035  0.0813
19745TIP3   OH280649   5.529   5.006  16.515  0.4809  0.1565 -0.3882
19745TIP3    H180650   5.466   5.042  16.577 -0.9577  1.1633 -2.3153
19745TIP3    H280651   5.503   4.915  16.504 -1.1733  0.7345 -1.6799
19746TIP3   OH280652   1.285   1.092   3.165  0.2015 -0.3358 -0.4102
19746TIP3    H180653   1.356   1.142   3.125 -0.3658  0.8819  0.0380
19746TIP3    H280654   1.328   1.035   3.229  0.8947 -0.6746 -1.1720
19747TIP3   OH280655   2.824   3.040   1.834  0.1518 -0.2465 -0.1039
19747TIP3    H180656   2.768   3.103   1.788 -1.7302 -1.2208  0.7080
19747TIP3    H280657   2.772   3.014   1.910  1.3325 -1.9455  0.1775
19748TIP3   OH280658   2.733   1.853  17.326  0.5266  0.1247 -0.2804
19748TIP3    H180659   2.797   1.865  17.396  1.2215 -0.9501 -0.7041
19748TIP3    H280660   2.680   1.932  17.328 -0.0909 -0.2734  2.0855
19749TIP3   OH280661   3.707   0.852  15.681  0.9442 -0.2108 -0.6308
19749TIP3    H180662   3.660   0.785  15.732 -0.0643  0.0607 -1.1615
19749TIP3    H280663   3.655   0.931  15.693  1.3468  0.1329 -1.1452
19750TIP3   OH280664   3.753   3.966  17.268  0.3767  0.2452  0.2846
19750TIP3    H180665   3.734   4.014  17.187  0.2851  1.7612  1.1733
19750TIP3    H280666   3.846   3.982  17.284  0.6285 -0.8440 -0.0015
19751TIP3   OH280667   0.962   0.053   6.390 -0.2934  0.1980  0.1533
19751TIP3    H180668   0.981  -0.037   6.364  0.0898  0.0352  0.9862
19751TIP3    H280669   0.969   0.053   6.485 -1.7164  0.7735  0.2860
19752TIP3   OH280670   6.745   1.562   2.746 -0.1108 -0.2273  0.0497
19752TIP3    H180671   6.819   1.517   2.705  1.1171 -0.2004  2.1008
19752TIP3    H280672   6.672   1.500   2.740  0.3550 -0.6890 -1.0367
19753TIP3   OH280673   3.777   3.838   4.841 -0.6703 -0.3545 -0.6059
19753TIP3    H180674   3.824   3.894   4.779 -0.1562 -0.0720  0.0261
19753TIP3    H280675   3.697   3.887   4.862 -0.7316 -0.3437 -0.8601
19754TIP3   OH280676   2.815   4.380   1.664 -0.3032 -0.1493  0.1994
19754TIP3    H180677   2.907   4.363   1.646 -0.0666  0.5867  0.6908
19754TIP3    H280678   2.815   4.439   1.739 -1.1843 -0.3522  0.3767
19755TIP3   OH280679   3.396   3.800  14.325 -0.0114  0.0289 -0.2254
19755TIP3    H180680   3.472   3.858  14.331  0.7379 -0.9706 -0.0020
19755TIP3    H280681   3.392   3.775  14.233  0.9802 -1.2939  0.0695
19756TIP3   OH280682   4.906   6.443   3.600 -0.0660  0.1747 -0.2903
19756TIP3    H180683   4.990   6.440   3.645  0.3602  0.3624 -1.0570
19756TIP3    H280684   4.883   6.536   3.597 -0.2980  0.1248 -0.0872
19757TIP3   OH280685   5.130   5.702  16.993 -0.4666 -0.1293 -0.2712
19757TIP3    H180686   5.147   5.608  16.999  2.5565  0.2366 -1.4784
19757TIP3    H280687   5.160   5.726  16.905  0.5625  2.2497  0.6591
19758TIP3   OH280688   0.915   6.518  12.065  0.4288 -0.2201  0.2969
19758TIP3    H180689   0.960   6.599  12.042  1.7660  0.1530  3.7159
19758TIP3    H280690   0.980   6.449  12.050  1.0551 -0.0520  2.0705
19759TIP3   OH280691   1.601   4.044  14.992  0.1777  0.6759  0.4881
19759TIP3    H180692   1.542   4.083  15.056  2.0286 -0.2360  2.8910
19759TIP3    H280693   1.577   3.951  14.991 -0.3468  0.8002 -0.7894
19760TIP3   OH280694   2.837   0.994   4.308  0.5563  0.4846  0.0065
19760TIP3    H180695   2.915   0.973   4.359  1.0396 -0.7556 -1.1747
19760TIP3    H280696   2.871   1.025   4.223 -0.2172 -0.4211 -0.6570
19761TIP3   OH280697   2.596   0.990  16.187 -0.1458 -0.0464  0.5211
19761TIP3    H180698   2.661   0.930  16.150 -1.6371 -0.5462 -1.5045
19761TIP3    H280699   2.526   0.933  16.218 -0.2471  0.5340  1.3917
19762TIP3   OH280700   5.182   3.823   5.303  0.0053  0.3561  0.0130
19762TIP3    H180701   5.124   3.778   5.240 -0.6432  2.3023 -0.8584
19762TIP3    H280702   5.135   3.819   5.386 -0.9158  0.9854 -0.4590
19763TIP3   OH280703   3.333   5.338  13.404  0.1097 -0.2323  0.2665
19763TIP3    H180704   3.332   5.258  13.352  1.5443 -0.4828  0.5860
19763TIP3    H280705   3.241   5.362  13.412 -0.2038 -0.3408 -2.1190
19764TIP3   OH280706   3.985   2.944   0.797 -0.0903 -0.0017  0.1660
19764TIP3    H180707   3.937   2.867   0.768 -0.3286 -0.2187  1.0836
19764TIP3    H280708   3.969   2.948   0.892  0.0749  1.0611  0.1688
19765TIP3   OH280709   3.796   4.506  15.268 -0.0026 -0.5850 -0.2883
19765TIP3    H180710   3.849   4.474  15.342 -0.0503 -0.2261 -0.0990
19765TIP3    H280711   3.818   4.446  15.196 -0.6264 -1.4946  0.2537
19766TIP3   OH280712   3.315   0.305  11.627 -0.1551 -0.0406  0.8588
19766TIP3    H180713   3.244   0.300  11.563 -0.0456 -1.1008  0.8116
19766TIP3    H280714   3.339   0.398  11.629 -1.0589  0.2068  0.3516
19767TIP3   OH280715   3.982   1.474   2.943 -0.5241  0.1378 -0.9384
19767TIP3    H180716   4.076   1.486   2.933 -0.5966 -0.7911 -3.8549
19767TIP3    H280717   3.949   1.560   2.968  0.9057  1.0987 -2.1787
19768TIP3   OH280718   5.439   0.877   4.788  0.0643 -0.0644  0.0679
19768TIP3    H180719   5.524   0.852   4.751 -0.0906  0.2804 -0.5427
19768TIP3    H280720   5.424   0.815   4.858  0.2428 -0.9150 -0.6277
19769TIP3   OH280721   4.619   2.653  13.162  0.2858  0.3614  0.1476
19769TIP3    H180722   4.555   2.635  13.231  0.5261  1.6035  0.7263
19769TIP3    H280723   4.698   2.606  13.190 -0.0025 -0.1915  0.0479
19770TIP3   OH280724   0.545   3.035   6.321  0.3138  0.2658  0.6943
19770TIP3    H180725   0.616   3.037   6.257  0.7916  2.2720  1.2112
19770TIP3    H280726   0.562   3.110   6.378 -1.8029  0.3536  1.3014
19771TIP3   OH280727   3.195   6.237   0.799 -0.2930 -0.5609  0.2580
19771TIP3    H180728   3.210   6.324   0.836  1.6188 -0.6801 -0.1312
19771TIP3    H280729   3.100   6.223   0.807 -0.5856  1.4013  0.6361
19772TIP3   OH280730   6.407   6.535   2.884  0.1625 -0.1167 -0.0643
19772TIP3    H180731   6.337   6.576   2.935 -0.9823 -3.2586  1.1949
19772TIP3    H280732   6.361   6.478   2.822  1.6045  1.4824 -2.8200
19773TIP3   OH280733   3.203   3.558   5.724  0.4871  0.2471 -0.1621
19773TIP3    H180734   3.219   3.571   5.630  0.0954 -1.4195 -0.4905
19773TIP3    H280735   3.283   3.588   5.766  0.8957  0.4759 -1.0804
19774TIP3   OH280736   3.840   4.845  10.838 -0.4695 -0.5430  0.4389
19774TIP3    H180737   3.788   4.837  10.759 -0.2796 -0.3010  0.2847
19774TIP3    H280738   3.830   4.762  10.883 -0.8995 -0.5347  0.3581
19775TIP3   OH280739   2.053   0.051   1.915 -0.0936  0.0951  0.2518
19775TIP3    H180740   2.093  -0.008   1.978  1.0204  1.2190  0.6495
19775TIP3    H280741   2.002  -0.005   1.858  1.8379 -1.4006 -0.0967
19776TIP3   OH280742   4.581   3.852  15.073 -0.1812 -0.2328 -0.2229
19776TIP3    H180743   4.641   3.914  15.113 -0.6385 -0.1112  0.2826
19776TIP3    H280744   4.626   3.767  15.080 -0.7765 -0.4352  1.7182
19777TIP3   OH280745   2.840   2.695  15.069  0.4240 -0.7500 -0.1504
19777TIP3    H180746   2.925   2.670  15.034  1.1815  1.4894 -0.1220
19777TIP3    H280747   2.861   2.762  15.135 -1.4236  2.4312 -2.5104
19778TIP3   OH280748   1.678   6.215  16.889 -0.4578  0.5663  0.1949
19778TIP3    H180749   1.677   6.217  16.984 -1.9742  1.2426  0.1983
19778TIP3    H280750   1.615   6.283  16.863 -1.1155 -0.5404 -1.2568
19779TIP3   OH280751   0.699   2.753   3.744  0.0104  0.0963 -0.0200
19779TIP3    H180752   0.688   2.783   3.654  1.4638 -0.1100 -0.2982
19779TIP3    H280753   0.630   2.797   3.793 -1.2662 -0.3414 -1.3461
19780TIP3   OH280754   2.867   1.552   1.753  0.0116  0.0796 -0.4790
19780TIP3    H180755   2.877   1.627   1.694 -0.9297  0.4260 -0.2176
19780TIP3    H280756   2.949   1.504   1.744  0.1543  0.4900 -1.5583
19781TIP3   OH280757   6.501   2.588  12.614  0.2444 -0.1162 -0.0568
19781TIP3    H180758   6.535   2.669  12.577  0.0160  1.2638  2.4907
19781TIP3    H280759   6.410   2.585  12.584  0.5517 -0.0067 -1.0319
19782TIP3   OH280760   3.235   6.174   2.157 -0.4495  0.4028  0.1013
19782TIP3    H180761   3.159   6.177   2.100 -0.3182 -0.3130 -0.1274
19782TIP3    H280762   3.310   6.177   2.097 -0.2702 -2.9250 -0.0465
19783TIP3   OH280763   2.417   5.629  15.189  0.0215 -0.0920  0.3006
19783TIP3    H180764   2.478   5.623  15.263  0.8587 -0.2981 -0.3854
19783TIP3    H280765   2.468   5.673  15.121 -0.6118 -0.2635 -0.2861
19784TIP3   OH280766   1.705   3.674  11.273  0.3067  0.3856  0.0736
19784TIP3    H180767   1.652   3.698  11.197 -1.0047 -0.5128  0.6712
19784TIP3    H280768   1.773   3.617  11.237 -0.5590 -0.3782 -0.3803
19785TIP3   OH280769   6.196   4.569   1.759 -0.0264 -0.4717  0.0578
19785TIP3    H180770   6.168   4.654   1.725  2.4466  0.4155 -0.0067
19785TIP3    H280771   6.202   4.514   1.681  0.6307  0.0192 -0.2514
19786TIP3   OH280772   6.033   6.573  12.881  0.3097  0.4411 -0.0686
19786TIP3    H180773   6.050   6.659  12.919 -0.8056 -0.4035  2.5834
19786TIP3    H280774   6.100   6.562  12.814  0.1892  3.5399 -0.8313
19787TIP3   OH280775   5.684   2.960   1.971  0.5165  0.6483 -1.0687
19787TIP3    H180776   5.627   2.958   1.894  2.0748 -0.6888 -2.2537
19787TIP3    H280777   5.771   2.938   1.937  1.4554  1.0709  0.9210
19788TIP3   OH280778   5.757   1.526   4.002  0.1198  0.1933  0.0281
19788TIP3    H180779   5.765   1.448   3.947 -2.1102 -0.8149  0.9963
19788TIP3    H280780   5.832   1.580   3.978  0.3562 -1.1021 -2.5000
19789TIP3   OH280781   2.619   6.641   3.889  0.6397  0.1105  0.5489
19789TIP3    H180782   2.546   6.668   3.944 -0.7184 -1.9441 -0.1035
19789TIP3    H280783   2.630   6.713   3.827 -0.0701  0.9661  1.3919
19790TIP3   OH280784   3.320   5.590  11.087 -0.7239  0.1654  0.0266
19790TIP3    H180785   3.333   5.604  11.181  1.9682  0.8323 -0.3559
19790TIP3    H280786   3.408   5.573  11.053 -1.5236  0.6750 -2.5044
19791TIP3   OH280787   3.116   0.147  12.486 -0.3716  0.3394  0.2162
19791TIP3    H180788   3.181   0.183  12.547  0.4363  0.2478 -0.5651
19791TIP3    H280789   3.163   0.139  12.403 -0.9844 -1.0464 -0.0272
19792TIP3   OH280790   2.008   0.487  13.411  0.2516  0.1822  0.1442
19792TIP3    H180791   2.096   0.449  13.410  0.7632  1.1678  2.3234
19792TIP3    H280792   1.994   0.512  13.502 -2.2002  0.3045 -0.2125
19793TIP3   OH280793   1.796   3.564  12.574 -0.4624  0.5447 -0.2292
19793TIP3    H180794   1.845   3.482  12.571  0.2671  0.9956 -1.3401
19793TIP3    H280795   1.723   3.546  12.633 -0.8806 -1.2282 -1.2142
19794TIP3   OH280796   4.115   6.565   0.501 -0.3492  0.0410  0.0866
19794TIP3    H180797   4.108   6.651   0.542  1.5463  0.5461 -0.5272
19794TIP3    H280798   4.025   6.537   0.488 -1.0079  1.6032  0.9701
19795TIP3   OH280799   2.961   1.226  15.038 -0.0721  0.3913 -0.7862
19795TIP3    H180800   2.871   1.225  15.070 -0.2343 -0.6954 -1.2450
19795TIP3    H280801   2.957   1.280  14.958  0.0282  1.7536  0.1018
19796TIP3   OH280802   2.002   4.861   0.975 -0.1238 -0.1162 -0.0262
19796TIP3    H180803   2.013   4.797   0.906 -0.2527 -0.8685  0.6361
19796TIP3    H280804   1.938   4.924   0.941 -0.5718 -0.7621 -0.3888
19797TIP3   OH280805   0.760   6.654   1.227 -0.0413 -0.0540  0.0457
19797TIP3    H180806   0.835   6.599   1.207 -0.2175  0.2984 -1.7745
19797TIP3    H280807   0.737   6.695   1.143  0.5673  3.4247  1.4086
19798TIP3   OH280808   6.087   2.296  12.415 -0.0595  0.7361  0.0013
19798TIP3    H180809   6.120   2.254  12.336 -1.3909 -1.0875  0.3298
19798TIP3    H280810   6.046   2.377  12.384 -1.3328 -0.3614 -1.3658
19799TIP3   OH280811   1.130   2.845   5.798  0.3924 -0.6639  0.4006
19799TIP3    H180812   1.169   2.808   5.719 -0.2715  0.0666 -0.2759
19799TIP3    H280813   1.204   2.880   5.847  0.6478  0.3603 -0.6893
19800TIP3   OH280814   2.953   5.745  12.754 -0.2271  0.3559  0.2993
19800TIP3    H180815   2.875   5.753  12.809 -0.0748  1.0772  0.4224
19800TIP3    H280816   3.025   5.733  12.816 -0.4854 -3.0151  0.1381
19801TIP3   OH280817   3.815   0.674   4.338 -0.3902 -0.1477  0.6681
19801TIP3    H180818   3.818   0.770   4.336  1.6341 -0.1020 -2.9117
19801TIP3    H280819   3.786   0.652   4.427  0.1440  3.7219  1.9734
19802TIP3   OH280820   1.448   2.788  10.204 -0.2012  0.4682 -0.4869
19802TIP3    H180821   1.492   2.790  10.119  0.3336  1.4710 -0.2088
19802TIP3    H280822   1.389   2.713  10.199  3.4057 -2.7132  0.0204
19803TIP3   OH280823   2.866   1.727  15.688 -0.7111 -0.3407  0.4164
19803TIP3    H180824   2.792   1.751  15.631  0.2538 -2.3454 -1.8536
19803TIP3    H280825   2.914   1.809  15.699  0.4841 -0.1688 -3.9735
19804TIP3   OH280826   3.935   3.041  14.392  0.1230  0.1985  0.4196
19804TIP3    H180827   3.991   2.972  14.356  0.3291  0.4372  0.2823
19804TIP3    H280828   3.951   3.037  14.486  0.7685  0.6086  0.3326
19805TIP3   OH280829   4.622   0.510  16.973 -0.4128 -0.3054 -0.0883
19805TIP3    H180830   4.596   0.589  17.020 -2.1774 -0.5922 -0.5240
19805TIP3    H280831   4.548   0.489  16.917  0.7794 -1.2142 -1.4011
19806TIP3   OH280832   4.465   4.915  17.211  0.5368  0.2224 -0.2230
19806TIP3    H180833   4.485   4.963  17.291 -0.2245  1.5111 -0.7531
19806TIP3    H280834   4.523   4.954  17.145  1.1438 -0.8115 -0.3075
19807TIP3   OH280835   2.003   6.038  14.871 -0.4520 -0.0136  0.7497
19807TIP3    H180836   2.034   6.110  14.926 -1.3517  0.6517  0.4198
19807TIP3    H280837   2.021   5.959  14.922  0.4505  0.4495  1.1649
19808TIP3   OH280838   1.018   5.217  16.230  0.0680 -0.0388 -0.4118
19808TIP3    H180839   1.003   5.208  16.136  1.5703  1.3543 -0.8306
19808TIP3    H280840   1.031   5.310  16.244 -0.8232 -0.1224  1.3247
19809TIP3   OH280841   2.113   0.382   4.685 -1.1312 -0.6379  0.1748
19809TIP3    H180842   2.107   0.478   4.683 -1.9932 -0.6617  0.7564
19809TIP3    H280843   2.028   0.352   4.651 -1.0997 -1.1868  0.5623
19810TIP3   OH280844   0.552   5.127   5.569  0.2293 -0.1206  0.0204
19810TIP3    H180845   0.566   5.053   5.510 -1.1837  0.4220 -1.0551
19810TIP3    H280846   0.528   5.086   5.653  0.4859 -0.8763 -0.2623
19811TIP3   OH280847   3.569   5.270  15.821  0.2486  0.4895  0.3650
19811TIP3    H180848   3.663   5.262  15.835  0.4171  0.3015 -0.7867
19811TIP3    H280849   3.561   5.314  15.737 -0.6801 -0.7800 -0.2381
19812TIP3   OH280850   5.101   3.063  12.995 -0.0330 -0.4377  0.2563
19812TIP3    H180851   5.048   3.002  13.047 -2.0010  2.3969  1.8626
19812TIP3    H280852   5.191   3.047  13.024 -0.6223 -1.6907  1.5466
19813TIP3   OH280853   5.111   0.691   0.920  0.4536  0.3244  0.0597
19813TIP3    H180854   5.189   0.685   0.975  0.4821  0.8388  0.0771
19813TIP3    H280855   5.115   0.778   0.882 -0.2229  0.4312  0.2206
19814TIP3   OH280856   6.092   2.294  11.060  0.0719 -0.3758  0.0869
19814TIP3    H180857   6.057   2.208  11.039 -0.3874 -0.3983  0.8732
19814TIP3    H280858   6.016   2.344  11.091  0.4240  0.1371  0.1438
19815TIP3   OH280859   4.254   0.048  14.486 -0.0312 -0.5678 -0.4396
19815TIP3    H180860   4.300  -0.034  14.502 -0.5843 -0.7776  0.1401
19815TIP3    H280861   4.195   0.057  14.561  0.9090  0.9826  0.1714
19816TIP3   OH280862   6.495   6.345  11.961 -0.1921  0.5448  0.4057
19816TIP3    H180863   6.452   6.284  11.901  0.7112 -0.3287  0.6207
19816TIP3    H280864   6.584   6.353  11.928  0.4413 -0.2532  1.8117
19817TIP3   OH280865   6.651   0.447   4.663 -0.0015 -0.1744  0.0257
19817TIP3    H180866   6.737   0.434   4.704  0.5570 -0.6782 -1.2434
19817TIP3    H280867   6.642   0.372   4.603 -0.0756  1.3238 -1.9396
19818TIP3   OH280868   4.438   3.397  15.032 -0.7755  0.0860  0.3829
19818TIP3    H180869   4.388   3.459  14.978  2.3673 -0.3225 -3.4125
19818TIP3    H280870   4.405   3.311  15.007 -1.5265 -0.0546  1.7256
19819TIP3   OH280871   3.180   3.263   0.806 -0.0674 -0.3500  0.1893
19819TIP3    H180872   3.219   3.350   0.797 -1.5775  0.2700 -0.8317
19819TIP3    H280873   3.248   3.203   0.776  0.2695  0.6571 -1.1472
19820TIP3   OH280874   4.325   5.216  17.405 -0.1824 -0.6864 -0.3822
19820TIP3    H180875   4.342   5.277  17.477 -0.1031 -1.2700  0.0986
19820TIP3    H280876   4.351   5.264  17.326  1.2940 -0.6157  0.1123
19821TIP3   OH280877   0.039   2.641   3.134  0.3390 -0.3810  0.9148
19821TIP3    H180878   0.065   2.572   3.073  0.7255  0.5624 -0.0253
19821TIP3    H280879   0.117   2.695   3.145 -0.8236  1.9738 -1.2383
19822TIP3   OH280880   3.030   1.678   1.972  0.2796  0.1835 -0.1936
19822TIP3    H180881   2.944   1.640   1.952  1.0145 -0.4457 -2.5296
19822TIP3    H280882   3.025   1.701   2.064 -1.9817 -0.9199  0.0413
19823TIP3   OH280883   2.080   3.228  10.376 -0.1914  0.6961 -0.1791
19823TIP3    H180884   2.125   3.144  10.366 -0.9856  0.3497 -1.0388
19823TIP3    H280885   2.131   3.289  10.323  0.4137  0.7707  0.4830
19824TIP3   OH280886   4.143   1.938  14.944 -0.2964  0.0104  0.4515
19824TIP3    H180887   4.184   1.943  14.858 -1.4695  0.6307 -0.0868
19824TIP3    H280888   4.108   1.849  14.949 -0.8651  0.1989 -0.0255
19825TIP3   OH280889   3.024   3.774  16.829 -0.3311  0.3098 -0.0073
19825TIP3    H180890   2.933   3.757  16.802  0.4700 -1.7110 -1.6849
19825TIP3    H280891   3.016   3.843  16.895 -3.0070  0.8105 -0.7117
19826TIP3   OH280892   5.112   1.841   4.549 -0.3491 -0.8740  0.0826
19826TIP3    H180893   5.178   1.772   4.554  0.6437  0.0603  0.1992
19826TIP3    H280894   5.157   1.915   4.508 -1.5477 -0.4652 -0.5562
19827TIP3   OH280895   6.357   5.788  16.129 -0.0376  0.2575 -0.7592
19827TIP3    H180896   6.331   5.721  16.191 -2.2002  0.6677 -1.1615
19827TIP3    H280897   6.278   5.840  16.114  0.9314  1.3742 -2.3535
19828TIP3   OH280898   3.139   3.714   0.452 -0.7296  0.5147  0.4621
19828TIP3    H180899   3.061   3.745   0.499  0.2601  2.7101  0.7756
19828TIP3    H280900   3.117   3.723   0.359 -1.6990 -1.2187  0.4948
19829TIP3   OH280901   5.733   2.650  13.952 -0.2453  0.3600 -0.0656
19829TIP3    H180902   5.659   2.623  14.007  1.0236 -0.9387  1.0680
19829TIP3    H280903   5.709   2.620  13.865 -1.0274 -0.1281  0.2987
19830TIP3   OH280904   5.404   1.565   0.526  0.1477  0.1113 -0.1105
19830TIP3    H180905   5.348   1.523   0.591 -0.1983 -0.3074 -0.6668
19830TIP3    H280906   5.490   1.524   0.537 -0.6478 -2.2937 -1.9773
19831TIP3   OH280907   3.411   0.579  16.170  0.2699 -0.4275  0.5890
19831TIP3    H180908   3.440   0.662  16.133 -0.0676 -0.5983 -0.0754
19831TIP3    H280909   3.415   0.517  16.097  0.0892 -0.8911  0.9647
19832TIP3   OH280910   6.467   5.008  12.770  0.5146  0.4011 -0.5309
19832TIP3    H180911   6.517   4.938  12.812  1.7776  0.7679 -1.3780
19832TIP3    H280912   6.452   5.071  12.841  1.2663  0.2905 -0.2647
19833TIP3   OH280913   4.418   1.982  17.079  0.4439 -0.0488 -0.0419
19833TIP3    H180914   4.445   1.956  16.991  0.6343  1.1910 -0.3579
19833TIP3    H280915   4.487   2.040  17.110  0.9254 -1.3061  1.3667
19834TIP3   OH280916   0.746   5.527   3.655  0.2046 -0.5959 -0.3964
19834TIP3    H180917   0.666   5.528   3.707 -0.2823 -1.4856 -1.0871
19834TIP3    H280918   0.717   5.502   3.567  1.2480 -1.0224 -0.6340
19835TIP3   OH280919   6.464   3.467   1.290  0.3760  0.1371 -0.0904
19835TIP3    H180920   6.414   3.466   1.208 -1.3184  0.0635  0.8838
19835TIP3    H280921   6.548   3.506   1.267 -0.5876  1.4699 -1.5661
19836TIP3   OH280922   2.068   0.023  11.592  0.1186 -0.0908  0.4207
19836TIP3    H180923   2.054   0.100  11.646  0.6540 -0.7999  1.6135
19836TIP3    H280924   1.981   0.001  11.559 -0.0811  0.8471  0.2891
19837TIP3   OH280925   0.051   1.716   4.932 -0.0900 -0.0926  0.2747
19837TIP3    H180926   0.113   1.690   5.001 -0.8799 -1.6463  0.4469
19837TIP3    H280927  -0.026   1.747   4.980  0.2719  1.1786  0.0616
19838TIP3   OH280928   3.141   5.007  17.257 -0.1637 -0.7587 -0.9660
19838TIP3    H180929   3.113   4.964  17.338 -0.4982 -0.7968 -1.0974
19838TIP3    H280930   3.236   5.017  17.266 -0.3157  0.0619 -0.1710
19839TIP3   OH280931   3.198   4.800   0.413  0.0479  0.2239 -0.7534
19839TIP3    H180932   3.142   4.808   0.491  1.2936  0.8167  0.1161
19839TIP3    H280933   3.242   4.885   0.406  0.5521 -0.0946 -1.6369
19840TIP3   OH280934   4.248   1.444  12.539 -0.0585  0.3171  0.1095
19840TIP3    H180935   4.155   1.447  12.561 -0.0262  1.2714  0.1597
19840TIP3    H280936   4.291   1.417  12.620 -0.4259 -1.9348 -0.3926
19841TIP3   OH280937   6.743   4.085   0.806 -0.6032  0.3472 -0.1388
19841TIP3    H180938   6.686   4.014   0.777  0.5742 -1.3280  1.3798
19841TIP3    H280939   6.708   4.111   0.892  0.8019 -0.6539  0.7777
19842TIP3   OH280940   2.418   0.003   5.951  0.6387 -0.6894 -0.3473
19842TIP3    H180941   2.497   0.017   6.003  1.0519 -1.5267 -0.7314
19842TIP3    H280942   2.450  -0.029   5.867 -0.0798 -0.3722 -0.7529
19843TIP3   OH280943   1.230   5.462   2.779  0.0175  0.6024 -0.2258
19843TIP3    H180944   1.309   5.517   2.783 -1.0087  2.1032  0.0604
19843TIP3    H280945   1.236   5.419   2.694  1.7323 -0.2575  0.2727
19844TIP3   OH280946   2.091   0.074   0.644 -0.1381  0.2114  0.1654
19844TIP3    H180947   2.044   0.143   0.596  1.2420  1.2403  0.2511
19844TIP3    H280948   2.023   0.009   0.664 -1.2990  1.1124 -0.6912
19845TIP3   OH280949   1.903   5.786   1.330 -0.1684 -0.7384 -0.2018
19845TIP3    H180950   1.984   5.756   1.369  0.2869  1.1308  0.3766
19845TIP3    H280951   1.836   5.726   1.363  0.5116 -0.4117  1.8960
19846TIP3   OH280952   3.470   1.858   4.605  0.8162 -0.3727 -0.1290
19846TIP3    H180953   3.441   1.949   4.595 -0.1458 -0.4830  1.4733
19846TIP3    H280954   3.520   1.841   4.525 -0.6558  0.9205 -1.3998
19847TIP3   OH280955   2.697   6.715  16.876  0.2175 -0.1095 -0.1710
19847TIP3    H180956   2.607   6.747  16.880 -0.0893 -1.0081  2.1374
19847TIP3    H280957   2.688   6.620  16.890  1.4849 -0.3094 -0.6479
19848TIP3   OH280958   3.198   0.281  11.886  0.0054 -0.2414  0.5579
19848TIP3    H180959   3.200   0.281  11.790 -1.5716 -1.1012  0.4723
19848TIP3    H280960   3.263   0.216  11.912 -3.0261 -3.9702 -0.2414
19849TIP3   OH280961   3.483   4.949  12.934  0.3472 -0.3738 -0.3765
19849TIP3    H180962   3.465   4.948  12.840  0.9618 -0.8841 -0.4962
19849TIP3    H280963   3.572   4.985  12.941  0.7282 -1.3603 -0.0739
19850TIP3   OH280964   1.227   4.209  14.844  0.2712  0.0820  0.0916
19850TIP3    H180965   1.148   4.261  14.859 -0.2316 -1.0431  1.6698
19850TIP3    H280966   1.300   4.268  14.862 -0.2803  0.2924  1.8117
19851TIP3   OH280967   4.579   1.980   5.900 -0.1310 -0.0610  0.4297
19851TIP3    H180968   4.629   1.901   5.879 -0.0809 -0.5545  2.2561
19851TIP3    H280969   4.642   2.038   5.943 -0.0873  1.1509 -1.1621
19852TIP3   OH280970   4.068   5.244  11.949  0.5939 -0.0384 -0.7334
19852TIP3    H180971   4.085   5.159  11.990  0.0031 -0.1636 -0.7387
19852TIP3    H280972   4.084   5.308  12.019  1.5802 -0.1036 -0.8804
19853TIP3   OH280973   6.691   5.272  13.958  0.1960 -0.2675 -0.4009
19853TIP3    H180974   6.761   5.287  14.021  0.9967 -0.0283 -1.3236
19853TIP3    H280975   6.682   5.177  13.955  2.3848 -0.5017 -2.2440
19854TIP3   OH280976   0.171   3.456   0.731 -0.5495 -0.9183  0.1748
19854TIP3    H180977   0.213   3.388   0.678 -0.6678  0.2868 -1.5318
19854TIP3    H280978   0.244   3.509   0.764 -0.5933  0.8934 -2.4022
19855TIP3   OH280979   2.805   3.935  14.823  0.3040 -0.4076  0.3339
19855TIP3    H180980   2.723   3.906  14.783 -0.2409  1.1374  0.2521
19855TIP3    H280981   2.866   3.863  14.808 -0.4036 -0.6610 -1.6561
19856TIP3   OH280982   4.983   2.627  17.180  0.1256 -0.2919 -0.5988
19856TIP3    H180983   5.030   2.678  17.247  1.1134  0.9469 -2.1497
19856TIP3    H280984   4.896   2.666  17.177 -0.4497 -1.3905  1.0295
19857TIP3   OH280985   3.432   3.301   3.705 -0.2703 -0.1963 -0.2955
19857TIP3    H180986   3.355   3.259   3.743 -0.8620  1.0780 -0.0633
19857TIP3    H280987   3.439   3.385   3.750  3.0988 -1.4798  2.0685
19858TIP3   OH280988   2.907   3.300  14.419  0.0133  0.3593  0.1070
19858TIP3    H180989   2.923   3.392  14.440 -0.2198 -0.1182  2.8775
19858TIP3    H280990   2.964   3.281  14.344  1.6819  2.2365  0.8201
19859TIP3   OH280991   0.330   3.788   3.951  0.3758 -0.1641  0.3263
19859TIP3    H180992   0.240   3.779   3.983  0.6886 -0.2613  1.2086
19859TIP3    H280993   0.328   3.866   3.896 -0.8948 -1.7535 -2.0804
19860TIP3   OH280994   2.282   5.093  15.263 -0.2422 -0.4953  0.0770
19860TIP3    H180995   2.253   5.087  15.354 -0.0783 -0.5694  0.1241
19860TIP3    H280996   2.251   5.012  15.222 -0.6407 -0.2949 -0.0270
19861TIP3   OH280997   2.269   0.124  11.037  0.3148  0.3366 -0.4392
19861TIP3    H180998   2.315   0.067  11.099 -1.5262 -0.3707  0.3619
19861TIP3    H280999   2.179   0.091  11.037 -0.2935  1.8755 -1.6590
19862TIP3   OH281000   4.857   5.646   0.956  0.2645  0.1659  0.3857
19862TIP3    H181001   4.804   5.692   1.020  1.2707  1.6997  0.1561
19862TIP3    H281002   4.941   5.632   0.999  0.8987  1.0711 -0.5251
19863TIP3   OH281003   0.180   0.737   3.270  0.3764  0.3980  0.3685
19863TIP3    H181004   0.185   0.709   3.179 -1.2425  0.6046  0.1872
19863TIP3    H281005   0.182   0.656   3.321 -1.0040  0.1180  0.0128
19864TIP3   OH281006   1.601   3.691   5.294  0.1595  0.2967  0.1598
19864TIP3    H181007   1.627   3.689   5.386  3.1783 -0.8491 -0.6266
19864TIP3    H281008   1.523   3.635   5.291 -0.0623  0.4238  1.9757
19865TIP3   OH281009   5.985   1.224   3.528  0.5472 -0.0243  0.3819
19865TIP3    H181010   5.964   1.183   3.612  1.6860  0.7906  1.0919
19865TIP3    H281011   6.080   1.234   3.529  0.4521  1.1702 -0.4377
19866TIP3   OH281012   1.187   1.072  13.457  0.4629  0.2002  0.1006
19866TIP3    H181013   1.154   1.077  13.546 -0.4716  0.9025 -0.2623
19866TIP3    H281014   1.128   1.128  13.407  2.9929  2.6767 -0.3572
19867TIP3   OH281015   4.865   5.765   0.436 -0.1281  0.2358  0.5469
19867TIP3    H181016   4.878   5.858   0.419  1.2532  0.4372  2.3981
19867TIP3    H281017   4.828   5.762   0.524 -2.2522 -0.9270 -0.2908
19868TIP3   OH281018   4.938   4.076   0.091 -0.0057 -0.0569 -0.2844
19868TIP3    H181019   4.856   4.104   0.050  0.5358 -0.1767 -1.4933
19868TIP3    H281020   4.973   4.155   0.131 -1.1347 -0.1882  1.0417
19869TIP3   OH281021   4.505   3.639   3.757  0.4441  0.4911  0.1860
19869TIP3    H181022   4.572   3.658   3.691 -1.0704  2.1702 -0.9602
19869TIP3    H281023   4.499   3.719   3.809  0.7161 -0.3673  1.6002
19870TIP3   OH281024   0.390   0.184  14.273  0.5927 -0.3438  0.6958
19870TIP3    H181025   0.315   0.187  14.214  0.7790  0.4635  0.4776
19870TIP3    H281026   0.383   0.265  14.324  2.1966  0.5879 -0.4577
19871TIP3   OH281027   3.101   0.090   1.757  0.0895  0.2017  0.1373
19871TIP3    H181028   3.156   0.084   1.835 -1.1806  2.6035  1.3240
19871TIP3    H281029   3.023   0.038   1.778  0.3366 -0.2809 -0.1159
19872TIP3   OH281030   3.756   4.754  15.898 -0.0347 -0.0498  0.6945
19872TIP3    H181031   3.747   4.734  15.991  0.6026  0.0065  0.7731
19872TIP3    H281032   3.758   4.668  15.855  0.2084 -0.0939  0.7903
19873TIP3   OH281033   0.049   3.263  11.547 -0.0227  0.1443  0.1001
19873TIP3    H181034   0.135   3.301  11.528 -0.0187  0.2185  0.2644
19873TIP3    H281035   0.042   3.188  11.488 -0.2596  0.7254 -0.6182
19874TIP3   OH281036   3.608   0.767  12.585  0.1969 -0.1498 -0.2990
19874TIP3    H181037   3.534   0.826  12.603  1.0217  0.2780  2.0065
19874TIP3    H281038   3.567   0.686  12.556 -1.1489  0.3524  0.1030
19875TIP3   OH281039   2.024   3.317   3.166 -0.0807 -0.1798 -0.2761
19875TIP3    H181040   1.978   3.258   3.226 -1.8273  0.8383 -0.5649
19875TIP3    H281041   2.109   3.275   3.152 -0.2702 -1.2819  1.5830
19876TIP3   OH281042   5.875   6.027   0.529  0.1934  0.0027  0.1144
19876TIP3    H181043   5.893   6.119   0.513 -1.6776  0.4490  0.3162
19876TIP3    H281044   5.931   6.005   0.604  0.8397  0.8925 -0.0862
19877TIP3   OH281045   2.677   0.333   5.130  0.1742  0.0051  0.2235
19877TIP3    H181046   2.746   0.266   5.121  0.6614  0.5590 -0.3085
19877TIP3    H281047   2.714   0.397   5.190  0.4927  0.7473 -0.7390
19878TIP3   OH281048   6.006   5.393  13.637  0.0259  0.5377 -0.2727
19878TIP3    H181049   5.963   5.350  13.563 -0.4938  0.2080  0.2100
19878TIP3    H281050   6.066   5.326  13.671  0.2468  0.6816 -0.3750
19879TIP3   OH281051   3.293   6.634  13.658  0.0350 -0.1949 -0.3917
19879TIP3    H181052   3.237   6.562  13.687 -1.2632  1.0685  0.3324
19879TIP3    H281053   3.357   6.592  13.601 -0.4582 -1.9757  0.2964
19880TIP3   OH281054   0.708   1.382   3.015 -0.0844 -0.0143 -0.1903
19880TIP3    H181055   0.664   1.339   2.941 -1.8804 -3.5472  2.6570
19880TIP3    H281056   0.779   1.323   3.038  1.2189  1.6595  0.2465
19881TIP3   OH281057   3.774   3.719   1.738 -0.7754  0.0152 -0.0246
19881TIP3    H181058   3.824   3.799   1.746  2.5433 -1.3137 -3.9538
19881TIP3    H281059   3.695   3.744   1.690 -0.5265  1.1274  0.1338
19882TIP3   OH281060   0.367   4.762  14.441  0.6510 -0.1467 -0.0112
19882TIP3    H181061   0.383   4.684  14.494 -1.0828 -0.1047  0.6267
19882TIP3    H281062   0.369   4.834  14.503  0.1579  0.0852 -0.2664
19883TIP3   OH281063   5.097   5.070   4.430 -0.4785  0.5960 -0.1246
19883TIP3    H181064   5.106   5.061   4.525  0.3677  1.3795 -0.1281
19883TIP3    H281065   5.080   4.981   4.400  1.0017  0.0407  0.5769
19884TIP3   OH281066   6.117   1.457  10.779  0.6564 -0.3104 -0.0463
19884TIP3    H181067   6.196   1.406  10.794 -0.2287 -1.8505 -0.3644
19884TIP3    H281068   6.075   1.416  10.703 -1.0596 -0.3620  0.8606
19885TIP3   OH281069   5.635   1.003  10.521 -0.5207 -0.4548  0.5028
19885TIP3    H181070   5.578   1.046  10.457 -0.3180 -0.7156  0.1479
19885TIP3    H281071   5.629   0.910  10.501  0.3098 -0.4611  0.2305
19886TIP3   OH281072   5.421   2.663   4.570 -0.1274 -0.3217 -0.2364
19886TIP3    H181073   5.367   2.584   4.568 -1.2789  0.4386 -0.4099
19886TIP3    H281074   5.376   2.721   4.632  0.3738  0.4116 -0.5392
19887TIP3   OH281075   0.549   3.739  12.432 -0.3308  1.0201  0.3008
19887TIP3    H181076   0.540   3.746  12.527  0.3927  0.2243  0.4440
19887TIP3    H281077   0.465   3.703  12.402  0.2388 -1.0035  0.9420
19888TIP3   OH281078   0.678   5.371  15.966  0.4760  0.2631  0.2099
19888TIP3    H181079   0.618   5.375  16.041 -0.1531  0.0752 -0.2806
19888TIP3    H281080   0.697   5.277  15.957  1.7631  0.4133  1.0755
19889TIP3   OH281081   2.812   6.091  13.458 -0.4678 -0.5250 -0.5263
19889TIP3    H181082   2.754   6.073  13.384 -0.0486  0.3714 -1.0809
19889TIP3    H281083   2.754   6.091  13.534 -1.1391  0.0048 -1.0284
19890TIP3   OH281084   3.543   5.587  12.956  0.0950  0.8070  0.5402
19890TIP3    H181085   3.504   5.664  12.915 -1.3840  0.2036  0.7519
19890TIP3    H281086   3.541   5.520  12.887 -4.3614 -0.8767  1.9430
19891TIP3   OH281087   3.695   3.845  11.514 -0.3347 -1.0414 -0.1292
19891TIP3    H181088   3.768   3.906  11.517 -1.4544  0.4313 -1.2236
19891TIP3    H281089   3.676   3.824  11.605 -1.2487  1.9593  0.4743
19892TIP3   OH281090   0.547   6.100  10.790 -0.1276 -0.4044 -0.2291
19892TIP3    H181091   0.582   6.114  10.702 -0.7109 -1.1845 -0.5906
19892TIP3    H281092   0.458   6.135  10.786  0.1467  0.3858  0.3191
19893TIP3   OH281093   2.067   1.270  15.270  0.0733 -0.6576 -0.0960
19893TIP3    H181094   2.084   1.325  15.193 -1.5656  1.3155  0.8609
19893TIP3    H281095   2.141   1.286  15.328 -0.5491  0.8665  0.3156
19894TIP3   OH281096   4.251   1.252  15.214  0.3054  1.1591 -0.1046
19894TIP3    H181097   4.197   1.281  15.287  0.6156 -0.2056  0.7126
19894TIP3    H281098   4.223   1.162  15.198 -2.6876  2.5329 -4.4563
19895TIP3   OH281099   1.980   1.677  14.306 -0.2161 -0.6957  0.4859
19895TIP3    H181100   1.970   1.758  14.357 -0.0077 -0.6090  0.3935
19895TIP3    H281101   1.924   1.614  14.350 -0.2534 -0.5446  0.6591
19896TIP3   OH281102   3.439   3.091  12.767 -0.4454 -0.3751 -0.0224
19896TIP3    H181103   3.465   3.165  12.712 -2.3285 -0.5065 -1.1886
19896TIP3    H281104   3.466   3.013  12.718 -1.7592 -0.4840 -0.6317
19897TIP3   OH281105   2.506   3.742  11.668 -0.3130 -0.1341 -0.1819
19897TIP3    H181106   2.593   3.776  11.647  0.2892 -1.2275  0.4689
19897TIP3    H281107   2.482   3.785  11.750  0.5833 -1.4242  0.8095
19898TIP3   OH281108   5.299   6.670  12.603 -0.2538  0.4871 -0.0470
19898TIP3    H181109   5.336   6.754  12.631  0.2112  0.3145 -0.1325
19898TIP3    H281110   5.361   6.637  12.537 -0.7648  0.3760 -0.4790
19899TIP3   OH281111   0.412   2.568  16.572  0.1734  0.0442 -0.0820
19899TIP3    H181112   0.358   2.504  16.619 -1.0577  1.0603 -0.0417
19899TIP3    H281113   0.502   2.542  16.591 -0.2693 -2.0368 -0.5912
19900TIP3   OH281114   1.180   6.045   1.060 -0.5408 -0.2994  0.2133
19900TIP3    H181115   1.138   6.130   1.046 -1.5159 -0.5719  1.2887
19900TIP3    H281116   1.273   6.062   1.046 -0.5418  1.3011  1.7628
19901TIP3   OH281117   5.084   3.645  13.401  0.2460  0.3512  0.5213
19901TIP3    H181118   5.004   3.593  13.413  0.1077  0.3017 -0.4968
19901TIP3    H281119   5.064   3.702  13.326  0.7625  1.1464  0.9800
19902TIP3   OH281120   1.880   6.065   1.456 -0.3572 -0.3068  0.1437
19902TIP3    H181121   1.877   6.069   1.360 -0.2570  0.7603  0.1793
19902TIP3    H281122   1.791   6.040   1.481 -1.1562  2.0504 -0.1339
19903TIP3   OH281123   1.907   6.397  11.062 -0.0402 -0.2744  0.3481
19903TIP3    H181124   1.876   6.307  11.053 -0.0560 -0.1579 -0.8855
19903TIP3    H281125   1.885   6.439  10.979  1.5300  0.3899  0.2298
19904TIP3   OH281126   3.759   1.222  10.850  0.0056  0.2927  0.2847
19904TIP3    H181127   3.760   1.317  10.850  0.4065  0.3098 -0.9782
19904TIP3    H281128   3.781   1.197  10.940 -0.0093  1.3791  0.6009
19905TIP3   OH281129   5.202   5.631   2.400 -0.0523 -0.4616 -0.0441
19905TIP3    H181130   5.296   5.623   2.382  0.2077 -1.0883  1.4853
19905TIP3    H281131   5.198   5.675   2.485 -1.1456 -0.4340 -0.1049
19906TIP3   OH281132   4.210   2.373  16.387 -0.0927  0.5709  0.1887
19906TIP3    H181133   4.201   2.456  16.341  2.3516 -0.1513 -1.7891
19906TIP3    H281134   4.165   2.309  16.331  0.6649  0.0867  0.1183
19907TIP3   OH281135   0.605   5.080   0.864 -0.3418  0.2642 -0.0912
19907TIP3    H181136   0.527   5.116   0.821  0.1153  2.1454  0.5257
19907TIP3    H281137   0.591   5.097   0.957 -0.1549 -1.3885  0.2654
19908TIP3   OH281138   3.863   5.979   2.443 -0.3664 -0.3565 -0.6429
19908TIP3    H181139   3.871   5.947   2.354  0.3375 -1.6494 -0.1363
19908TIP3    H281140   3.785   5.936   2.478  0.7492 -1.8293  0.1328
19909TIP3   OH281141   3.679   2.940   1.013 -0.4579 -0.1049 -0.1305
19909TIP3    H181142   3.717   2.860   0.977 -0.4837 -0.2044  0.0625
19909TIP3    H281143   3.586   2.921   1.023 -0.3286 -0.3352  0.6802
19910TIP3   OH281144   0.693   6.702  16.882 -0.1647 -0.0010 -0.1364
19910TIP3    H181145   0.625   6.660  16.829  0.0665 -0.1110 -0.3462
19910TIP3    H281146   0.703   6.790  16.843 -0.5392  0.1950  0.2068
19911TIP3   OH281147   3.036   3.741  12.877  0.4132 -0.7263  0.3339
19911TIP3    H181148   3.055   3.685  12.802 -1.4437  0.2592 -0.9654
19911TIP3    H281149   3.050   3.830  12.845 -1.5139 -0.2233  0.7270
19912TIP3   OH281150   4.031   2.497   4.811 -0.0294  0.2450 -0.0567
19912TIP3    H181151   3.970   2.507   4.884 -0.8527 -0.8253 -0.5773
19912TIP3    H281152   4.034   2.584   4.771 -0.8875  0.4178  0.2286
19913TIP3   OH281153   5.907   3.139  12.188 -0.0023 -0.1698 -0.0580
19913TIP3    H181154   5.983   3.117  12.242  1.4597 -2.4193 -2.7458
19913TIP3    H281155   5.894   3.233  12.203  3.0257  0.2088  0.9119
19914TIP3   OH281156   3.852   1.301  12.513 -0.4888 -0.0883 -0.1847
19914TIP3    H181157   3.769   1.326  12.473 -0.7101 -0.0325  0.3006
19914TIP3    H281158   3.827   1.254  12.593 -0.0552 -0.1339 -0.0745
19915TIP3   OH281159   1.218   2.546  11.179 -0.2491 -0.2038  0.1165
19915TIP3    H181160   1.266   2.557  11.097  1.8707  1.4952  1.4681
19915TIP3    H281161   1.128   2.569  11.158  0.8728  3.8341 -1.0457
19916TIP3   OH281162   6.482   1.997  13.198  0.3807 -0.1233 -0.2520
19916TIP3    H181163   6.402   2.045  13.221  0.0787 -0.5634 -0.3552
19916TIP3    H281164   6.553   2.056  13.221  0.0984 -0.4431  1.5722
19917TIP3   OH281165   3.102   3.044  13.692 -0.2364 -0.3684 -0.1774
19917TIP3    H181166   3.053   3.042  13.774 -0.1551  1.8756 -0.0109
19917TIP3    H281167   3.194   3.040  13.719 -0.0954  2.5590  0.1075
19918TIP3   OH281168   6.682   2.051  14.789 -0.0346  0.3184  0.3459
19918TIP3    H181169   6.604   2.058  14.734  0.6801  0.4625 -0.6770
19918TIP3    H281170   6.706   2.142  14.807  0.1605  0.2795  0.2764
19919TIP3   OH281171   6.412   0.705  12.911  0.1606  0.0664 -0.2789
19919TIP3    H181172   6.365   0.787  12.895  0.0002 -0.0118 -0.2240
19919TIP3    H281173   6.486   0.706  12.851 -1.8891 -1.4462 -3.0483
19920TIP3   OH281174   0.483   1.972   6.074 -0.6185 -0.0455  0.0671
19920TIP3    H181175   0.555   1.929   6.026 -0.2897  0.9748 -0.3940
19920TIP3    H281176   0.505   1.960   6.166 -0.1460 -0.2212 -0.0642
19921TIP3   OH281177   3.331   5.045   2.191 -0.7269 -0.6771 -0.6278
19921TIP3    H181178   3.260   5.097   2.154 -0.5975 -0.3535 -0.4351
19921TIP3    H281179   3.290   4.991   2.258 -0.6966 -0.0060 -0.0514
19922TIP3   OH281180   1.509   0.038  10.693  0.0462  0.0006 -0.4545
19922TIP3    H181181   1.534   0.080  10.611 -0.9860 -0.8608 -1.2388
19922TIP3    H281182   1.580  -0.023  10.712  1.2328  1.5482  0.3449
19923TIP3   OH281183   3.759   6.718  13.229  0.0848  0.4947 -0.4537
19923TIP3    H181184   3.839   6.744  13.275  0.8828  2.1046 -2.5661
19923TIP3    H281185   3.742   6.628  13.257  2.6316  0.1145  0.0591
19924TIP3   OH281186   1.531   2.105   5.408 -0.0639 -0.3080 -0.1357
19924TIP3    H181187   1.464   2.053   5.363  0.1346  0.0910 -0.9059
19924TIP3    H281188   1.613   2.058   5.392  0.1064  0.1969 -0.7819
19925TIP3   OH281189   3.397   6.233  14.459 -0.6944  0.3427  0.0812
19925TIP3    H181190   3.334   6.235  14.387 -0.5335 -1.8242 -0.1852
19925TIP3    H281191   3.437   6.320  14.458 -1.9224  0.9379 -1.3309
19926TIP3   OH281192   5.038   4.292  13.671 -0.3408  0.7054 -0.0291
19926TIP3    H181193   5.095   4.253  13.605  0.8907  1.8865  0.2755
19926TIP3    H281194   5.094   4.356  13.716 -1.1470  0.0062  2.1096
19927TIP3   OH281195   4.523   4.682  13.238 -0.0626 -0.4295 -0.4686
19927TIP3    H181196   4.616   4.706  13.240 -0.4876  1.3868 -1.2203
19927TIP3    H281197   4.479   4.750  13.288 -1.1501 -0.5143 -1.2825
19928TIP3   OH281198   0.365   1.566  11.761 -0.6364 -0.5891  0.1567
19928TIP3    H181199   0.313   1.646  11.753 -1.5093 -1.1611 -0.0277
19928TIP3    H281200   0.420   1.581  11.838  0.8190  1.0723 -1.1456
19929TIP3   OH281201   5.312   1.699   2.929 -0.4583 -0.0872  0.0771
19929TIP3    H181202   5.347   1.614   2.957 -0.1390  0.4716  1.4952
19929TIP3    H281203   5.239   1.715   2.989 -1.9198 -0.3324 -1.5891
19930TIP3   OH281204   4.815   2.572   0.594 -0.1070 -0.1131  0.4593
19930TIP3    H181205   4.820   2.485   0.633  0.7845  0.1033  0.8600
19930TIP3    H281206   4.754   2.620   0.650 -1.2699 -0.7212 -0.2626
19931TIP3   OH281207   0.279   1.069   3.883  0.5703  0.2029  0.1288
19931TIP3    H181208   0.267   1.164   3.880  0.3281  0.1727  0.1204
19931TIP3    H281209   0.242   1.042   3.966  0.7721  0.1316  0.1972
19932TIP3   OH281210   3.837   3.480  12.221 -0.0353  0.0304 -0.0872
19932TIP3    H181211   3.924   3.501  12.256 -0.2307 -1.0577  1.1378
19932TIP3    H281212   3.788   3.561  12.227 -0.1462 -0.1538  2.5327
19933TIP3   OH281213   1.818   0.742   6.048 -0.5896  0.4536 -0.2695
19933TIP3    H181214   1.735   0.699   6.067 -0.1515 -2.6157 -4.0014
19933TIP3    H281215   1.872   0.725   6.125 -2.6391  0.4772  1.2569
19934TIP3   OH281216   2.141   6.034   5.545  0.5227 -0.0669 -0.4720
19934TIP3    H181217   2.224   6.062   5.583  0.6594 -0.5464 -0.4053
19934TIP3    H281218   2.087   6.007   5.619  1.0930 -1.8045 -0.6313
19935TIP3   OH281219   2.676   1.908   1.298  0.5215  0.1470  0.3151
19935TIP3    H181220   2.608   1.975   1.294  1.5711  1.1592 -1.8581
19935TIP3    H281221   2.648   1.851   1.370 -1.4796  1.7184  0.8883
19936TIP3   OH281222   0.714   5.188   2.029 -0.2359  0.1136  0.3998
19936TIP3    H181223   0.783   5.253   2.012 -0.1272  0.0495  0.5999
19936TIP3    H281224   0.738   5.112   1.976 -0.1083  0.0601  0.5357
19937TIP3   OH281225   5.058   1.448   0.043  0.6847 -0.3457  0.0122
19937TIP3    H181226   5.093   1.492  -0.034  0.1103 -2.0618 -1.2728
19937TIP3    H281227   5.106   1.366   0.049 -0.9002 -1.3267  0.0478
19938TIP3   OH281228   3.148   0.260  17.304  0.4181  0.3679  0.1975
19938TIP3    H181229   3.131   0.179  17.353  0.6451  0.7761  0.9765
19938TIP3    H281230   3.218   0.237  17.243  0.1650 -0.1432  0.0952
19939TIP3   OH281231   6.017   5.934  14.126  0.3007 -0.0228  0.1355
19939TIP3    H181232   6.084   5.992  14.089  0.0044  0.2729  0.0541
19939TIP3    H281233   6.064   5.853  14.145  0.7907  0.3382  0.5279
19940TIP3   OH281234   4.042   4.628  11.464 -0.5781  0.2458  0.3793
19940TIP3    H181235   3.972   4.648  11.527 -2.1255  2.3946 -1.8332
19940TIP3    H281236   3.999   4.573  11.398 -0.4902  2.2282 -1.4209
19941TIP3   OH281237   1.828   3.290   1.107 -0.2885 -1.2918 -0.0548
19941TIP3    H181238   1.899   3.296   1.172 -0.8145 -0.3108  0.4612
19941TIP3    H281239   1.787   3.377   1.110 -1.6320 -1.9072 -0.2014
19942TIP3   OH281240   4.910   5.971   4.103  0.2352  0.0393 -0.0906
19942TIP3    H181241   4.967   6.026   4.048  1.3257 -0.6258  0.3540
19942TIP3    H281242   4.830   6.022   4.111  1.2528  1.6480  0.4179
19943TIP3   OH281243   6.403   2.022  12.633  0.4578 -0.0835  0.5195
19943TIP3    H181244   6.393   2.050  12.724  2.4725  3.6845 -0.1975
19943TIP3    H281245   6.498   2.026  12.618  0.2026 -1.0120 -1.6660
19944TIP3   OH281246   4.763   0.962   1.106  0.4409 -0.2661 -0.3048
19944TIP3    H181247   4.700   0.900   1.070  1.0525 -0.0334 -1.8327
19944TIP3    H281248   4.760   0.947   1.200 -1.5315 -0.5989 -0.3746
19945TIP3   OH281249   2.371   3.058  16.517 -0.2488 -0.4598 -0.0953
19945TIP3    H181250   2.424   3.133  16.489 -0.7880 -0.0890 -0.1378
19945TIP3    H281251   2.371   3.063  16.612  0.0011 -0.6090 -0.0867
19946TIP3   OH281252   1.706   1.960   1.549  0.6981  0.3158 -0.4747
19946TIP3    H181253   1.675   2.047   1.571 -0.3129 -0.6142  2.1176
19946TIP3    H281254   1.670   1.903   1.617  1.3848 -2.1339 -2.0154
19947TIP3   OH281255   1.216   2.441  17.309 -0.0698  0.2689 -0.1628
19947TIP3    H181256   1.267   2.462  17.388  1.5044  0.5652 -1.2215
19947TIP3    H281257   1.233   2.515  17.250 -2.2993  0.7255 -0.3280
19948TIP3   OH281258   4.298   3.286   1.868  0.1325  0.2800 -0.5091
19948TIP3    H181259   4.292   3.364   1.924 -1.2852 -0.7112  0.8168
19948TIP3    H281260   4.376   3.240   1.899 -0.4868 -0.1181  0.5011
19949TIP3   OH281261   1.713   0.091  14.087 -0.2489  0.2629 -0.2106
19949TIP3    H181262   1.728   0.173  14.133 -0.2165 -0.3537  0.8999
19949TIP3    H281263   1.664   0.116  14.009 -1.2300  1.2003  0.6788
19950TIP3   OH281264   3.017   4.645   2.030  0.0054  0.5180 -0.4242
19950TIP3    H181265   2.990   4.721   2.080  0.1230 -1.1135  2.3327
19950TIP3    H281266   3.061   4.588   2.094  0.0015 -1.8244 -2.3448
19951TIP3   OH281267   2.604   2.979  12.061  0.1997 -0.4819  0.2338
19951TIP3    H181268   2.681   2.968  12.005 -0.7391  0.1496 -1.2125
19951TIP3    H281269   2.573   2.890  12.076  1.4901 -0.7931  1.2819
19952TIP3   OH281270   1.385   5.723   4.075  0.4756  0.2002  0.3332
19952TIP3    H181271   1.477   5.721   4.049  0.6026 -0.8997  0.7945
19952TIP3    H281272   1.337   5.702   3.995  0.6515  0.3926  0.1775
19953TIP3   OH281273   0.738   1.754   3.302  0.0352  0.1386 -0.6759
19953TIP3    H181274   0.791   1.708   3.367  0.1147  0.7322 -0.3131
19953TIP3    H281275   0.788   1.749   3.221  0.7699  0.9042 -0.2811
19954TIP3   OH281276   6.347   0.980   2.783  0.0978 -0.1884 -0.6537
19954TIP3    H181277   6.407   0.983   2.857 -0.5176 -1.6719 -0.0550
19954TIP3    H281278   6.260   0.969   2.823 -0.3010 -0.4962 -1.5824
19955TIP3   OH281279   0.874   5.033   1.452 -0.9013 -0.4375 -0.6098
19955TIP3    H181280   0.947   5.090   1.478 -2.0712  1.1718 -0.6837
19955TIP3    H281281   0.894   5.009   1.362 -0.4897  0.0654 -0.6595
19956TIP3   OH281282   3.226   2.939   4.723  0.3635  0.4713  0.4801
19956TIP3    H181283   3.154   2.878   4.733 -0.2066  1.0262 -0.1324
19956TIP3    H281284   3.185   3.025   4.723  1.0681  0.8176  0.5250
19957TIP3   OH281285   6.722   3.659  14.051  0.0330 -0.0810 -0.3548
19957TIP3    H181286   6.798   3.668  13.993  0.3019 -1.2169 -0.1984
19957TIP3    H281287   6.734   3.727  14.117  0.6007  0.1428 -0.6807
19958TIP3   OH281288   5.988   1.465  13.453  0.0206  0.2358  0.0263
19958TIP3    H181289   6.037   1.426  13.381  1.3845 -1.1360  1.6169
19958TIP3    H281290   6.037   1.545  13.475  0.3617 -0.0368  0.2643
19959TIP3   OH281291   0.735   5.902   0.715  0.0709  0.0531  0.0963
19959TIP3    H181292   0.694   5.985   0.693  0.7579 -0.2612 -2.8065
19959TIP3    H281293   0.730   5.896   0.811 -1.6014  2.5470  0.2274
19960TIP3   OH281294   1.738   6.202   5.287  0.0341 -0.3410  0.4365
19960TIP3    H181295   1.833   6.207   5.290  0.0677  0.1135 -0.7502
19960TIP3    H281296   1.710   6.292   5.265 -0.6240 -0.5830  0.2428
19961TIP3   OH281297   5.545   2.810   3.802 -0.2659  0.2885  0.1039
19961TIP3    H181298   5.579   2.722   3.820  1.7701  1.0212  0.1301
19961TIP3    H281299   5.504   2.838   3.884 -0.2851 -0.3588  0.3183
19962TIP3   OH281300   6.206   5.480  16.763 -0.4418  0.1750  0.1468
19962TIP3    H181301   6.194   5.407  16.703 -1.3794  1.2743 -1.0697
19962TIP3    H281302   6.248   5.442  16.840 -0.4576 -1.5300 -0.6532
19963TIP3   OH281303   1.134   1.737  11.333  0.2854 -0.5573 -0.0558
19963TIP3    H181304   1.220   1.772  11.354  0.9381 -2.0877 -0.0491
19963TIP3    H281305   1.143   1.699  11.246 -0.5134 -0.3308 -0.2490
19964TIP3   OH281306   4.790   5.639  13.852  0.0229  0.6221  0.0296
19964TIP3    H181307   4.865   5.594  13.812  0.1120  0.9645 -0.1921
19964TIP3    H281308   4.756   5.576  13.915  1.5207  1.1063  1.3694
19965TIP3   OH281309   6.408   6.380  13.529  0.0422 -0.0065 -0.4101
19965TIP3    H181310   6.404   6.322  13.605  0.1140  0.5359  0.0148
19965TIP3    H281311   6.328   6.361  13.480 -0.2169 -0.0520  0.0261
19966LIG     O181312   3.430   3.306  14.992 -0.3544 -0.6159  0.8056
19966LIG     O281313   3.423   3.550  15.095 -0.3721 -0.4841  0.0085
19966LIG     O381314   3.506   3.220  15.262 -0.0019 -0.0756  0.2821
19966LIG     O481315   3.357   3.757  15.184  0.1990  0.1122  0.2782
19966LIG     O581316   3.291   3.418  15.313  0.2058 -0.6601 -0.5442
19966LIG     O681317   3.231   3.573  15.540 -0.5734  0.4209 -0.2723
19966LIG     O781318   3.146   3.840  15.474  0.2061 -0.0566  0.0130
19966LIG     O881319   3.413   4.028  15.244 -0.0319 -0.1736 -0.0263
19966LIG     O981320   3.194   4.055  15.290  0.3670 -0.2713 -0.3248
19966LIG      N81321   3.787   3.380  14.660  0.0871 -0.0441  0.1456
19966LIG     C181322   3.570   3.403  14.838  0.0744  0.0354  0.4356
19966LIG     C281323   3.623   3.533  14.771 -0.0612  0.3619 -0.3264
19966LIG     C381324   3.426   3.412  14.893 -0.1857 -0.0851  0.2137
19966LIG     C481325   3.766   3.499  14.755 -0.0387  0.0961  0.4945
19966LIG     C581326   3.581   3.280  14.748  0.4346 -0.4492  0.4520
19966LIG     C681327   3.652   3.365  14.954 -0.5541 -0.1170 -0.2469
19966LIG     C781328   3.851   3.481  14.885 -0.2849  0.3704  0.3124
19966LIG     C881329   3.725   3.253  14.707 -0.1473 -0.1148 -0.7053
19966LIG     C981330   3.386   3.548  14.950 -0.7600 -0.3510  0.4715
19966LIG    C1081331   3.782   3.393  14.990 -0.1647  0.5392 -0.2801
19966LIG    C1181332   3.578   3.660  14.840 -0.1943 -0.3698 -0.1623
19966LIG    C1281333   3.558   3.318  15.046  0.0548  0.5543 -0.5869
19966LIG    C1381334   3.472   3.667  14.922 -0.1834  0.7161  0.3454
19966LIG    C1481335   3.748   3.412  14.524  0.0752  0.0807 -0.0639
19966LIG    C1581336   3.824   3.364  15.122  0.8486 -0.4209 -0.3797
19966LIG    C1681337   3.593   3.284  15.174  0.7320 -0.2002 -0.3256
19966LIG    C1781338   3.733   3.302  15.213  0.6297 -0.8892 -0.3001
19966LIG    C1881339   3.330   3.617  15.178  0.1021  0.0509  0.6237
19966LIG    C1981340   3.328   3.555  15.315 -0.1059 -0.4913 -0.6847
19966LIG    C2081341   3.235   3.627  15.407  0.4832  0.0821 -0.5921
19966LIG    C2181342   3.255   3.778  15.407 -0.5881 -0.8491  1.3188
19966LIG    C2281343   3.259   3.824  15.262 -0.2633 -0.2314  0.0852
19966LIG    C2381344   3.278   3.974  15.263 -0.0069 -0.6489 -0.4067
19966LIG     H181345   3.585   3.537  14.666 -1.7957 -0.9937  0.2004
19966LIG     H281346   3.353   3.383  14.815  1.3218 -1.1303 -0.8452
19966LIG     H381347   3.819   3.584  14.708  0.5028  0.1523  1.1804
19966LIG     H481348   3.514   3.303  14.663  0.7818  1.8950  0.7468
19966LIG     H581349   3.546   3.187  14.797  2.6742 -1.3613  0.4443
19966LIG     H681350   3.865   3.579  14.935 -0.1278  0.8056 -0.5710
19966LIG     H781351   3.951   3.437  14.862 -0.7398 -1.0274  0.8877
19966LIG     H881352   3.792   3.205  14.782  0.4586 -1.0586 -1.8171
19966LIG     H981353   3.724   3.183  14.621 -0.3370 -1.3295  0.2612
19966LIG    H1081354   3.278   3.560  14.925 -0.2385  0.0762 -1.7552
19966LIG    H1181355   3.640   3.748  14.818  0.4607 -0.5062  1.0935
19966LIG    H1281356   3.439   3.764  14.961  0.9296  0.9347  0.7732
19966LIG    H1381357   3.822   3.373  14.451 -0.3890 -2.0235  0.5249
19966LIG    H1481358   3.731   3.519  14.498 -0.8670 -0.2098 -0.6849
19966LIG    H1581359   3.653   3.360  14.503 -0.3238  0.4930  0.6757
19966LIG    H1681360   3.916   3.400  15.165 -0.1619  1.1037  0.6128
19966LIG    H1781361   3.761   3.290  15.316  1.0507 -2.2339 -0.5475
19966LIG    H1881362   3.234   3.600  15.125  1.1147  1.4342 -1.8371
19966LIG    H1981363   3.431   3.565  15.357 -0.7668 -0.6260  1.0370
19966LIG    H2081364   3.130   3.613  15.373 -0.2404  0.8186  1.2123
19966LIG    H2181365   3.555   3.184  15.337 -0.3021  2.5489  1.8822
19966LIG    H2281366   3.354   3.801  15.451 -0.2143  0.6009 -0.1613
19966LIG    H2381367   3.157   3.810  15.222 -0.4283 -3.0283  1.2323
19966LIG    H2481368   3.366   3.380  15.266  2.1685  1.2015  0.8994
19966LIG    H2581369   3.203   3.485  15.512  0.9299  0.6034 -2.5443
19966LIG    H2681370   3.151   3.813  15.566 -1.0823 -1.5912 -0.3254
19966LIG    H2781371   3.484   3.965  15.256  1.9452  2.0995  0.9610
   6.74989   6.74989  17.40947
